/*--------------------------------*- C++ -*----------------------------------*\
  =========                 |
  \\      /  F ield         | OpenFOAM: The Open Source CFD Toolbox
   \\    /   O peration     | Website:  https://openfoam.org
    \\  /    A nd           | Version:  12
     \\/     M anipulation  |
\*---------------------------------------------------------------------------*/
FoamFile
{
    format      ascii;
    class       volVectorField;
    location    "4.5";
    object      U;
}
// * * * * * * * * * * * * * * * * * * * * * * * * * * * * * * * * * * * * * //

dimensions      [0 1 -1 0 0 0 0];

internalField   nonuniform List<vector> 
5625
(
(-6.38529e-06 2.55531e-06 0)
(8.33151e-06 -2.62072e-06 0)
(6.26541e-05 -6.11635e-06 0)
(0.000143057 -8.00468e-06 0)
(0.000237561 -8.84318e-06 0)
(0.000337326 -8.97077e-06 0)
(0.000436017 -8.6458e-06 0)
(0.000529333 -8.04279e-06 0)
(0.000614482 -7.28284e-06 0)
(0.000689769 -6.44884e-06 0)
(0.000754274 -5.59638e-06 0)
(0.000807595 -4.75964e-06 0)
(0.000849641 -3.95748e-06 0)
(0.000880472 -3.19732e-06 0)
(0.000900149 -2.4717e-06 0)
(0.000908659 -1.77748e-06 0)
(0.000905813 -1.09336e-06 0)
(0.000891111 -3.95436e-07 0)
(0.000863761 3.4099e-07 0)
(0.000822576 1.14743e-06 0)
(0.000765925 2.05835e-06 0)
(0.000691674 3.11485e-06 0)
(0.000597152 4.36094e-06 0)
(0.000479089 5.8452e-06 0)
(0.000333591 7.62057e-06 0)
(0.000156089 9.7399e-06 0)
(-5.86897e-05 1.22632e-05 0)
(-0.000316728 1.52527e-05 0)
(-0.000624747 1.87823e-05 0)
(-0.000990165 2.29207e-05 0)
(-0.00142103 2.77352e-05 0)
(-0.00192599 3.32941e-05 0)
(-0.00251409 3.966e-05 0)
(-0.00319467 4.68847e-05 0)
(-0.003977 5.50046e-05 0)
(-0.00487004 6.40333e-05 0)
(-0.00588198 7.39539e-05 0)
(-0.00701972 8.47098e-05 0)
(-0.00828835 9.61958e-05 0)
(-0.00969045 0.000108249 0)
(-0.0112254 0.000120639 0)
(-0.0128887 0.000133062 0)
(-0.0146712 0.000145134 0)
(-0.0165585 0.00015639 0)
(-0.01853 0.000166282 0)
(-0.020559 0.000174188 0)
(-0.0226119 0.000179421 0)
(-0.0246482 0.000181246 0)
(-0.0266208 0.000178903 0)
(-0.0284763 0.000171655 0)
(-0.0301559 0.000158889 0)
(-0.0315927 0.000139044 0)
(-0.0327268 0.000113381 0)
(-0.0334851 8.13207e-05 0)
(-0.0338216 4.11627e-05 0)
(-0.0336748 -3.40562e-06 0)
(-0.0329965 -5.25583e-05 0)
(-0.031771 -0.000104865 0)
(-0.0299962 -0.000157224 0)
(-0.0276996 -0.000206589 0)
(-0.0249401 -0.00024948 0)
(-0.0218087 -0.000282389 0)
(-0.018426 -0.00030222 0)
(-0.0149366 -0.000306779 0)
(-0.0114983 -0.000295222 0)
(-0.00826903 -0.000268334 0)
(-0.0053922 -0.000228534 0)
(-0.00298271 -0.000179559 0)
(-0.00111657 -0.000125873 0)
(0.00017466 -7.21e-05 0)
(0.000903617 -2.21394e-05 0)
(0.00112517 2.02838e-05 0)
(0.000935755 5.1983e-05 0)
(0.000505332 6.33758e-05 0)
(9.11228e-05 4.20772e-05 0)
(-4.43507e-06 -1.29269e-06 0)
(5.5787e-05 -3.74221e-05 0)
(0.000206056 -6.92014e-05 0)
(0.000419367 -8.89508e-05 0)
(0.000668306 -9.86216e-05 0)
(0.0009312 -0.000100712 0)
(0.00119157 -9.74448e-05 0)
(0.00143769 -9.05609e-05 0)
(0.00166158 -8.13643e-05 0)
(0.00185812 -7.08007e-05 0)
(0.00202423 -5.95274e-05 0)
(0.00215824 -4.79659e-05 0)
(0.00225933 -3.63521e-05 0)
(0.00232708 -2.47697e-05 0)
(0.00236108 -1.31664e-05 0)
(0.00236072 -1.4282e-06 0)
(0.00232484 1.06957e-05 0)
(0.00225139 2.35267e-05 0)
(0.00213754 3.74066e-05 0)
(0.00197926 5.27734e-05 0)
(0.00177125 7.01102e-05 0)
(0.00150678 8.99563e-05 0)
(0.00117757 0.000112901 0)
(0.000773646 0.000139579 0)
(0.000283269 0.000170613 0)
(-0.000307147 0.000206727 0)
(-0.0010132 0.00024867 0)
(-0.00185246 0.000297176 0)
(-0.0028442 0.000352942 0)
(-0.00400951 0.000416648 0)
(-0.00537108 0.00048891 0)
(-0.00695277 0.000570218 0)
(-0.00877917 0.000660895 0)
(-0.0108749 0.000761023 0)
(-0.0132639 0.000870376 0)
(-0.015968 0.000988337 0)
(-0.0190062 0.00111382 0)
(-0.0223928 0.00124517 0)
(-0.0261358 0.00138012 0)
(-0.0302352 0.00151571 0)
(-0.034681 0.00164826 0)
(-0.0394518 0.00177335 0)
(-0.0445125 0.00188586 0)
(-0.0498133 0.00198004 0)
(-0.0552883 0.00204958 0)
(-0.0608547 0.00208782 0)
(-0.0664132 0.00208789 0)
(-0.0718475 0.00204298 0)
(-0.0770264 0.00194667 0)
(-0.0818055 0.00179323 0)
(-0.08603 0.0015778 0)
(-0.0895324 0.00129576 0)
(-0.0921728 0.000945246 0)
(-0.0937362 0.000537408 0)
(-0.0941635 8.18279e-05 0)
(-0.0932981 -0.000435135 0)
(-0.091048 -0.000979473 0)
(-0.0873869 -0.00153402 0)
(-0.0823341 -0.00207367 0)
(-0.0759778 -0.0025691 0)
(-0.0684792 -0.00298878 0)
(-0.0600735 -0.0033019 0)
(-0.0510642 -0.00348186 0)
(-0.0418081 -0.00351015 0)
(-0.0326929 -0.00337991 0)
(-0.0241069 -0.00309818 0)
(-0.0164061 -0.00268627 0)
(-0.00988127 -0.00217771 0)
(-0.00473221 -0.00161417 0)
(-0.00105098 -0.00104051 0)
(0.00118207 -0.000500826 0)
(0.00209832 -3.72804e-05 0)
(0.00194081 0.000300833 0)
(0.00111928 0.000438271 0)
(0.000201275 0.000275341 0)
(2.59937e-06 -2.00696e-05 0)
(0.00011588 -0.000107946 0)
(0.000352191 -0.000184461 0)
(0.000676169 -0.000233772 0)
(0.00105054 -0.000258587 0)
(0.00144476 -0.000264129 0)
(0.00183458 -0.000255545 0)
(0.00220214 -0.000237105 0)
(0.0025349 -0.000212129 0)
(0.00282445 -0.00018308 0)
(0.00306542 -0.000151695 0)
(0.00325456 -0.000119099 0)
(0.00338989 -8.59249e-05 0)
(0.00347005 -5.23909e-05 0)
(0.00349366 -1.83574e-05 0)
(0.00345904 1.64931e-05 0)
(0.0033634 5.29329e-05 0)
(0.00320286 9.17663e-05 0)
(0.00297203 0.00013401 0)
(0.00266362 0.000180887 0)
(0.00226834 0.000233758 0)
(0.00177454 0.000294157 0)
(0.00116817 0.000363604 0)
(0.000432443 0.000443876 0)
(-0.000452335 0.00053687 0)
(-0.00150885 0.000644508 0)
(-0.00276253 0.000768691 0)
(-0.00424178 0.000911322 0)
(-0.00597784 0.00107424 0)
(-0.00800442 0.00125914 0)
(-0.0103572 0.00146742 0)
(-0.0130734 0.00170009 0)
(-0.0161904 0.00195759 0)
(-0.0197451 0.0022396 0)
(-0.0237718 0.00254485 0)
(-0.0283009 0.00287093 0)
(-0.0333564 0.00321403 0)
(-0.0389539 0.00356879 0)
(-0.0450972 0.00392812 0)
(-0.0517766 0.0042831 0)
(-0.0589652 0.00462297 0)
(-0.066617 0.00493515 0)
(-0.0746645 0.00520547 0)
(-0.0830172 0.00541836 0)
(-0.0915601 0.00555729 0)
(-0.100154 0.00560522 0)
(-0.108637 0.00554522 0)
(-0.116823 0.00536111 0)
(-0.124508 0.00503832 0)
(-0.131476 0.00456472 0)
(-0.137496 0.00393142 0)
(-0.142331 0.00313257 0)
(-0.145789 0.00215774 0)
(-0.147559 0.00106904 0)
(-0.147608 -0.000173939 0)
(-0.145682 -0.00151961 0)
(-0.141721 -0.00292937 0)
(-0.135696 -0.00434805 0)
(-0.127662 -0.00571366 0)
(-0.117766 -0.00695514 0)
(-0.106252 -0.00799732 0)
(-0.0934654 -0.00876736 0)
(-0.079838 -0.0092028 0)
(-0.0658749 -0.00926018 0)
(-0.0521229 -0.00892308 0)
(-0.0391318 -0.0082076 0)
(-0.0274107 -0.00716368 0)
(-0.0173836 -0.00587125 0)
(-0.00935127 -0.00443162 0)
(-0.00346465 -0.00295665 0)
(0.000287435 -0.00156031 0)
(0.00208235 -0.000354159 0)
(0.00226383 0.000535558 0)
(0.00140274 0.000939842 0)
(0.000257368 0.000633734 0)
(1.02908e-05 -5.58911e-05 0)
(0.000176274 -0.000213884 0)
(0.000489054 -0.00034748 0)
(0.000905354 -0.000434796 0)
(0.00138078 -0.000479126 0)
(0.00187866 -0.000488693 0)
(0.00236903 -0.000472142 0)
(0.0028292 -0.000436951 0)
(0.00324273 -0.000389077 0)
(0.00359826 -0.000333017 0)
(0.00388817 -0.000271973 0)
(0.00410745 -0.000208035 0)
(0.00425267 -0.000142373 0)
(0.00432117 -7.53809e-05 0)
(0.0043102 -6.79925e-06 0)
(0.00421649 6.41193e-05 0)
(0.00403533 0.000138756 0)
(0.00376056 0.000218723 0)
(0.00338379 0.000306045 0)
(0.0028942 0.000403119 0)
(0.00227816 0.00051252 0)
(0.001519 0.000637129 0)
(0.000596494 0.00078024 0)
(-0.000513158 0.000945187 0)
(-0.00183738 0.00113547 0)
(-0.00340744 0.00135468 0)
(-0.00525852 0.00160646 0)
(-0.00742944 0.00189436 0)
(-0.00996245 0.0022217 0)
(-0.0129027 0.00259139 0)
(-0.0162973 0.0030057 0)
(-0.0201945 0.00346601 0)
(-0.0246422 0.00397244 0)
(-0.029686 0.00452355 0)
(-0.0353668 0.0051159 0)
(-0.0417187 0.00574371 0)
(-0.0487655 0.00639844 0)
(-0.0565176 0.00706852 0)
(-0.0649685 0.00773906 0)
(-0.0740914 0.00839182 0)
(-0.0838359 0.00900525 0)
(-0.094125 0.00955471 0)
(-0.104854 0.010013 0)
(-0.115887 0.0103508 0)
(-0.127059 0.010538 0)
(-0.138177 0.0105441 0)
(-0.149019 0.0103398 0)
(-0.159343 0.00989822 0)
(-0.168886 0.00919612 0)
(-0.177373 0.00821572 0)
(-0.184527 0.00694608 0)
(-0.190066 0.00538406 0)
(-0.193753 0.00352917 0)
(-0.195311 0.00143823 0)
(-0.194592 -0.000870069 0)
(-0.19141 -0.00335523 0)
(-0.185704 -0.00592964 0)
(-0.177465 -0.0084983 0)
(-0.166787 -0.010952 0)
(-0.153866 -0.0131679 0)
(-0.139008 -0.0150174 0)
(-0.12263 -0.0163762 0)
(-0.105253 -0.017138 0)
(-0.0874752 -0.0172282 0)
(-0.06995 -0.0166172 0)
(-0.0533373 -0.0153307 0)
(-0.0382562 -0.0134523 0)
(-0.0252324 -0.0111187 0)
(-0.0146519 -0.00850659 0)
(-0.00672341 -0.0058154 0)
(-0.00145779 -0.00325208 0)
(0.00134183 -0.00102505 0)
(0.00208133 0.000638507 0)
(0.00143276 0.00145575 0)
(0.000274763 0.00105062 0)
(1.71666e-05 -0.000107925 0)
(0.000230979 -0.00035113 0)
(0.000609842 -0.000549713 0)
(0.00110196 -0.00067966 0)
(0.00165697 -0.000745387 0)
(0.00223389 -0.000758287 0)
(0.00279858 -0.000730768 0)
(0.00332464 -0.000673867 0)
(0.00379252 -0.000596551 0)
(0.00418826 -0.000505673 0)
(0.00450211 -0.000406157 0)
(0.00472725 -0.000301222 0)
(0.00485864 -0.00019266 0)
(0.00489199 -8.10433e-05 0)
(0.00482291 3.40799e-05 0)
(0.00464613 0.000154035 0)
(0.00435478 0.000280981 0)
(0.00393992 0.000417644 0)
(0.00338996 0.000567281 0)
(0.00269024 0.000733724 0)
(0.00182248 0.000921395 0)
(0.000764571 0.00113502 0)
(-0.000509716 0.00137969 0)
(-0.002031 0.0016608 0)
(-0.00383453 0.00198401 0)
(-0.0059601 0.00235505 0)
(-0.00845209 0.00277962 0)
(-0.0113591 0.00326318 0)
(-0.0147333 0.0038107 0)
(-0.0186301 0.00442635 0)
(-0.0231063 0.00511311 0)
(-0.0282192 0.00587226 0)
(-0.034024 0.00670293 0)
(-0.0405717 0.00760144 0)
(-0.0479059 0.00856071 0)
(-0.0560595 0.00956971 0)
(-0.0650506 0.0106128 0)
(-0.0748787 0.0116696 0)
(-0.0855204 0.0127142 0)
(-0.0969259 0.0137159 0)
(-0.109015 0.0146388 0)
(-0.121675 0.015443 0)
(-0.13476 0.0160852 0)
(-0.148089 0.0165199 0)
(-0.161448 0.0167012 0)
(-0.174592 0.0165843 0)
(-0.187253 0.0161273 0)
(-0.199139 0.0152935 0)
(-0.209946 0.014053 0)
(-0.219367 0.0123853 0)
(-0.227092 0.0102808 0)
(-0.232827 0.00774337 0)
(-0.236316 0.0047882 0)
(-0.237306 0.00148488 0)
(-0.235617 -0.00212212 0)
(-0.231109 -0.0059589 0)
(-0.223733 -0.00989956 0)
(-0.213511 -0.0138045 0)
(-0.200565 -0.0175128 0)
(-0.185128 -0.0208461 0)
(-0.167543 -0.0236182 0)
(-0.148271 -0.0256499 0)
(-0.127879 -0.0267865 0)
(-0.107026 -0.0269177 0)
(-0.0864288 -0.0259975 0)
(-0.0668217 -0.0240582 0)
(-0.0489042 -0.0212174 0)
(-0.0332839 -0.0176721 0)
(-0.0204211 -0.0136827 0)
(-0.0105836 -0.0095489 0)
(-0.00381563 -0.00558736 0)
(7.77338e-05 -0.00212203 0)
(0.0015333 0.00050158 0)
(0.00128071 0.00187289 0)
(0.000268268 0.00145459 0)
(2.28369e-05 -0.000173954 0)
(0.000277357 -0.0005151 0)
(0.000711087 -0.000783972 0)
(0.00126334 -0.000958606 0)
(0.00187834 -0.00104565 0)
(0.00251185 -0.00105998 0)
(0.00312672 -0.00101793 0)
(0.00369381 -0.000934274 0)
(0.00419111 -0.000821179 0)
(0.0046025 -0.000688046 0)
(0.00491629 -0.000541657 0)
(0.00512385 -0.000386434 0)
(0.00521839 -0.000224827 0)
(0.0051939 -5.75675e-05 0)
(0.00504401 0.000116117 0)
(0.00476123 0.000298238 0)
(0.00433616 0.000491932 0)
(0.00375691 0.000701202 0)
(0.00300827 0.000931023 0)
(0.0020714 0.00118704 0)
(0.000923378 0.00147557 0)
(-0.000463329 0.00180354 0)
(-0.00212114 0.00217843 0)
(-0.00408759 0.00260806 0)
(-0.00640548 0.00310057 0)
(-0.00912281 0.00366413 0)
(-0.0122926 0.00430674 0)
(-0.0159724 0.00503594 0)
(-0.0202235 0.00585836 0)
(-0.0251097 0.00677925 0)
(-0.0306959 0.00780185 0)
(-0.0370457 0.0089267 0)
(-0.044219 0.0101509 0)
(-0.0522685 0.011467 0)
(-0.0612362 0.0128627 0)
(-0.071149 0.0143194 0)
(-0.082014 0.0158118 0)
(-0.0938141 0.0173076 0)
(-0.106503 0.0187673 0)
(-0.120004 0.0201443 0)
(-0.134201 0.0213856 0)
(-0.148943 0.0224333 0)
(-0.164042 0.0232261 0)
(-0.179271 0.0237011 0)
(-0.194374 0.0237965 0)
(-0.209063 0.0234537 0)
(-0.22303 0.0226204 0)
(-0.235954 0.0212525 0)
(-0.247506 0.0193173 0)
(-0.257362 0.0167956 0)
(-0.265209 0.0136843 0)
(-0.270755 0.0099987 0)
(-0.27375 0.00577431 0)
(-0.273966 0.00109379 0)
(-0.271233 -0.00396716 0)
(-0.265445 -0.00929661 0)
(-0.256572 -0.0147322 0)
(-0.24466 -0.0200888 0)
(-0.229851 -0.0251542 0)
(-0.212392 -0.0296941 0)
(-0.192644 -0.0334647 0)
(-0.171083 -0.03623 0)
(-0.148296 -0.0377842 0)
(-0.124969 -0.0379776 0)
(-0.101856 -0.0367421 0)
(-0.0797417 -0.0341122 0)
(-0.0593888 -0.0302355 0)
(-0.0414738 -0.0253692 0)
(-0.026527 -0.0198606 0)
(-0.0148776 -0.0141177 0)
(-0.00661358 -0.00857904 0)
(-0.00155937 -0.00369721 0)
(0.000728295 4.97704e-05 0)
(0.00100444 0.00211526 0)
(0.000247372 0.0018008 0)
(2.72669e-05 -0.000251382 0)
(0.00031446 -0.000700912 0)
(0.000791317 -0.00104358 0)
(0.00138845 -0.00126314 0)
(0.00204506 -0.00136989 0)
(0.00271433 -0.00138267 0)
(0.00335691 -0.00132189 0)
(0.00394172 -0.00120617 0)
(0.0044449 -0.00105098 0)
(0.00484854 -0.000868307 0)
(0.00513923 -0.000666858 0)
(0.00530665 -0.000452281 0)
(0.00534231 -0.000227691 0)
(0.00523818 6.16072e-06 0)
(0.00498577 0.000250433 0)
(0.0045752 0.000507975 0)
(0.00399422 0.000783181 0)
(0.00322765 0.00108164 0)
(0.00225665 0.00141007 0)
(0.00105811 0.00177625 0)
(-0.000395841 0.00218887 0)
(-0.00213824 0.00265738 0)
(-0.00420767 0.00319192 0)
(-0.00664842 0.00380309 0)
(-0.0095106 0.00450176 0)
(-0.01285 0.00529879 0)
(-0.0167276 0.00620462 0)
(-0.0212089 0.00722886 0)
(-0.0263631 0.00837964 0)
(-0.032261 0.00966289 0)
(-0.0389731 0.0110815 0)
(-0.046567 0.0126343 0)
(-0.055104 0.0143149 0)
(-0.0646349 0.0161107 0)
(-0.0751956 0.0180016 0)
(-0.0868022 0.0199593 0)
(-0.0994458 0.0219461 0)
(-0.113088 0.0239151 0)
(-0.127654 0.0258098 0)
(-0.143035 0.0275653 0)
(-0.159079 0.0291092 0)
(-0.175595 0.0303641 0)
(-0.192352 0.0312499 0)
(-0.209085 0.0316864 0)
(-0.225499 0.0315973 0)
(-0.241276 0.030913 0)
(-0.256083 0.0295736 0)
(-0.269583 0.0275323 0)
(-0.281441 0.024758 0)
(-0.291336 0.0212377 0)
(-0.298967 0.016979 0)
(-0.304062 0.0120131 0)
(-0.306394 0.00639674 0)
(-0.305763 0.000228927 0)
(-0.302026 -0.00638231 0)
(-0.295101 -0.013289 0)
(-0.284976 -0.0202937 0)
(-0.27171 -0.0271686 0)
(-0.25545 -0.0336524 0)
(-0.236442 -0.0394577 0)
(-0.21504 -0.0442838 0)
(-0.191712 -0.0478373 0)
(-0.167043 -0.0498587 0)
(-0.141724 -0.0501535 0)
(-0.116528 -0.0486251 0)
(-0.092277 -0.045303 0)
(-0.0697837 -0.040359 0)
(-0.0497895 -0.0341064 0)
(-0.0328944 -0.0269804 0)
(-0.0194939 -0.0195023 0)
(-0.00972933 -0.0122416 0)
(-0.00345886 -0.0057903 0)
(-0.000251469 -0.000769076 0)
(0.000647899 0.00213261 0)
(0.000218858 0.00206263 0)
(3.05561e-05 -0.00033759 0)
(0.000342217 -0.000903477 0)
(0.000850271 -0.00132186 0)
(0.00147734 -0.00158513 0)
(0.00215804 -0.0017087 0)
(0.00284341 -0.00171597 0)
(0.00349259 -0.00163166 0)
(0.00407314 -0.00147828 0)
(0.00455988 -0.00127458 0)
(0.00493353 -0.0010352 0)
(0.00517919 -0.00077067 0)
(0.00528498 -0.000487933 0)
(0.00524056 -0.000190542 0)
(0.00503594 0.000120745 0)
(0.00466038 0.000447644 0)
(0.00410134 0.000794051 0)
(0.00334365 0.00116572 0)
(0.00236874 0.00157003 0)
(0.00115383 0.00201585 0)
(-0.000328587 0.00251332 0)
(-0.00211134 0.00307376 0)
(-0.00423301 0.00370947 0)
(-0.00673823 0.00443353 0)
(-0.00967783 0.00525954 0)
(-0.0131089 0.00620135 0)
(-0.0170943 0.00727261 0)
(-0.0217024 0.00848622 0)
(-0.0270057 0.00985371 0)
(-0.0330795 0.0113844 0)
(-0.0399999 0.0130842 0)
(-0.0478408 0.0149548 0)
(-0.0566711 0.0169921 0)
(-0.0665499 0.0191847 0)
(-0.0775223 0.0215126 0)
(-0.0896139 0.0239461 0)
(-0.102826 0.0264441 0)
(-0.117128 0.028954 0)
(-0.132455 0.0314113 0)
(-0.148704 0.0337402 0)
(-0.165728 0.0358554 0)
(-0.183338 0.0376638 0)
(-0.201305 0.0390678 0)
(-0.219361 0.0399691 0)
(-0.237208 0.0402724 0)
(-0.254522 0.0398894 0)
(-0.270968 0.0387433 0)
(-0.286203 0.0367715 0)
(-0.299889 0.0339292 0)
(-0.311702 0.0301918 0)
(-0.32134 0.025557 0)
(-0.328528 0.0200469 0)
(-0.333027 0.0137105 0)
(-0.334637 0.00662597 0)
(-0.333193 -0.0010895 0)
(-0.328578 -0.00929837 0)
(-0.320729 -0.0178209 0)
(-0.309644 -0.0264281 0)
(-0.295381 -0.0348535 0)
(-0.278077 -0.0427916 0)
(-0.257959 -0.0499048 0)
(-0.235355 -0.0558375 0)
(-0.210708 -0.0602381 0)
(-0.184583 -0.0627897 0)
(-0.157658 -0.0632467 0)
(-0.130716 -0.0614761 0)
(-0.104603 -0.0574927 0)
(-0.0801788 -0.0514843 0)
(-0.0582495 -0.0438151 0)
(-0.0394883 -0.0350062 0)
(-0.0243636 -0.0256957 0)
(-0.0130801 -0.016591 0)
(-0.0055426 -0.00843315 0)
(-0.00134663 -0.00199305 0)
(0.000242805 0.00189086 0)
(0.000187383 0.00222423 0)
(3.28511e-05 -0.000430072 0)
(0.000361004 -0.00111769 0)
(0.000888393 -0.00161212 0)
(0.00153074 -0.00191659 0)
(0.00221863 -0.00205301 0)
(0.0029014 -0.00204999 0)
(0.00353713 -0.00193678 0)
(0.00409258 -0.00173983 0)
(0.0045417 -0.00148116 0)
(0.00486418 -0.00117795 0)
(0.00504391 -0.000842545 0)
(0.0050675 -0.000482936 0)
(0.00492287 -0.000103135 0)
(0.00459803 0.000296288 0)
(0.00407986 0.000717773 0)
(0.00335312 0.00116639 0)
(0.00239956 0.00164953 0)
(0.00119702 0.00217658 0)
(-0.000281236 0.00275876 0)
(-0.00206721 0.00340886 0)
(-0.00419871 0.0041411 0)
(-0.00671976 0.00497084 0)
(-0.00968086 0.00591435 0)
(-0.0131391 0.00698844 0)
(-0.0171581 0.00821003 0)
(-0.0218071 0.00959558 0)
(-0.0271609 0.0111603 0)
(-0.0332976 0.0129174 0)
(-0.0402972 0.0148767 0)
(-0.0482391 0.0170435 0)
(-0.0571981 0.0194171 0)
(-0.0672413 0.0219887 0)
(-0.0784224 0.0247403 0)
(-0.0907769 0.0276425 0)
(-0.104316 0.0306529 0)
(-0.119021 0.0337156 0)
(-0.134837 0.0367601 0)
(-0.151671 0.0397022 0)
(-0.169384 0.0424448 0)
(-0.187795 0.0448806 0)
(-0.206678 0.0468957 0)
(-0.225769 0.0483732 0)
(-0.24477 0.0491985 0)
(-0.263358 0.0492641 0)
(-0.281195 0.0484745 0)
(-0.297938 0.04675 0)
(-0.31325 0.0440308 0)
(-0.326809 0.0402791 0)
(-0.338314 0.0354813 0)
(-0.347495 0.0296492 0)
(-0.354113 0.0228216 0)
(-0.357964 0.0150661 0)
(-0.358884 0.00648058 0)
(-0.356738 -0.00280017 0)
(-0.351432 -0.012614 0)
(-0.342914 -0.0227552 0)
(-0.33118 -0.0329681 0)
(-0.316276 -0.0429535 0)
(-0.298314 -0.0523666 0)
(-0.277487 -0.0608238 0)
(-0.254083 -0.0679161 0)
(-0.228505 -0.0732326 0)
(-0.201279 -0.0763946 0)
(-0.173065 -0.0770983 0)
(-0.14464 -0.0751636 0)
(-0.11687 -0.0705801 0)
(-0.0906623 -0.0635408 0)
(-0.0668876 -0.054453 0)
(-0.0462995 -0.0439211 0)
(-0.0294488 -0.0327016 0)
(-0.0166141 -0.0216463 0)
(-0.00775872 -0.0116534 0)
(-0.00251698 -0.00365163 0)
(-0.000189164 0.00136765 0)
(0.000155787 0.00227652 0)
(3.43015e-05 -0.000526494 0)
(0.000371387 -0.00133857 0)
(0.000906507 -0.00190778 0)
(0.00154978 -0.00224976 0)
(0.00222849 -0.00239409 0)
(0.00289068 -0.00237525 0)
(0.00349383 -0.00222728 0)
(0.00400432 -0.00198057 0)
(0.00439566 -0.00166038 0)
(0.00464683 -0.00128629 0)
(0.00474073 -0.000872318 0)
(0.00466262 -0.000427388 0)
(0.00439877 4.42209e-05 0)
(0.00393514 0.000542285 0)
(0.00325622 0.00107014 0)
(0.00234399 0.00163424 0)
(0.00117699 0.00224381 0)
(-0.000270508 0.00291046 0)
(-0.00202931 0.00364799 0)
(-0.00413591 0.00447209 0)
(-0.00663299 0.00540006 0)
(-0.0095699 0.00645057 0)
(-0.0130028 0.00764324 0)
(-0.0169945 0.00899817 0)
(-0.0216145 0.0105354 0)
(-0.026938 0.0122741 0)
(-0.0330447 0.0142315 0)
(-0.0400171 0.0164219 0)
(-0.0479382 0.0188551 0)
(-0.0568883 0.0215347 0)
(-0.0669407 0.0244559 0)
(-0.0781575 0.0276042 0)
(-0.0905837 0.0309523 0)
(-0.104241 0.0344592 0)
(-0.119124 0.0380677 0)
(-0.135188 0.0417041 0)
(-0.152354 0.045278 0)
(-0.170494 0.0486833 0)
(-0.189436 0.0518005 0)
(-0.208965 0.0545003 0)
(-0.228823 0.0566484 0)
(-0.248714 0.058111 0)
(-0.268321 0.0587605 0)
(-0.287306 0.0584816 0)
(-0.305327 0.0571761 0)
(-0.32205 0.0547676 0)
(-0.337156 0.0512037 0)
(-0.350349 0.0464584 0)
(-0.361365 0.0405328 0)
(-0.369972 0.0334549 0)
(-0.375973 0.0252809 0)
(-0.379201 0.0160953 0)
(-0.379525 0.00601366 0)
(-0.376837 -0.00481504 0)
(-0.371057 -0.01621 0)
(-0.362139 -0.0279462 0)
(-0.350065 -0.0397473 0)
(-0.334858 -0.0512875 0)
(-0.316596 -0.0621886 0)
(-0.295423 -0.0720248 0)
(-0.271576 -0.0803354 0)
(-0.245404 -0.0866489 0)
(-0.217387 -0.09052 0)
(-0.18815 -0.0915781 0)
(-0.158459 -0.0895846 0)
(-0.129194 -0.0844904 0)
(-0.101308 -0.0764813 0)
(-0.0757408 -0.0659982 0)
(-0.0533346 -0.0537236 0)
(-0.0347334 -0.0405336 0)
(-0.0203025 -0.0274302 0)
(-0.010076 -0.0154772 0)
(-0.00373758 -0.00576854 0)
(-0.000634441 0.000547832 0)
(0.000125478 0.00221559 0)
(3.50404e-05 -0.000624714 0)
(0.00037398 -0.00156135 0)
(0.000905587 -0.00220242 0)
(0.00153578 -0.00257706 0)
(0.00218942 -0.0027235 0)
(0.00281366 -0.00268267 0)
(0.00336586 -0.00249362 0)
(0.00381241 -0.00219075 0)
(0.00412675 -0.00180241 0)
(0.00428745 -0.00135046 0)
(0.00427665 -0.000850417 0)
(0.00407843 -0.000311931 0)
(0.00367746 0.000260636 0)
(0.00305771 0.000867598 0)
(0.00220125 0.00151338 0)
(0.00108727 0.00220604 0)
(-0.000308929 0.00295681 0)
(-0.00201671 0.00377977 0)
(-0.0040709 0.00469149 0)
(-0.00651242 0.00571074 0)
(-0.00938872 0.00685813 0)
(-0.0127542 0.00815576 0)
(-0.0166703 0.00962669 0)
(-0.0212052 0.0112944 0)
(-0.0264335 0.0131818 0)
(-0.0324351 0.0153107 0)
(-0.0392938 0.0176999 0)
(-0.0470948 0.0203642 0)
(-0.0559221 0.0233123 0)
(-0.0658547 0.0265448 0)
(-0.0769616 0.0300516 0)
(-0.089297 0.0338101 0)
(-0.102894 0.037782 0)
(-0.117757 0.041912 0)
(-0.133859 0.0461258 0)
(-0.151131 0.0503298 0)
(-0.169461 0.0544115 0)
(-0.188692 0.0582419 0)
(-0.208618 0.0616786 0)
(-0.228991 0.0645713 0)
(-0.249526 0.0667673 0)
(-0.269908 0.0681191 0)
(-0.289804 0.0684905 0)
(-0.308876 0.0677636 0)
(-0.32679 0.0658432 0)
(-0.343232 0.062661 0)
(-0.357912 0.0581772 0)
(-0.370572 0.0523813 0)
(-0.380988 0.045291 0)
(-0.388972 0.0369517 0)
(-0.394368 0.0274354 0)
(-0.397046 0.0168416 0)
(-0.396904 0.00529904 0)
(-0.393855 -0.00703317 0)
(-0.387828 -0.0199622 0)
(-0.378769 -0.0332508 0)
(-0.366645 -0.0466083 0)
(-0.351446 -0.0596888 0)
(-0.333204 -0.0720866 0)
(-0.312011 -0.0833377 0)
(-0.288041 -0.0929317 0)
(-0.261579 -0.100335 0)
(-0.233049 -0.105032 0)
(-0.203029 -0.106574 0)
(-0.172265 -0.104653 0)
(-0.141646 -0.0991648 0)
(-0.112166 -0.0902737 0)
(-0.0848399 -0.0784418 0)
(-0.0606061 -0.0644229 0)
(-0.0402152 -0.0492128 0)
(-0.0241333 -0.0339691 0)
(-0.0124785 -0.0199304 0)
(-0.00499536 -0.00836435 0)
(-0.00108566 -0.000579603 0)
(9.72273e-05 0.00204011 0)
(3.51784e-05 -0.000722774 0)
(0.000369371 -0.00178147 0)
(0.000886632 -0.00248983 0)
(0.00149013 -0.00289113 0)
(0.00210319 -0.00303306 0)
(0.00267267 -0.00296348 0)
(0.00315621 -0.00272665 0)
(0.00352064 -0.00236101 0)
(0.00373962 -0.00189789 0)
(0.00379165 -0.00136122 0)
(0.0036583 -0.000767783 0)
(0.00332265 -0.000127768 0)
(0.00276786 0.000554612 0)
(0.00197595 0.00128042 0)
(0.000926623 0.00205539 0)
(-0.00040376 0.00288936 0)
(-0.00204309 0.00379583 0)
(-0.00402433 0.00479148 0)
(-0.00638629 0.00589588 0)
(-0.00917416 0.00713103 0)
(-0.01244 0.008521 0)
(-0.0162429 0.0100914 0)
(-0.020649 0.0118688 0)
(-0.0257315 0.0138798 0)
(-0.031569 0.0161504 0)
(-0.0382453 0.0187043 0)
(-0.0458466 0.0215614 0)
(-0.0544594 0.0247361 0)
(-0.0641667 0.0282351 0)
(-0.0750435 0.0320544 0)
(-0.087152 0.036177 0)
(-0.100535 0.04057 0)
(-0.115212 0.045182 0)
(-0.131166 0.0499412 0)
(-0.148346 0.0547537 0)
(-0.166656 0.0595042 0)
(-0.185954 0.0640571 0)
(-0.20605 0.0682598 0)
(-0.226708 0.0719479 0)
(-0.247653 0.0749516 0)
(-0.26858 0.0771035 0)
(-0.289161 0.0782463 0)
(-0.309061 0.0782405 0)
(-0.327949 0.0769709 0)
(-0.345514 0.0743509 0)
(-0.36147 0.0703252 0)
(-0.375563 0.0648704 0)
(-0.38758 0.0579939 0)
(-0.39734 0.0497311 0)
(-0.4047 0.0401438 0)
(-0.409543 0.0293177 0)
(-0.411772 0.0173633 0)
(-0.411307 0.00441856 0)
(-0.408076 -0.00935267 0)
(-0.402013 -0.0237521 0)
(-0.393051 -0.0385371 0)
(-0.381134 -0.053409 0)
(-0.366216 -0.0680084 0)
(-0.348281 -0.0819079 0)
(-0.327359 -0.0946099 0)
(-0.303556 -0.105557 0)
(-0.277087 -0.114153 0)
(-0.248304 -0.119805 0)
(-0.217733 -0.121981 0)
(-0.186085 -0.120287 0)
(-0.154251 -0.11455 0)
(-0.123259 -0.104891 0)
(-0.0942032 -0.0917809 0)
(-0.0681265 -0.0760344 0)
(-0.0458995 -0.0587652 0)
(-0.0281055 -0.0412926 0)
(-0.0149619 -0.0250396 0)
(-0.0062859 -0.0114583 0)
(-0.00154023 -0.00202331 0)
(7.12687e-05 0.00174966 0)
(3.48032e-05 -0.00081888 0)
(0.00035808 -0.00199462 0)
(0.000850578 -0.00276396 0)
(0.00141414 -0.00318479 0)
(0.00197154 -0.0033148 0)
(0.00246992 -0.00320918 0)
(0.00286771 -0.00291759 0)
(0.00313252 -0.00248244 0)
(0.00323864 -0.0019379 0)
(0.00316472 -0.00130978 0)
(0.00289201 -0.000615889 0)
(0.00240271 0.00013332 0)
(0.00167862 0.000934017 0)
(0.000699864 0.00178825 0)
(-0.000556176 0.00270327 0)
(-0.0021159 0.00369092 0)
(-0.00401035 0.00476713 0)
(-0.00627603 0.00595141 0)
(-0.00895556 0.00726644 0)
(-0.0120982 0.00873761 0)
(-0.0157604 0.0103925 0)
(-0.0200054 0.0122603 0)
(-0.0249039 0.014371 0)
(-0.0305327 0.0167544 0)
(-0.0369741 0.0194388 0)
(-0.0443142 0.0224496 0)
(-0.0526404 0.0258071 0)
(-0.0620385 0.0295243 0)
(-0.0725882 0.0336044 0)
(-0.0843588 0.0380374 0)
(-0.0974026 0.0427976 0)
(-0.111749 0.0478396 0)
(-0.127398 0.0530969 0)
(-0.144314 0.0584786 0)
(-0.162417 0.06387 0)
(-0.181584 0.0691324 0)
(-0.201641 0.0741064 0)
(-0.222371 0.0786165 0)
(-0.24351 0.0824778 0)
(-0.264764 0.0855043 0)
(-0.285814 0.0875175 0)
(-0.306328 0.0883555 0)
(-0.325979 0.087881 0)
(-0.344458 0.0859868 0)
(-0.361478 0.0826 0)
(-0.376792 0.0776824 0)
(-0.390189 0.0712295 0)
(-0.401499 0.0632677 0)
(-0.410589 0.0538499 0)
(-0.417354 0.0430522 0)
(-0.421714 0.0309709 0)
(-0.423599 0.0177233 0)
(-0.422948 0.0034519 0)
(-0.419699 -0.0116797 0)
(-0.413783 -0.0274741 0)
(-0.405122 -0.0436896 0)
(-0.393632 -0.0600257 0)
(-0.379231 -0.0761159 0)
(-0.361851 -0.0915169 0)
(-0.34146 -0.105703 0)
(-0.318092 -0.118073 0)
(-0.291881 -0.127969 0)
(-0.263104 -0.134718 0)
(-0.232217 -0.137695 0)
(-0.199885 -0.136406 0)
(-0.166986 -0.130588 0)
(-0.134579 -0.120305 0)
(-0.103833 -0.106012 0)
(-0.0759031 -0.0885739 0)
(-0.0517944 -0.0692187 0)
(-0.0322249 -0.0494319 0)
(-0.0175291 -0.0308325 0)
(-0.00761081 -0.0150699 0)
(-0.00199889 -0.00379187 0)
(4.74058e-05 0.00134425 0)
(3.39817e-05 -0.000911371 0)
(0.000340547 -0.00219667 0)
(0.000798257 -0.00301901 0)
(0.00130899 -0.00345107 0)
(0.00179603 -0.00356096 0)
(0.00220744 -0.00341156 0)
(0.00250292 -0.00305793 0)
(0.00265132 -0.00254646 0)
(0.00262786 -0.00191397 0)
(0.00241164 -0.00118788 0)
(0.00198375 -0.000386747 0)
(0.00132573 0.000478962 0)
(0.0004181 0.00140607 0)
(-0.000760783 0.00239785 0)
(-0.0022358 0.00346331 0)
(-0.00403604 0.00461649 0)
(-0.00619559 0.00587593 0)
(-0.00875435 0.00726412 0)
(-0.0117586 0.00880702 0)
(-0.0152614 0.0105335 0)
(-0.0193231 0.0124746 0)
(-0.0240109 0.0146632 0)
(-0.029399 0.0171325 0)
(-0.0355675 0.019915 0)
(-0.0426008 0.0230412 0)
(-0.0505864 0.0265375 0)
(-0.0596112 0.0304236 0)
(-0.0697584 0.0347101 0)
(-0.0811025 0.0393953 0)
(-0.0937044 0.0444615 0)
(-0.107604 0.0498721 0)
(-0.122816 0.0555676 0)
(-0.139318 0.0614639 0)
(-0.157052 0.0674497 0)
(-0.175912 0.0733874 0)
(-0.195744 0.0791147 0)
(-0.216349 0.0844485 0)
(-0.237482 0.0891918 0)
(-0.258859 0.0931418 0)
(-0.280172 0.0960999 0)
(-0.301097 0.0978815 0)
(-0.321308 0.0983254 0)
(-0.340497 0.0973017 0)
(-0.358378 0.0947167 0)
(-0.374702 0.0905148 0)
(-0.389262 0.0846779 0)
(-0.401893 0.0772219 0)
(-0.412468 0.0681921 0)
(-0.420895 0.0576574 0)
(-0.427109 0.0457057 0)
(-0.431059 0.0324402 0)
(-0.432699 0.0179801 0)
(-0.43198 0.0024692 0)
(-0.428847 -0.0139347 0)
(-0.423227 -0.0310402 0)
(-0.41503 -0.0486123 0)
(-0.404146 -0.0663545 0)
(-0.390458 -0.0838995 0)
(-0.373848 -0.100795 0)
(-0.354221 -0.116492 0)
(-0.331535 -0.130351 0)
(-0.305842 -0.141654 0)
(-0.277329 -0.149646 0)
(-0.246373 -0.153602 0)
(-0.213576 -0.152915 0)
(-0.179789 -0.147214 0)
(-0.146089 -0.136476 0)
(-0.113713 -0.121124 0)
(-0.0839346 -0.102054 0)
(-0.0579064 -0.0806002 0)
(-0.0365005 -0.0584193 0)
(-0.0201878 -0.0373381 0)
(-0.00897553 -0.0192194 0)
(-0.00246469 -0.00589486 0)
(2.52643e-05 0.000823243 0)
(3.27634e-05 -0.000998703 0)
(0.000317127 -0.0023837 0)
(0.000730372 -0.00324932 0)
(0.00117575 -0.00368316 0)
(0.00157807 -0.00376402 0)
(0.00188704 -0.00356261 0)
(0.00206419 -0.0031395 0)
(0.00208004 -0.00254489 0)
(0.00191105 -0.00181803 0)
(0.00153705 -0.000987698 0)
(0.000939223 -7.29054e-05 0)
(9.85528e-05 0.000916182 0)
(-0.00100556 0.00197731 0)
(-0.00239642 0.00311524 0)
(-0.00410106 0.00434093 0)
(-0.00615115 0.00567086 0)
(-0.00858369 0.00712632 0)
(-0.0114418 0.00873294 0)
(-0.0147751 0.01052 0)
(-0.0186403 0.0125199 0)
(-0.023101 0.0147673 0)
(-0.028228 0.0172984 0)
(-0.0340981 0.0201494 0)
(-0.0407937 0.0233554 0)
(-0.0484006 0.0269484 0)
(-0.0570059 0.0309549 0)
(-0.0666945 0.0353931 0)
(-0.0775452 0.04027 0)
(-0.0896253 0.0455774 0)
(-0.102985 0.0512883 0)
(-0.11765 0.057353 0)
(-0.133616 0.0636963 0)
(-0.150841 0.0702144 0)
(-0.16924 0.0767743 0)
(-0.188681 0.0832147 0)
(-0.208985 0.0893493 0)
(-0.229925 0.0949728 0)
(-0.251236 0.0998687 0)
(-0.272619 0.10382 0)
(-0.29376 0.106619 0)
(-0.314338 0.108082 0)
(-0.334043 0.108052 0)
(-0.352588 0.106412 0)
(-0.369723 0.103086 0)
(-0.385238 0.0980395 0)
(-0.398969 0.0912755 0)
(-0.410792 0.0828305 0)
(-0.420624 0.0727676 0)
(-0.42841 0.0611697 0)
(-0.434117 0.0481333 0)
(-0.43772 0.0337652 0)
(-0.439194 0.0181828 0)
(-0.438498 0.00152668 0)
(-0.435584 -0.0160555 0)
(-0.430371 -0.0343822 0)
(-0.422761 -0.0532295 0)
(-0.412624 -0.0723114 0)
(-0.399807 -0.0912657 0)
(-0.384147 -0.109637 0)
(-0.365489 -0.126862 0)
(-0.343717 -0.142267 0)
(-0.318791 -0.155079 0)
(-0.290807 -0.164462 0)
(-0.260044 -0.169583 0)
(-0.227027 -0.16971 0)
(-0.19256 -0.164344 0)
(-0.157721 -0.153353 0)
(-0.123807 -0.137095 0)
(-0.092209 -0.116478 0)
(-0.0642384 -0.0929325 0)
(-0.0409415 -0.0682856 0)
(-0.0229479 -0.0445859 0)
(-0.0103873 -0.0239279 0)
(-0.00294222 -0.008344 0)
(4.32861e-06 0.000184985 0)
(3.11829e-05 -0.00107941 0)
(0.000288096 -0.00255192 0)
(0.00064749 -0.00344942 0)
(0.00101528 -0.00387443 0)
(0.00131887 -0.0039166 0)
(0.00151032 -0.0036546 0)
(0.00155363 -0.00315439 0)
(0.00142139 -0.00246987 0)
(0.00109169 -0.00164244 0)