/*--------------------------------*- C++ -*----------------------------------*\
  =========                 |
  \\      /  F ield         | OpenFOAM: The Open Source CFD Toolbox
   \\    /   O peration     | Website:  https://openfoam.org
    \\  /    A nd           | Version:  12
     \\/     M anipulation  |
\*---------------------------------------------------------------------------*/
FoamFile
{
    format      ascii;
    class       volScalarField;
    location    "3.5";
    object      epsilon;
}
// * * * * * * * * * * * * * * * * * * * * * * * * * * * * * * * * * * * * * //

dimensions      [0 2 -3 0 0 0 0];

internalField   nonuniform List<scalar> 
5625
(
8.53221e-09
4.25967e-08
9.29571e-08
1.5293e-07
2.19347e-07
2.90199e-07
3.63978e-07
4.39464e-07
5.15637e-07
5.91636e-07
6.66737e-07
7.40345e-07
8.1198e-07
8.8128e-07
9.47986e-07
1.01194e-06
1.07307e-06
1.13138e-06
1.18693e-06
1.23984e-06
1.29022e-06
1.33823e-06
1.384e-06
1.42764e-06
1.46925e-06
1.50888e-06
1.54652e-06
1.58215e-06
1.61568e-06
1.64696e-06
1.67584e-06
1.70209e-06
1.72547e-06
1.7457e-06
1.7625e-06
1.77557e-06
1.78457e-06
1.78916e-06
1.78931e-06
1.78463e-06
1.77488e-06
1.75988e-06
1.7395e-06
1.71366e-06
1.68238e-06
1.64571e-06
1.60379e-06
1.55685e-06
1.50517e-06
1.4491e-06
1.38906e-06
1.32554e-06
1.25904e-06
1.19014e-06
1.1194e-06
1.04742e-06
9.74774e-07
9.02029e-07
8.29718e-07
7.58336e-07
6.88328e-07
6.20085e-07
5.53939e-07
4.90167e-07
4.28989e-07
3.70581e-07
3.15089e-07
2.6262e-07
2.13292e-07
1.67252e-07
1.24723e-07
8.60681e-08
5.1947e-08
2.37095e-08
4.74446e-09
4.26485e-08
3.47472e-08
5.21288e-08
7.77826e-08
1.07756e-07
1.40391e-07
1.74713e-07
2.10032e-07
2.45809e-07
2.81602e-07
3.1705e-07
3.51856e-07
3.85782e-07
4.18648e-07
4.50323e-07
4.80725e-07
5.09814e-07
5.37585e-07
5.64062e-07
5.89288e-07
6.1332e-07
6.3622e-07
6.58049e-07
6.78856e-07
6.9868e-07
7.17542e-07
7.3544e-07
7.52355e-07
7.68244e-07
7.83042e-07
7.96666e-07
8.09015e-07
8.19974e-07
8.29414e-07
8.37201e-07
8.43193e-07
8.47246e-07
8.49193e-07
8.49029e-07
8.46574e-07
8.4172e-07
8.34386e-07
8.24518e-07
8.12089e-07
7.97103e-07
7.79598e-07
7.59643e-07
7.37343e-07
7.12835e-07
6.86286e-07
6.57895e-07
6.27882e-07
5.96491e-07
5.6398e-07
5.30616e-07
4.96672e-07
4.62416e-07
4.2811e-07
3.94001e-07
3.6032e-07
3.27274e-07
2.95046e-07
2.63796e-07
2.33656e-07
2.04735e-07
1.77124e-07
1.50901e-07
1.26134e-07
1.02901e-07
8.1312e-08
6.15442e-08
4.39275e-08
2.9183e-08
1.93315e-08
2.36944e-08
9.35325e-08
5.24937e-08
5.37197e-08
6.63758e-08
8.42997e-08
1.05201e-07
1.27921e-07
1.51748e-07
1.76181e-07
2.0084e-07
2.25424e-07
2.49693e-07
2.73456e-07
2.96566e-07
3.18915e-07
3.40431e-07
3.61071e-07
3.8082e-07
3.99684e-07
4.17683e-07
4.34847e-07
4.51211e-07
4.66808e-07
4.81667e-07
4.95808e-07
5.0924e-07
5.21958e-07
5.33943e-07
5.45162e-07
5.55567e-07
5.65099e-07
5.73686e-07
5.81247e-07
5.87695e-07
5.92939e-07
5.96884e-07
5.99422e-07
6.00464e-07
5.99999e-07
5.97909e-07
5.94131e-07
5.88618e-07
5.81339e-07
5.72286e-07
5.61468e-07
5.4892e-07
5.34695e-07
5.1887e-07
5.01544e-07
4.82835e-07
4.6288e-07
4.41831e-07
4.19854e-07
3.97124e-07
3.73821e-07
3.50129e-07
3.2623e-07
3.023e-07
2.78506e-07
2.55005e-07
2.31941e-07
2.09441e-07
1.87619e-07
1.66573e-07
1.46389e-07
1.27144e-07
1.08913e-07
9.17772e-08
7.58397e-08
6.12582e-08
4.83006e-08
3.74835e-08
2.99625e-08
2.90573e-08
5.17733e-08
1.55194e-07
7.91096e-08
6.72008e-08
7.09552e-08
8.15534e-08
9.59206e-08
1.12589e-07
1.30708e-07
1.49716e-07
1.69208e-07
1.88876e-07
2.08477e-07
2.2782e-07
2.46756e-07
2.65173e-07
2.82991e-07
3.00157e-07
3.16642e-07
3.32436e-07
3.47541e-07
3.6197e-07
3.75742e-07
3.88873e-07
4.01379e-07
4.13269e-07
4.24542e-07
4.3519e-07
4.45192e-07
4.54516e-07
4.63123e-07
4.70959e-07
4.77968e-07
4.84084e-07
4.89237e-07
4.93355e-07
4.96367e-07
4.98168e-07
4.98732e-07
4.98028e-07
4.95972e-07
4.92522e-07
4.87647e-07
4.81331e-07
4.73573e-07
4.64388e-07
4.53808e-07
4.41884e-07
4.28682e-07
4.14284e-07
3.98789e-07
3.82308e-07
3.64965e-07
3.46892e-07
3.28231e-07
3.09126e-07
2.89722e-07
2.70165e-07
2.50595e-07
2.31147e-07
2.11947e-07
1.93111e-07
1.74748e-07
1.56953e-07
1.39816e-07
1.23418e-07
1.07842e-07
9.31754e-08
7.95255e-08
6.70398e-08
5.59456e-08
4.66296e-08
3.98253e-08
3.71661e-08
4.34612e-08
8.53506e-08
2.25307e-07
1.11003e-07
8.66273e-08
8.29073e-08
8.78785e-08
9.75901e-08
1.10217e-07
1.24738e-07
1.40499e-07
1.57041e-07
1.74018e-07
1.91163e-07
2.08264e-07
2.25153e-07
2.41703e-07
2.57817e-07
2.73426e-07
2.88484e-07
3.02966e-07
3.1686e-07
3.30163e-07
3.4288e-07
3.55016e-07
3.66577e-07
3.77563e-07
3.87966e-07
3.97775e-07
4.06965e-07
4.15506e-07
4.2336e-07
4.30478e-07
4.3681e-07
4.42297e-07
4.4688e-07
4.50497e-07
4.53087e-07
4.54542e-07
4.54882e-07
4.54061e-07
4.5201e-07
4.48694e-07
4.4409e-07
4.38188e-07
4.30989e-07
4.22511e-07
4.12784e-07
4.01855e-07
3.89786e-07
3.76652e-07
3.62542e-07
3.47558e-07
3.31811e-07
3.15423e-07
2.9852e-07
2.81234e-07
2.63696e-07
2.46038e-07
2.28388e-07
2.10868e-07
1.93594e-07
1.76674e-07
1.60209e-07
1.44292e-07
1.29013e-07
1.14459e-07
1.00724e-07
8.79148e-08
7.61712e-08
6.56876e-08
5.67636e-08
4.99058e-08
4.60731e-08
4.73988e-08
6.03899e-08
1.22765e-07
3.02774e-07
1.46919e-07
1.09949e-07
9.93295e-08
9.94813e-08
1.05444e-07
1.15015e-07
1.26988e-07
1.40596e-07
1.553e-07
1.70712e-07
1.86527e-07
2.025e-07
2.18438e-07
2.34187e-07
2.4963e-07
2.64678e-07
2.79268e-07
2.93357e-07
3.06918e-07
3.19937e-07
3.32408e-07
3.44325e-07
3.55686e-07
3.66483e-07
3.76707e-07
3.86339e-07
3.95356e-07
4.03726e-07
4.11411e-07
4.18367e-07
4.24544e-07
4.29888e-07
4.34345e-07
4.37858e-07
4.4037e-07
4.41772e-07
4.42099e-07
4.4131e-07
4.39331e-07
4.36128e-07
4.31679e-07
4.2597e-07
4.19004e-07
4.10794e-07
4.01369e-07
3.90772e-07
3.79061e-07
3.66309e-07
3.52603e-07
3.38042e-07
3.22737e-07
3.06807e-07
2.9038e-07
2.73587e-07
2.56562e-07
2.39436e-07
2.22338e-07
2.05394e-07
1.8872e-07
1.72428e-07
1.56622e-07
1.414e-07
1.26858e-07
1.13094e-07
1.00217e-07
8.83562e-08
7.76812e-08
6.84333e-08
6.09858e-08
5.59649e-08
5.45506e-08
5.94206e-08
7.89745e-08
1.6301e-07
3.87009e-07
1.86302e-07
1.36269e-07
1.18926e-07
1.14681e-07
1.17426e-07
1.24525e-07
1.34558e-07
1.46647e-07
1.60189e-07
1.74728e-07
1.89908e-07
2.05446e-07
2.21112e-07
2.36725e-07
2.52141e-07
2.67247e-07
2.81963e-07
2.96229e-07
3.10006e-07
3.23266e-07
3.35993e-07
3.48175e-07
3.59804e-07
3.70869e-07
3.81354e-07
3.91241e-07
4.00505e-07
4.09114e-07
4.17031e-07
4.24212e-07
4.30609e-07
4.36171e-07
4.40843e-07
4.44568e-07
4.47292e-07
4.48905e-07
4.49411e-07
4.4881e-07
4.47005e-07
4.43959e-07
4.39643e-07
4.34039e-07
4.27143e-07
4.18962e-07
4.09519e-07
3.98855e-07
3.87025e-07
3.741e-07
3.60169e-07
3.45335e-07
3.29714e-07
3.13434e-07
2.9663e-07
2.79445e-07
2.62023e-07
2.44509e-07
2.27043e-07
2.09762e-07
1.92795e-07
1.76264e-07
1.60282e-07
1.4496e-07
1.30405e-07
1.16729e-07
1.04056e-07
9.25394e-08
8.23795e-08
7.38633e-08
6.74331e-08
6.38333e-08
6.44792e-08
7.2635e-08
9.87344e-08
2.05373e-07
4.77688e-07
2.28871e-07
1.65138e-07
1.41037e-07
1.32603e-07
1.32451e-07
1.37466e-07
1.46e-07
1.5704e-07
1.69889e-07
1.84025e-07
1.99043e-07
2.14615e-07
2.30475e-07
2.46408e-07
2.62239e-07
2.77835e-07
2.93092e-07
3.07934e-07
3.22309e-07
3.36179e-07
3.4952e-07
3.62314e-07
3.74548e-07
3.86208e-07
3.97278e-07
4.0774e-07
4.17566e-07
4.26727e-07
4.35186e-07
4.42898e-07
4.49818e-07
4.55891e-07
4.61061e-07
4.65271e-07
4.68458e-07
4.7053e-07
4.71404e-07
4.71158e-07
4.69659e-07
4.6686e-07
4.6272e-07
4.57209e-07
4.50314e-07
4.42032e-07
4.3238e-07
4.21391e-07
4.09119e-07
3.95636e-07
3.81035e-07
3.65424e-07
3.48932e-07
3.317e-07
3.1388e-07
2.95633e-07
2.77123e-07
2.58514e-07
2.3997e-07
2.21646e-07
2.03691e-07
1.86245e-07
1.6944e-07
1.53399e-07
1.38248e-07
1.24113e-07
1.11139e-07
9.95009e-08
8.9429e-08
8.12545e-08
7.54885e-08
7.29953e-08
7.54358e-08
8.66989e-08
1.19354e-07
2.49313e-07
5.74625e-07
2.74472e-07
1.96308e-07
1.65295e-07
1.5274e-07
1.49901e-07
1.531e-07
1.60448e-07
1.70781e-07
1.83304e-07
1.97422e-07
2.12668e-07
2.28664e-07
2.45099e-07
2.61721e-07
2.78324e-07
2.94748e-07
3.10869e-07
3.26595e-07
3.41861e-07
3.56621e-07
3.70844e-07
3.84509e-07
3.97602e-07
4.10107e-07
4.22009e-07
4.33289e-07
4.43923e-07
4.53882e-07
4.63128e-07
4.71618e-07
4.79303e-07
4.86128e-07
4.92032e-07
4.9695e-07
5.00813e-07
5.03547e-07
5.04993e-07
5.0524e-07
5.04187e-07
5.01738e-07
4.97838e-07
4.92444e-07
4.85525e-07
4.7707e-07
4.67084e-07
4.55595e-07
4.42652e-07
4.2833e-07
4.12725e-07
3.95958e-07
3.78169e-07
3.59519e-07
3.4018e-07
3.20339e-07
3.00185e-07
2.79912e-07
2.5971e-07
2.39763e-07
2.20246e-07
2.01323e-07
1.83149e-07
1.65871e-07
1.49631e-07
1.34576e-07
1.20871e-07
1.08714e-07
9.83656e-08
9.02009e-08
8.48e-08
8.31494e-08
8.71673e-08
1.01393e-07
1.40608e-07
2.94415e-07
6.77703e-07
3.2301e-07
2.29634e-07
1.91472e-07
1.74792e-07
1.69391e-07
1.70971e-07
1.77377e-07
1.87281e-07
1.99775e-07
2.14183e-07
2.2997e-07
2.46698e-07
2.64011e-07
2.81614e-07
2.99268e-07
3.16787e-07
3.34025e-07
3.50874e-07
3.67259e-07
3.83126e-07
3.98442e-07
4.13183e-07
4.27335e-07
4.40885e-07
4.5382e-07
4.66123e-07
4.77771e-07
4.88737e-07
4.98983e-07
5.08467e-07
5.17136e-07
5.24931e-07
5.31784e-07
5.37622e-07
5.42365e-07
5.45929e-07
5.48172e-07
5.49028e-07
5.4855e-07
5.46557e-07
5.42972e-07
5.37734e-07
5.30797e-07
5.22133e-07
5.11738e-07
4.99631e-07
4.85857e-07
4.70492e-07
4.53638e-07
4.35425e-07
4.16011e-07
3.95575e-07
3.74317e-07
3.52451e-07
3.30198e-07
3.07784e-07
2.85435e-07
2.63368e-07
2.41792e-07
2.20901e-07
2.0088e-07
1.819e-07
1.6413e-07
1.47739e-07
1.32913e-07
1.19876e-07
1.08919e-07
1.00462e-07
9.51564e-08
9.4111e-08
9.95135e-08
1.16572e-07
1.62335e-07
3.40367e-07
7.86837e-07
3.74421e-07
2.65018e-07
2.19426e-07
1.98563e-07
1.90671e-07
1.90782e-07
1.96445e-07
2.06153e-07
2.18875e-07
2.33838e-07
2.50433e-07
2.68161e-07
2.86609e-07
3.05439e-07
3.24379e-07
3.43212e-07
3.61773e-07
3.7994e-07
3.97626e-07
4.14776e-07
4.31352e-07
4.47333e-07
4.62707e-07
4.77464e-07
4.91596e-07
5.05088e-07
5.17923e-07
5.30072e-07
5.415e-07
5.52161e-07
5.62e-07
5.70951e-07
5.78937e-07
5.85875e-07
5.9167e-07
5.96222e-07
5.99426e-07
6.01043e-07
6.01229e-07
5.99791e-07
5.96599e-07
5.91569e-07
5.84639e-07
5.75764e-07
5.64925e-07
5.52134e-07
5.37429e-07
5.20886e-07
5.02611e-07
4.82746e-07
4.61462e-07
4.38962e-07
4.15471e-07
3.91233e-07
3.66506e-07
3.41553e-07
3.16637e-07
2.92018e-07
2.67941e-07
2.4464e-07
2.22333e-07
2.01225e-07
1.81513e-07
1.63392e-07
1.47077e-07
1.32816e-07
1.20935e-07
1.11896e-07
1.06431e-07
1.05768e-07
1.12373e-07
1.32139e-07
1.84422e-07
3.86947e-07
9.01935e-07
4.28645e-07
3.02386e-07
2.49053e-07
2.23919e-07
2.13562e-07
2.12329e-07
2.17418e-07
2.27134e-07
2.40307e-07
2.56062e-07
2.73704e-07
2.92664e-07
3.12472e-07
3.32743e-07
3.53166e-07
3.73497e-07
3.93551e-07
4.13192e-07
4.32328e-07
4.50898e-07
4.68867e-07
4.86218e-07
5.02942e-07
5.19037e-07
5.34497e-07
5.49315e-07
5.63475e-07
5.76951e-07
5.89707e-07
6.01696e-07
6.12855e-07
6.23113e-07
6.32382e-07
6.40566e-07
6.47555e-07
6.53233e-07
6.57481e-07
6.60059e-07
6.60944e-07
6.60159e-07
6.57437e-07
6.52677e-07
6.45797e-07
6.36735e-07
6.25459e-07
6.11967e-07
5.96291e-07
5.78503e-07
5.58713e-07
5.37068e-07
5.13755e-07
4.88995e-07
4.6304e-07
4.36165e-07
4.08664e-07
3.80841e-07
3.53002e-07
3.25451e-07
2.98478e-07
2.72361e-07
2.47361e-07
2.23719e-07
2.01669e-07
1.81439e-07
1.63273e-07
1.47451e-07
1.34334e-07
1.24431e-07
1.18555e-07
1.18056e-07
1.25687e-07
1.48037e-07
2.068e-07
4.34017e-07
1.02288e-06
4.85619e-07
3.41672e-07
2.80273e-07
2.50755e-07
2.37943e-07
2.35466e-07
2.40126e-07
2.50031e-07
2.63859e-07
2.80618e-07
2.9952e-07
3.1992e-07
3.41285e-07
3.6318e-07
3.85255e-07
4.07237e-07
4.28922e-07
4.50163e-07
4.70863e-07
4.9096e-07
5.10425e-07
5.29243e-07
5.47416e-07
5.64945e-07
5.81834e-07
5.9808e-07
6.13671e-07
6.28582e-07
6.42776e-07
6.56204e-07
6.68796e-07
6.80472e-07
6.91133e-07
7.00668e-07
7.08953e-07
7.15854e-07
7.21232e-07
7.24886e-07
7.26543e-07
7.26474e-07
7.24296e-07
7.19877e-07
7.13111e-07
7.0392e-07
6.92254e-07
6.78097e-07
6.61473e-07
6.42445e-07
6.21121e-07
5.97653e-07
5.72237e-07
5.4511e-07
5.16546e-07
4.86851e-07
4.56352e-07
4.25397e-07
3.94338e-07
3.63525e-07
3.33302e-07
3.03996e-07
2.75916e-07
2.49351e-07
2.24577e-07
2.01862e-07
1.81484e-07
1.63761e-07
1.49093e-07
1.38041e-07
1.31501e-07
1.3095e-07
1.39429e-07
1.64239e-07
2.29437e-07
4.81517e-07
1.14953e-06
5.45262e-07
3.82808e-07
3.1301e-07
2.78988e-07
2.6372e-07
2.60076e-07
2.64438e-07
2.74697e-07
2.89364e-07
3.0732e-07
3.27675e-07
3.49699e-07
3.72793e-07
3.96469e-07
4.20336e-07
4.44094e-07
4.6752e-07
4.90457e-07
5.12805e-07
5.34507e-07
5.55537e-07
5.7589e-07
5.95576e-07
6.14605e-07
6.32989e-07
6.5073e-07
6.67819e-07
6.84233e-07
6.99936e-07
7.1487e-07
7.28963e-07
7.42122e-07
7.54239e-07
7.65188e-07
7.74828e-07
7.8301e-07
7.89572e-07
7.94337e-07
7.96933e-07
7.97552e-07
7.96003e-07
7.92005e-07
7.85438e-07
7.76206e-07
7.64243e-07
7.49516e-07
7.32032e-07
7.11845e-07
6.89055e-07
6.6381e-07
6.3631e-07
6.06801e-07
5.75574e-07
5.42961e-07
5.09323e-07
4.75046e-07
4.40531e-07
4.0618e-07
3.72393e-07
3.39553e-07
3.08028e-07
2.78162e-07
2.50282e-07
2.24703e-07
2.01748e-07
1.81777e-07
1.65236e-07
1.52739e-07
1.45277e-07
1.44451e-07
1.53601e-07
1.80746e-07
2.52337e-07
5.29454e-07
1.28167e-06
6.07473e-07
4.25715e-07
3.47191e-07
3.0854e-07
2.90808e-07
2.86065e-07
2.90246e-07
3.01008e-07
3.16681e-07
3.36009e-07
3.57988e-07
3.818e-07
4.06773e-07
4.32362e-07
4.58135e-07
4.83765e-07
5.09011e-07
5.33711e-07
5.57763e-07
5.81114e-07
6.03749e-07
6.25672e-07
6.46903e-07
6.67462e-07
6.87369e-07
7.06632e-07
7.25246e-07
7.43189e-07
7.60422e-07
7.76885e-07
7.92496e-07
8.07155e-07
8.20741e-07
8.33116e-07
8.44126e-07
8.53607e-07
8.61381e-07
8.67259e-07
8.70886e-07
8.72211e-07
8.71363e-07
8.67874e-07
8.61613e-07
8.52465e-07
8.40343e-07
8.25195e-07
8.07011e-07
7.85825e-07
7.61722e-07
7.3484e-07
7.05372e-07
6.73566e-07
6.39722e-07
6.04189e-07
5.67357e-07
5.29649e-07
4.91512e-07
4.53404e-07
4.15783e-07
3.791e-07
3.43785e-07
3.1025e-07
2.78882e-07
2.50056e-07
2.24149e-07
2.01571e-07
1.8282e-07
1.68574e-07
1.59919e-07
1.58589e-07
1.68226e-07
1.97582e-07
2.7553e-07
5.77895e-07
1.41903e-06
6.72125e-07
4.703e-07
3.82738e-07
3.39334e-07
3.19127e-07
3.13346e-07
3.17451e-07
3.28852e-07
3.45684e-07
3.6654e-07
3.90296e-07
4.16036e-07
4.43011e-07
4.70619e-07
4.98386e-07
5.25957e-07
5.53075e-07
5.79574e-07
6.05353e-07
6.30369e-07
6.54615e-07
6.78108e-07
7.00879e-07
7.2296e-07
7.44378e-07
7.65148e-07
7.85268e-07
8.04718e-07
8.23455e-07
8.41414e-07
8.58508e-07
8.74629e-07
8.89646e-07
9.03411e-07
9.15758e-07
9.26513e-07
9.35483e-07
9.42467e-07
9.4717e-07
9.49243e-07
9.49142e-07
9.46261e-07
9.40433e-07
9.31524e-07
9.19426e-07
9.04066e-07
8.85407e-07
8.6346e-07
8.38286e-07
8.10002e-07
7.78785e-07
7.44872e-07
7.08562e-07
6.70211e-07
6.30229e-07
5.8907e-07
5.47224e-07
5.05205e-07
4.63535e-07
4.22735e-07
3.83313e-07
3.45753e-07
3.1052e-07
2.78059e-07
2.48812e-07
2.23253e-07
2.0194e-07
1.85621e-07
1.75487e-07
1.73415e-07
1.8335e-07
2.14793e-07
2.99076e-07
6.26964e-07
1.56129e-06
7.39059e-07
5.16455e-07
4.19561e-07
3.71291e-07
3.48597e-07
3.41832e-07
3.45957e-07
3.58119e-07
3.76246e-07
3.98766e-07
4.24429e-07
4.52215e-07
4.81293e-07
5.11001e-07
5.40821e-07
5.70372e-07
5.99385e-07
6.27688e-07
6.55188e-07
6.81849e-07
7.07677e-07
7.32704e-07
7.56973e-07
7.80527e-07
8.03402e-07
8.25618e-07
8.47178e-07
8.6806e-07
8.88221e-07
9.07593e-07
9.26082e-07
9.43574e-07
9.59932e-07
9.74999e-07
9.88604e-07
1.00057e-06
1.01068e-06
1.01873e-06
1.0245e-06
1.02747e-06
1.02806e-06
1.02591e-06
1.02066e-06
1.01217e-06
1.00032e-06
9.85005e-07
9.6616e-07
9.43764e-07
9.17845e-07
8.88489e-07
8.55843e-07
8.20121e-07
7.81605e-07
7.40648e-07
6.97667e-07
6.53138e-07
6.07589e-07
5.61585e-07
5.15714e-07
4.70574e-07
4.26758e-07
3.84839e-07
3.45369e-07
3.08879e-07
2.75894e-07
2.46961e-07
2.22715e-07
2.03983e-07
1.92065e-07
1.88999e-07
1.99036e-07
2.32444e-07
3.23058e-07
6.76833e-07
1.70802e-06
8.08084e-07
5.64051e-07
4.5756e-07
4.04322e-07
3.79134e-07
3.71434e-07
3.75665e-07
3.88696e-07
4.08234e-07
4.32536e-07
4.60214e-07
4.90138e-07
5.21393e-07
5.53253e-07
5.85158e-07
6.167e-07
6.47598e-07
6.77681e-07
7.0686e-07
7.35113e-07
7.62461e-07
7.88948e-07
8.14632e-07
8.39568e-07
8.638e-07
8.87355e-07
9.10237e-07
9.32428e-07
9.53882e-07
9.74529e-07
9.94272e-07
1.01299e-06
1.03055e-06
1.04679e-06
1.06153e-06
1.0746e-06
1.08577e-06
1.09485e-06
1.10161e-06
1.10557e-06
1.10687e-06
1.10555e-06
1.10103e-06
1.09317e-06
1.08182e-06
1.06685e-06
1.04815e-06
1.02568e-06
9.99419e-07
9.69405e-07
9.35746e-07
8.98617e-07
8.5827e-07
8.15035e-07
7.69322e-07
7.21616e-07
6.72473e-07
6.22503e-07
5.7236e-07
5.22721e-07
4.74271e-07
4.27686e-07
3.83622e-07
3.42711e-07
3.05578e-07
2.72864e-07
2.45291e-07
2.23783e-07
2.09757e-07
2.05431e-07
2.15362e-07
2.50612e-07
3.47577e-07
7.27712e-07
1.85875e-06
8.78977e-07
6.12939e-07
4.96622e-07
4.38329e-07
4.10643e-07
4.02052e-07
4.06465e-07
4.20458e-07
4.41505e-07
4.67684e-07
4.97459e-07
5.29589e-07
5.63067e-07
5.97103e-07
6.31095e-07
6.64608e-07
6.97352e-07
7.29156e-07
7.59942e-07
7.897e-07
8.18466e-07
8.46301e-07
8.73278e-07
8.99462e-07
9.24907e-07
9.49646e-07
9.73688e-07
9.97015e-07
1.01958e-06
1.04132e-06
1.06213e-06
1.08189e-06
1.10047e-06
1.1177e-06
1.13343e-06
1.14746e-06
1.15959e-06
1.16961e-06
1.17731e-06
1.18231e-06
1.18436e-06
1.18395e-06
1.18032e-06
1.1733e-06
1.16271e-06
1.1484e-06
1.13023e-06
1.1081e-06
1.08195e-06
1.05176e-06
1.01759e-06
9.79553e-07
9.37855e-07
8.92786e-07
8.4473e-07
7.94165e-07
7.41656e-07
6.8785e-07
6.3346e-07
5.79243e-07
5.25982e-07
4.74468e-07
4.25475e-07
3.79761e-07
3.38067e-07
3.01148e-07
2.69836e-07
2.45165e-07
2.28683e-07
2.22814e-07
2.3242e-07
2.6939e-07
3.7275e-07
7.7984e-07
2.01291e-06
9.51477e-07
6.62948e-07
5.36616e-07
4.73204e-07
4.43021e-07
4.33581e-07
4.38239e-07
4.53269e-07
4.75902e-07
5.04027e-07
5.35958e-07
5.7033e-07
6.0605e-07
6.42257e-07
6.78307e-07
7.13741e-07
7.48261e-07
7.81696e-07
8.13981e-07
8.45121e-07
8.75169e-07
9.04203e-07
9.3231e-07
9.59568e-07
9.8604e-07
1.01177e-06
1.03676e-06
1.06101e-06
1.08447e-06
1.10707e-06
1.12871e-06
1.1493e-06
1.16868e-06
1.18671e-06
1.20324e-06
1.21808e-06
1.23103e-06
1.2419e-06
1.25047e-06
1.25651e-06
1.25947e-06
1.25993e-06
1.25735e-06
1.25138e-06
1.24182e-06
1.22849e-06
1.21123e-06
1.18988e-06
1.16433e-06
1.1345e-06
1.10037e-06
1.062e-06
1.01953e-06
9.73181e-07
9.23292e-07
8.7031e-07
8.14794e-07
7.57408e-07
6.98912e-07
6.40139e-07
5.81975e-07
5.2533e-07
4.71116e-07
4.20235e-07
3.7357e-07
3.32014e-07
2.96533e-07
2.6829e-07
2.48979e-07
2.41264e-07
2.50312e-07
2.88879e-07
3.98702e-07
8.33475e-07
2.16987e-06
1.02529e-06
7.13889e-07
5.77399e-07
5.08825e-07
4.76155e-07
4.659e-07
4.70854e-07
4.86977e-07
5.1125e-07
5.41364e-07
5.75479e-07
6.12105e-07
6.50053e-07
6.88397e-07
7.26447e-07
7.63721e-07
7.99912e-07
8.34858e-07
8.68502e-07
9.00869e-07
9.32028e-07
9.62076e-07
9.91114e-07
1.01924e-06
1.04651e-06
1.07299e-06
1.09869e-06
1.12361e-06
1.1477e-06
1.17091e-06
1.19315e-06
1.2143e-06
1.23426e-06
1.25288e-06
1.27001e-06
1.28548e-06
1.29912e-06
1.31073e-06
1.32013e-06
1.32712e-06
1.33116e-06
1.33248e-06
1.33108e-06
1.32634e-06
1.31805e-06
1.30602e-06
1.29003e-06
1.26989e-06
1.24543e-06
1.2165e-06
1.18301e-06
1.14494e-06
1.10234e-06
1.05535e-06
1.00425e-06
9.49423e-07
8.91394e-07
8.30823e-07
7.68497e-07
7.05315e-07
6.42257e-07
5.80364e-07
5.20699e-07
4.64324e-07
4.12294e-07
3.65669e-07
3.25572e-07
2.93328e-07
2.70789e-07
2.60907e-07
2.6915e-07
3.09186e-07
4.25567e-07
8.88882e-07
2.32893e-06
1.1001e-06
7.65548e-07
6.18812e-07
5.45059e-07
5.09917e-07
4.98879e-07
5.04165e-07
5.21417e-07
5.47357e-07
5.79477e-07
6.15774e-07
6.54633e-07
6.94766e-07
7.3518e-07
7.75141e-07
8.14143e-07
8.51876e-07
8.88179e-07
9.23014e-07
9.5642e-07
9.88488e-07
1.01933e-06
1.04907e-06
1.07781e-06
1.10564e-06
1.13261e-06
1.15875e-06
1.18407e-06
1.20852e-06
1.23206e-06
1.25462e-06
1.2761e-06
1.29639e-06
1.31537e-06
1.33291e-06
1.34886e-06
1.36305e-06
1.37531e-06
1.38547e-06
1.39334e-06
1.39856e-06
1.40079e-06
1.40064e-06
1.39729e-06
1.39049e-06
1.38001e-06
1.36563e-06
1.34709e-06
1.32417e-06
1.29666e-06
1.2644e-06
1.22727e-06
1.18522e-06
1.13831e-06
1.0867e-06
1.03071e-06
9.70796e-07
9.07579e-07
8.41849e-07
7.74545e-07
7.06737e-07
6.39588e-07
5.74322e-07
5.12187e-07
4.54431e-07
4.02313e-07
3.5715e-07
3.20457e-07
2.94269e-07
2.81876e-07
2.89047e-07
3.30421e-07
4.53474e-07
9.46327e-07
2.4893e-06
1.17554e-06
8.17695e-07
6.60682e-07
5.8176e-07
5.4417e-07
5.32373e-07
5.38014e-07
5.56406e-07
5.84014e-07
6.18125e-07
6.56573e-07
6.97612e-07
7.39857e-07
7.82245e-07
8.23998e-07
8.6459e-07
9.03702e-07
9.41185e-07
9.77012e-07
1.01124e-06
1.04399e-06
1.07539e-06
1.10558e-06
1.13468e-06
1.16278e-06
1.18996e-06
1.21626e-06
1.24168e-06
1.26622e-06
1.28983e-06
1.31244e-06
1.33399e-06
1.3544e-06
1.37355e-06
1.39132e-06
1.40759e-06
1.42222e-06
1.43504e-06
1.44591e-06
1.45462e-06
1.46097e-06
1.46444e-06
1.46539e-06
1.46356e-06
1.45841e-06
1.4497e-06
1.43718e-06
1.42057e-06
1.39958e-06
1.37396e-06
1.34347e-06
1.30788e-06
1.26706e-06
1.22096e-06
1.16962e-06
1.11323e-06
1.05217e-06
9.86989e-07
9.18433e-07
8.47456e-07
7.75189e-07
7.02912e-07
6.3201e-07
5.63928e-07
5.00138e-07
4.42131e-07
3.91455e-07
3.49854e-07
3.19578e-07
3.0431e-07
3.10122e-07
3.52692e-07
4.82553e-07
1.00607e-06
2.65015e-06
1.25124e-06
8.70082e-07
7.02824e-07
6.18772e-07
5.78766e-07
5.66229e-07
5.72227e-07
5.91749e-07
6.20997e-07
6.57053e-07
6.97587e-07
7.40722e-07
7.84975e-07
8.29212e-07
8.72611e-07
9.14626e-07
9.54933e-07
9.93391e-07
1.02999e-06
1.06482e-06
1.098e-06
1.12969e-06
1.16006e-06
1.18923e-06
1.21732e-06
1.24443e-06
1.2706e-06
1.29586e-06
1.3202e-06
1.34361e-06
1.36605e-06
1.38746e-06
1.40778e-06
1.42693e-06
1.4448e-06
1.46128e-06
1.47626e-06
1.48959e-06
1.50112e-06
1.51068e-06
1.5181e-06
1.52298e-06
1.52505e-06
1.52479e-06
1.5214e-06
1.51461e-06
1.50413e-06
1.48968e-06
1.47092e-06
1.44755e-06
1.41926e-06
1.38576e-06
1.3468e-06
1.3022e-06
1.25189e-06
1.19593e-06
1.13455e-06
1.0682e-06
9.97543e-07
9.23504e-07
8.4724e-07
7.7012e-07
6.93682e-07
6.19579e-07
5.49526e-07
4.85279e-07
4.28661e-07
3.81686e-07
3.4688e-07
3.28348e-07
3.32491e-07
3.76105e-07
5.12924e-07
1.06833e-06
2.8106e-06
1.32679e-06
9.22445e-07
7.45039e-07
6.55927e-07
6.13545e-07
6.00279e-07
6.06623e-07
6.27237e-07
6.58067e-07
6.95992e-07
7.38516e-07
7.83632e-07
8.29758e-07
8.7569e-07
9.20565e-07
9.63812e-07
1.00511e-06
1.04432e-06
1.08146e-06
1.11662e-06
1.14997e-06
1.18169e-06
1.21195e-06
1.24092e-06
1.26873e-06
1.29548e-06
1.32125e-06
1.34608e-06
1.36999e-06
1.39299e-06
1.41505e-06
1.43614e-06
1.45623e-06
1.47525e-06
1.49312e-06
1.50975e-06
1.52504e-06
1.53885e-06
1.55106e-06
1.56149e-06
1.56995e-06
1.57624e-06
1.57983e-06
1.58091e-06
1.57937e-06
1.57457e-06
1.56625e-06
1.55408e-06
1.53773e-06
1.51685e-06
1.49108e-06
1.46006e-06
1.42346e-06
1.38098e-06
1.33243e-06
1.27769e-06
1.21686e-06
1.15022e-06
1.07831e-06
1.00198e-06
9.22347e-07
8.40847e-07
7.59139e-07
6.79076e-07
6.02635e-07
5.3187e-07
4.68918e-07
4.16117e-07
3.76322e-07
3.54121e-07
3.56266e-07
4.0076e-07
5.44696e-07
1.13333e-06
2.96973e-06
1.40176e-06
9.74508e-07
7.87119e-07
6.93049e-07
6.48341e-07
6.3435e-07
6.41008e-07
6.62653e-07
6.94978e-07
7.34662e-07
7.79048e-07
8.25999e-07
8.73836e-07
9.21285e-07
9.6744e-07
1.01171e-06
1.05377e-06
1.0935e-06
1.13092e-06
1.16617e-06
1.19943e-06
1.2309e-06
1.26079e-06
1.28928e-06
1.31653e-06
1.34267e-06
1.3678e-06
1.39197e-06
1.41525e-06
1.43764e-06
1.45917e-06
1.47983e-06
1.49959e-06
1.51842e-06
1.53627e-06
1.55304e-06
1.56866e-06
1.583e-06
1.59593e-06
1.60729e-06
1.61688e-06
1.6245e-06
1.62983e-06
1.63235e-06
1.63258e-06
1.62981e-06
1.62367e-06
1.61382e-06
1.59994e-06
1.58164e-06
1.55855e-06
1.53025e-06
1.49635e-06
1.45646e-06
1.41024e-06
1.35745e-06
1.29799e-06
1.23196e-06
1.15974e-06
1.082e-06
9.99807e-07
9.14569e-07
8.28037e-07
7.42243e-07
6.59424e-07
5.81958e-07
5.12343e-07
4.53292e-07
4.08048e-07
3.81746e-07
3.81554e-07
4.26747e-07
5.77964e-07
1.20125e-06
3.12659e-06
1.47572e-06
1.02599e-06
8.28849e-07
7.29955e-07
6.82977e-07
6.68261e-07
6.75183e-07
6.97772e-07
7.31475e-07
7.72778e-07
8.18867e-07
8.67479e-07
9.16838e-07
9.65603e-07
1.01282e-06
1.05789e-06
1.10048e-06
1.14048e-06
1.17794e-06
1.21302e-06
1.24591e-06
1.27688e-06
1.30613e-06
1.33389e-06
1.36035e-06
1.38565e-06
1.40993e-06
1.43327e-06
1.45575e-06
1.47743e-06
1.49833e-06
1.51849e-06
1.53791e-06
1.55656e-06
1.57441e-06
1.5914e-06
1.60743e-06
1.6224e-06
1.63617e-06
1.64857e-06
1.6594e-06
1.66843e-06
1.67542e-06
1.67988e-06
1.68163e-06
1.6809e-06
1.67692e-06
1.66936e-06
1.65788e-06
1.64213e-06
1.62169e-06
1.59616e-06
1.5651e-06
1.52805e-06
1.48458e-06
1.4343e-06
1.37693e-06
1.31237e-06
1.24076e-06
1.1626e-06
1.07877e-06
9.90608e-07
8.99888e-07
8.08774e-07
7.19748e-07
6.35524e-07
5.59e-07
4.93324e-07
4.42197e-07
4.11312e-07
4.08451e-07
4.54146e-07
6.12805e-07
1.27222e-06
3.28021e-06
1.54823e-06
1.07659e-06
8.70008e-07
7.66456e-07
7.17275e-07
7.01825e-07
7.08947e-07
7.32367e-07
7.67302e-07
8.10054e-07
8.57658e-07
9.0773e-07
9.584e-07
1.00826e-06
1.05632e-06
1.10196e-06
1.14483e-06
1.18486e-06
1.2221e-06
1.25675e-06
1.28904e-06
1.31925e-06
1.34764e-06
1.37445e-06
1.3999e-06
1.42418e-06
1.44744e-06
1.46982e-06
1.49141e-06
1.51231e-06
1.53257e-06
1.55224e-06
1.57135e-06
1.58991e-06
1.60788e-06
1.62521e-06
1.64182e-06
1.65759e-06
1.67238e-06
1.686e-06
1.69823e-06
1.70883e-06
1.71753e-06
1.72403e-06
1.72769e-06
1.72871e-06
1.72688e-06
1.72153e-06
1.71234e-06
1.69896e-06
1.68102e-06
1.65811e-06
1.6298e-06
1.5956e-06
1.55503e-06
1.50759e-06
1.45283e-06
1.39044e-06
1.32033e-06
1.24272e-06
1.15827e-06
1.06814e-06
9.74052e-07
8.78223e-07
7.83344e-07
6.92458e-07
6.08891e-07
5.3628e-07
4.78857e-07
4.42935e-07
4.37044e-07
4.83026e-07
6.4928e-07
1.34635e-06
3.42964e-06
1.61885e-06
1.12602e-06
9.1037e-07
8.0236e-07
7.51052e-07
7.34856e-07
7.42095e-07
7.66212e-07
8.02207e-07
8.46211e-07
8.95115e-07
9.46423e-07
9.98172e-07
1.04889e-06
1.09755e-06
1.14351e-06
1.18644e-06
1.22625e-06
1.26304e-06
1.29703e-06
1.32849e-06
1.35772e-06
1.38503e-06
1.41071e-06
1.43499e-06
1.45811e-06
1.48026e-06
1.50159e-06
1.52226e-06
1.54237e-06
1.56202e-06
1.58128e-06
1.60021e-06
1.61881e-06
1.63708e-06
1.65496e-06
1.67237e-06
1.68919e-06
1.70525e-06
1.72034e-06
1.73423e-06
1.74663e-06
1.75725e-06
1.76576e-06
1.77173e-06
1.77451e-06
1.77471e-06
1.77151e-06
1.76445e-06
1.75323e-06
1.7375e-06
1.7169e-06
1.69103e-06
1.65944e-06
1.62164e-06
1.57707e-06
1.52517e-06
1.46543e-06
1.39751e-06
1.32135e-06
1.2373e-06
1.14626e-06
1.04976e-06
9.50013e-07
8.49829e-07
7.52551e-07
6.61943e-07
5.82178e-07
5.18093e-07
4.76698e-07
4.67406e-07
5.1344e-07
6.87429e-07
1.42368e-06
3.57392e-06
1.68714e-06
1.174e-06
9.49712e-07
8.37474e-07
7.84127e-07
7.67167e-07
7.74428e-07
7.99087e-07
8.35947e-07
8.80979e-07
9.30946e-07
9.83244e-07
1.03583e-06
1.08716e-06
1.13618e-06
1.18222e-06
1.22496e-06
1.26433e-06
1.30044e-06
1.33356e-06
1.36398e-06
1.39206e-06
1.41813e-06
1.44252e-06
1.46552e-06
1.48739e-06
1.50836e-06
1.52864e-06
1.5484e-06
1.56778e-06
1.58692e-06
1.60591e-06
1.62482e-06
1.64367e-06
1.66247e-06
1.68116e-06
1.69966e-06
1.71783e-06
1.73548e-06
1.75239e-06
1.76826e-06
1.7828e-06
1.79565e-06
1.80643e-06
1.81475e-06
1.81993e-06
1.82182e-06
1.82071e-06
1.81567e-06
1.80636e-06
1.7925e-06
1.77378e-06
1.74988e-06
1.72043e-06
1.68497e-06
1.64298e-06
1.59384e-06
1.53691e-06
1.47163e-06
1.39763e-06
1.3149e-06
1.22399e-06
1.12615e-06
1.02344e-06
9.18694e-07
8.15487e-07
7.18001e-07
6.30981e-07
5.59936e-07
5.12656e-07
4.99594e-07
5.45429e-07
7.27273e-07
1.50424e-06
3.71215e-06
1.75267e-06
1.22023e-06
9.87813e-07
8.71608e-07
8.1632e-07
7.98577e-07
8.05753e-07
8.30782e-07
8.68289e-07
9.14106e-07
9.64879e-07
1.0179e-06
1.07106e-06
1.12276e-06
1.17189e-06
1.21778e-06
1.26011e-06
1.29882e-06
1.33406e-06
1.36612e-06
1.39534e-06
1.42211e-06
1.44682e-06
1.46983e-06
1.49147e-06
1.51206e-06
1.53185e-06
1.55111e-06
1.57002e-06
1.58879e-06
1.60755e-06
1.62644e-06
1.64554e-06
1.66488e-06
1.68448e-06
1.70429e-06
1.7242e-06
1.74407e-06
1.76368e-06
1.78278e-06
1.80105e-06
1.81812e-06
1.8336e-06
1.84703e-06
1.85797e-06
1.86593e-06
1.86993e-06
1.8707e-06
1.86762e-06
1.86003e-06
1.84771e-06
1.8304e-06
1.80788e-06
1.7799e-06
1.74612e-06
1.70609e-06
1.65925e-06
1.60492e-06
1.54235e-06
1.4709e-06
1.39021e-06
1.3004e-06
1.20231e-06
1.09771e-06
9.89317e-07
8.80838e-07
7.76821e-07
6.82585e-07
6.04374e-07
5.50837e-07
5.33647e-07
5.79015e-07
7.68811e-07
1.588e-06
3.84346e-06
1.81505e-06
1.26444e-06
1.02446e-06
9.04575e-07
8.47455e-07
8.2891e-07
8.35886e-07
8.611e-07
8.99021e-07
9.45362e-07
9.96668e-07
1.05015e-06
1.10361e-06
1.15541e-06
1.20442e-06
1.24994e-06
1.29165e-06
1.32951e-06
1.36371e-06
1.39456e-06
1.42244e-06
1.4478e-06
1.47106e-06
1.49263e-06
1.51289e-06
1.5322e-06
1.55087e-06
1.56917e-06
1.58735e-06
1.60564e-06
1.6242e-06
1.64319e-06
1.66271e-06
1.68281e-06
1.70349e-06
1.72472e-06
1.74638e-06
1.7683e-06
1.79026e-06
1.81197e-06
1.83305e-06
1.85311e-06
1.87167e-06
1.88822e-06
1.90223e-06
1.91318e-06
1.92013e-06
1.92279e-06
1.92178e-06
1.91591e-06
1.90491e-06
1.88861e-06
1.86689e-06
1.83963e-06
1.80666e-06
1.76771e-06
1.72236e-06
1.66997e-06
1.60977e-06
1.5409e-06
1.46265e-06
1.37468e-06
1.27735e-06
1.17197e-06
1.06098e-06
9.48074e-07
8.38061e-07
7.36812e-07
6.51344e-07
5.91238e-07
5.69581e-07
6.14206e-07
8.12022e-07
1.67488e-06
3.96704e-06
1.87389e-06
1.30638e-06
1.05944e-06
9.36194e-07
8.77365e-07
8.58002e-07
8.64659e-07
8.89862e-07
9.27951e-07
9.74543e-07
1.0261e-06
1.07975e-06
1.13325e-06
1.18491e-06
1.23356e-06
1.27849e-06
1.3194e-06
1.35625e-06
1.38926e-06
1.41878e-06
1.44524e-06
1.46911e-06
1.49088e-06
1.511e-06
1.52991e-06
1.54798e-06
1.56559e-06
1.58305e-06
1.60064e-06
1.6186e-06
1.63715e-06
1.65646e-06
1.67662e-06
1.69772e-06
1.71977e-06
1.74271e-06
1.76643e-06
1.79076e-06
1.81543e-06
1.84014e-06
1.86448e-06
1.888e-06
1.91014e-06
1.93034e-06
1.94797e-06
1.96238e-06
1.97292e-06
1.97826e-06
1.97933e-06
1.97542e-06
1.96578e-06
1.95029e-06
1.92889e-06
1.90163e-06
1.86855e-06
1.82961e-06
1.78463e-06
1.73317e-06
1.67453e-06
1.60778e-06
1.53195e-06
1.44626e-06
1.35049e-06
1.24537e-06
1.13291e-06
1.01657e-06
9.01291e-07