/*--------------------------------*- C++ -*----------------------------------*\
  =========                 |
  \\      /  F ield         | OpenFOAM: The Open Source CFD Toolbox
   \\    /   O peration     | Website:  https://openfoam.org
    \\  /    A nd           | Version:  12
     \\/     M anipulation  |
\*---------------------------------------------------------------------------*/
FoamFile
{
    format      ascii;
    class       volScalarField;
    location    "3.5";
    object      k;
}
// * * * * * * * * * * * * * * * * * * * * * * * * * * * * * * * * * * * * * //

dimensions      [0 2 -2 0 0 0 0];

internalField   nonuniform List<scalar> 
5625
(
3.74743e-12
1.87089e-11
4.08276e-11
6.71682e-11
9.63392e-11
1.27458e-10
1.59863e-10
1.93017e-10
2.26473e-10
2.59852e-10
2.92838e-10
3.25167e-10
3.5663e-10
3.87067e-10
4.16364e-10
4.44454e-10
4.71302e-10
4.96913e-10
5.21313e-10
5.44548e-10
5.66678e-10
5.87763e-10
6.07865e-10
6.27034e-10
6.4531e-10
6.62714e-10
6.79248e-10
6.94897e-10
7.09621e-10
7.23363e-10
7.36045e-10
7.47574e-10
7.57842e-10
7.6673e-10
7.7411e-10
7.79847e-10
7.83803e-10
7.85815e-10
7.85881e-10
7.83827e-10
7.79546e-10
7.72957e-10
7.64004e-10
7.52658e-10
7.38917e-10
7.22811e-10
7.04402e-10
6.83785e-10
6.61084e-10
6.36458e-10
6.1009e-10
5.82189e-10
5.52985e-10
5.22721e-10
4.91653e-10
4.60037e-10
4.2813e-10
3.9618e-10
3.6442e-10
3.33069e-10
3.0232e-10
2.72347e-10
2.43295e-10
2.15286e-10
1.88416e-10
1.62763e-10
1.3839e-10
1.15345e-10
9.36796e-11
7.34588e-11
5.47794e-11
3.78019e-11
2.28156e-11
1.04134e-11
2.08381e-12
1.87316e-11
1.61052e-10
3.62859e-10
6.01096e-10
8.64274e-10
1.14474e-09
1.43663e-09
1.73516e-09
2.03635e-09
2.33678e-09
2.63361e-09
2.92448e-09
3.20752e-09
3.48129e-09
3.74477e-09
3.99735e-09
4.23874e-09
4.46898e-09
4.68831e-09
4.89716e-09
5.09606e-09
5.28558e-09
5.46627e-09
5.63858e-09
5.80287e-09
5.95935e-09
6.10804e-09
6.24878e-09
6.38123e-09
6.50487e-09
6.619e-09
6.72278e-09
6.81524e-09
6.89531e-09
6.96182e-09
7.01357e-09
7.04932e-09
7.06741e-09
7.06788e-09
7.04922e-09
7.01051e-09
6.95104e-09
6.87031e-09
6.76804e-09
6.64424e-09
6.49919e-09
6.33343e-09
6.14783e-09
5.94351e-09
5.7219e-09
5.48464e-09
5.23362e-09
4.97091e-09
4.6987e-09
4.41927e-09
4.13494e-09
3.84802e-09
3.56072e-09
3.27515e-09
2.99326e-09
2.71681e-09
2.44734e-09
2.18616e-09
1.93434e-09
1.69278e-09
1.46214e-09
1.24295e-09
1.03569e-09
8.40835e-10
6.58933e-10
4.90826e-10
3.37892e-10
2.02557e-10
8.95581e-11
1.04068e-11
4.10804e-11
3.64623e-10
8.2853e-10
1.37833e-09
1.98642e-09
2.63464e-09
3.30927e-09
3.9992e-09
4.69513e-09
5.3892e-09
6.0748e-09
6.74649e-09
7.3999e-09
8.03173e-09
8.63963e-09
9.2222e-09
9.77881e-09
1.03095e-08
1.0815e-08
1.12962e-08
1.17545e-08
1.2191e-08
1.26072e-08
1.30041e-08
1.33825e-08
1.37428e-08
1.40852e-08
1.44092e-08
1.47141e-08
1.49986e-08
1.52611e-08
1.54997e-08
1.57121e-08
1.58958e-08
1.60481e-08
1.61664e-08
1.62477e-08
1.62879e-08
1.62881e-08
1.62441e-08
1.61539e-08
1.60157e-08
1.58285e-08
1.55916e-08
1.53052e-08
1.49697e-08
1.45865e-08
1.41577e-08
1.36858e-08
1.31741e-08
1.26265e-08
1.20473e-08
1.14412e-08
1.08134e-08
1.01691e-08
9.51364e-09
8.85235e-09
8.19036e-09
7.5325e-09
6.88326e-09
6.24666e-09
5.62625e-09
5.02503e-09
4.44548e-09
3.88957e-09
3.35887e-09
2.85458e-09
2.37774e-09
1.92938e-09
1.51077e-09
1.12388e-09
7.71951e-10
4.60828e-10
2.02026e-10
2.27393e-11
6.81628e-11
6.09148e-10
1.38997e-09
2.3189e-09
3.34819e-09
4.44633e-09
5.5896e-09
6.75888e-09
7.93825e-09
9.11427e-09
1.02757e-08
1.14131e-08
1.25192e-08
1.35883e-08
1.46165e-08
1.56014e-08
1.65419e-08
1.74383e-08
1.82917e-08
1.91039e-08
1.9877e-08
2.06135e-08
2.13154e-08
2.19846e-08
2.26226e-08
2.32301e-08
2.38072e-08
2.43533e-08
2.48669e-08
2.5346e-08
2.57878e-08
2.6189e-08
2.65459e-08
2.68541e-08
2.71091e-08
2.73065e-08
2.74412e-08
2.7506e-08
2.7504e-08
2.74271e-08
2.72719e-08
2.70357e-08
2.67166e-08
2.63136e-08
2.58269e-08
2.52574e-08
2.46075e-08
2.38805e-08
2.3081e-08
2.22144e-08
2.12873e-08
2.03071e-08
1.92819e-08
1.82202e-08
1.71311e-08
1.60236e-08
1.49067e-08
1.37889e-08
1.26786e-08
1.15832e-08
1.05096e-08
9.46367e-09
8.4504e-09
7.47396e-09
6.53761e-09
5.64392e-09
4.79489e-09
3.99218e-09
3.23749e-09
2.53299e-09
1.88205e-09
1.29035e-09
7.68138e-10
3.35338e-10
3.74868e-11
9.89572e-11
8.86488e-10
2.02741e-09
3.38861e-09
4.8996e-09
6.51332e-09
8.19428e-09
9.91394e-09
1.16485e-08
1.33779e-08
1.50854e-08
1.67571e-08
1.8382e-08
1.99516e-08
2.14602e-08
2.29044e-08
2.42826e-08
2.55953e-08
2.68442e-08
2.80322e-08
2.91625e-08
3.02387e-08
3.1264e-08
3.22413e-08
3.31726e-08
3.40591e-08
3.4901e-08
3.56972e-08
3.64457e-08
3.71434e-08
3.77863e-08
3.83695e-08
3.88874e-08
3.93339e-08
3.97025e-08
3.99863e-08
4.01779e-08
4.0267e-08
4.02589e-08
4.0141e-08
3.99084e-08
3.95571e-08
3.90844e-08
3.84891e-08
3.7771e-08
3.69321e-08
3.59754e-08
3.49061e-08
3.37307e-08
3.24574e-08
3.10959e-08
2.96571e-08
2.81528e-08
2.65959e-08
2.49993e-08
2.33766e-08
2.17408e-08
2.01047e-08
1.84804e-08
1.68787e-08
1.53097e-08
1.37819e-08
1.23025e-08
1.08776e-08
9.51179e-09
8.2087e-09
6.97112e-09
5.80142e-09
4.702e-09
3.67606e-09
2.7286e-09
1.86818e-09
1.11008e-09
4.83514e-10
5.39194e-11
1.32981e-10
1.1926e-09
2.73111e-09
4.57039e-09
6.61521e-09
8.80133e-09
1.108e-08
1.3412e-08
1.57645e-08
1.81099e-08
2.04249e-08
2.26905e-08
2.48912e-08
2.70158e-08
2.90561e-08
3.10074e-08
3.28681e-08
3.46387e-08
3.63219e-08
3.79215e-08
3.94424e-08
4.08893e-08
4.22669e-08
4.35793e-08
4.48291e-08
4.60181e-08
4.71464e-08
4.82128e-08
4.92145e-08
5.01473e-08
5.10057e-08
5.17834e-08
5.24727e-08
5.30654e-08
5.35529e-08
5.39262e-08
5.41741e-08
5.42844e-08
5.42646e-08
5.40966e-08
5.37741e-08
5.32916e-08
5.26458e-08
5.18346e-08
5.08583e-08
4.97192e-08
4.84217e-08
4.69725e-08
4.53806e-08
4.36571e-08
4.18152e-08
3.98695e-08
3.78364e-08
3.5733e-08
3.35772e-08
3.13873e-08
2.9181e-08
2.69755e-08
2.47872e-08
2.26308e-08
2.05196e-08
1.84653e-08
1.64773e-08
1.45636e-08
1.27304e-08
1.09822e-08
9.32264e-09
7.75482e-09
6.28186e-09
4.908e-09
3.64008e-09
2.48972e-09
1.47761e-09
6.42748e-10
7.15955e-11
1.69978e-10
1.5253e-09
3.49589e-09
5.85516e-09
8.48135e-09
1.12917e-08
1.42231e-08
1.72243e-08
2.02524e-08
2.32711e-08
2.62499e-08
2.91635e-08
3.19919e-08
3.47199e-08
3.73371e-08
3.98375e-08
4.22189e-08
4.44823e-08
4.66313e-08
4.86714e-08
5.06088e-08
5.24502e-08
5.42017e-08
5.58685e-08
5.74546e-08
5.8962e-08
6.03911e-08
6.17404e-08
6.30063e-08
6.41836e-08
6.52655e-08
6.62436e-08
6.71086e-08
6.785e-08
6.8457e-08
6.89181e-08
6.92178e-08
6.93439e-08
6.93044e-08
6.90759e-08
6.86503e-08
6.80209e-08
6.71832e-08
6.6135e-08
6.48764e-08
6.34102e-08
6.17422e-08
5.98809e-08
5.78379e-08
5.56274e-08
5.32662e-08
5.07734e-08
4.81696e-08
4.54772e-08
4.27192e-08
3.99189e-08
3.70992e-08
3.42822e-08
3.14889e-08
2.87381e-08
2.60469e-08
2.34299e-08
2.08992e-08
1.84646e-08
1.61339e-08
1.39128e-08
1.18055e-08
9.8158e-09
7.94748e-09
6.2059e-09
4.59971e-09
3.14376e-09
1.86425e-09
8.10277e-10
9.02018e-11
2.09805e-10
1.88336e-09
4.31887e-09
7.23793e-09
1.04906e-08
1.39743e-08
1.76104e-08
2.13347e-08
2.5093e-08
2.88394e-08
3.25349e-08
3.61473e-08
3.96511e-08
4.30269e-08
4.62616e-08
4.93476e-08
5.22823e-08
5.50674e-08
5.77077e-08
6.02104e-08
6.25837e-08
6.48362e-08
6.6976e-08
6.90097e-08
7.09424e-08
7.2777e-08
7.45141e-08
7.61519e-08
7.76862e-08
7.91107e-08
8.04173e-08
8.15958e-08
8.26348e-08
8.3522e-08
8.42439e-08
8.47869e-08
8.51298e-08
8.52635e-08
8.51939e-08
8.48926e-08
8.43497e-08
8.35574e-08
8.25101e-08
8.1205e-08
7.96424e-08
7.78257e-08
7.57618e-08
7.34614e-08
7.09386e-08
6.82108e-08
6.52987e-08
6.22257e-08
5.90177e-08
5.57019e-08
5.23068e-08
4.88612e-08
4.53935e-08
4.1931e-08
3.84994e-08
3.51222e-08
3.18202e-08
2.86113e-08
2.55104e-08
2.25295e-08
1.96776e-08
1.69616e-08
1.43866e-08
1.19568e-08
9.67664e-09
7.55254e-09
5.59495e-09
3.82187e-09
2.26509e-09
9.83986e-10
1.09501e-10
2.52381e-10
2.26605e-09
5.19845e-09
8.71595e-09
1.26387e-08
1.68434e-08
2.12347e-08
2.57343e-08
3.02757e-08
3.4802e-08
3.92648e-08
4.36241e-08
4.78478e-08
5.19119e-08
5.58003e-08
5.95036e-08
6.3019e-08
6.6349e-08
6.94999e-08
7.24809e-08
7.53027e-08
7.79762e-08
8.05115e-08
8.29174e-08
8.52001e-08
8.73636e-08
8.94087e-08
9.13336e-08
9.31337e-08
9.48016e-08
9.63277e-08
9.77004e-08
9.89062e-08
9.99307e-08
1.00758e-07
1.01373e-07
1.01746e-07
1.01876e-07
1.01763e-07
1.01375e-07
1.00699e-07
9.97278e-08
9.84536e-08
9.68735e-08
9.49877e-08
9.28005e-08
9.032e-08
8.75588e-08
8.45336e-08
8.12652e-08
7.77782e-08
7.41006e-08
7.02628e-08
6.62978e-08
6.22394e-08
5.81221e-08
5.39799e-08
4.98455e-08
4.57499e-08
4.1721e-08
3.77839e-08
3.39599e-08
3.0267e-08
2.67192e-08
2.33273e-08
2.00993e-08
1.70409e-08
1.4157e-08
1.14525e-08
8.93491e-09
6.61623e-09
4.51761e-09
2.67636e-09
1.16225e-09
1.2931e-10
2.97654e-10
2.67295e-09
6.13363e-09
1.02876e-08
1.49234e-08
1.98958e-08
2.50919e-08
3.04181e-08
3.57941e-08
4.11511e-08
4.64299e-08
5.15815e-08
5.65666e-08
6.1356e-08
6.59299e-08
7.02774e-08
7.43955e-08
7.82876e-08
8.19621e-08
8.54307e-08
8.87068e-08
9.18042e-08
9.47356e-08
9.75117e-08
1.00141e-07
1.02628e-07
1.04974e-07
1.07178e-07
1.09235e-07
1.11136e-07
1.1287e-07
1.14425e-07
1.15784e-07
1.16932e-07
1.17851e-07
1.18522e-07
1.18908e-07
1.19022e-07
1.1885e-07
1.18358e-07
1.17533e-07
1.16366e-07
1.14848e-07
1.12977e-07
1.10752e-07
1.08178e-07
1.05265e-07
1.02028e-07
9.84849e-08
9.46605e-08
9.0583e-08
8.62847e-08
8.18011e-08
7.717e-08
7.2431e-08
6.76242e-08
6.27892e-08
5.79643e-08
5.31856e-08
4.84862e-08
4.38954e-08
3.94383e-08
3.5136e-08
3.10051e-08
2.70581e-08
2.33042e-08
1.97501e-08
1.64011e-08
1.32629e-08
1.03434e-08
7.6565e-09
5.2262e-09
3.09524e-09
1.34384e-09
1.49492e-10
3.45587e-10
3.10371e-09
7.12367e-09
1.19516e-08
1.73429e-08
2.31293e-08
2.91791e-08
3.53822e-08
4.16436e-08
4.78806e-08
5.40222e-08
6.00092e-08
6.57941e-08
7.13417e-08
7.66286e-08
8.1642e-08
8.63791e-08
9.08445e-08
9.50493e-08
9.9008e-08
1.02737e-07
1.06255e-07
1.09576e-07
1.12713e-07
1.15678e-07
1.18476e-07
1.21111e-07
1.23579e-07
1.25877e-07
1.27994e-07
1.29919e-07
1.31638e-07
1.33133e-07
1.34386e-07
1.35376e-07
1.36084e-07
1.36462e-07
1.36543e-07
1.36293e-07
1.3568e-07
1.34689e-07
1.3331e-07
1.31534e-07
1.29357e-07
1.26781e-07
1.2381e-07
1.20456e-07
1.16733e-07
1.12665e-07
1.08278e-07
1.03604e-07
9.86782e-08
9.35419e-08
8.82375e-08
8.28097e-08
7.73042e-08
7.17661e-08
6.62393e-08
6.07654e-08
5.53823e-08
5.01242e-08
4.50202e-08
4.00949e-08
3.53676e-08
3.0853e-08
2.6562e-08
2.2502e-08
1.8679e-08
1.50992e-08
1.17714e-08
8.71085e-09
5.94427e-09
3.51973e-09
1.52789e-09
1.69951e-10
3.96139e-10
3.558e-09
8.1678e-09
1.37067e-08
1.98955e-08
2.65415e-08
3.34933e-08
4.0623e-08
4.78192e-08
5.49841e-08
6.20332e-08
6.88958e-08
7.55154e-08
8.18501e-08
8.78726e-08
9.35684e-08
9.89348e-08
1.03979e-07
1.08714e-07
1.13158e-07
1.17333e-07
1.2126e-07
1.24957e-07
1.28441e-07
1.31724e-07
1.34815e-07
1.37717e-07
1.40429e-07
1.42946e-07
1.45257e-07
1.4735e-07
1.49209e-07
1.50816e-07
1.5215e-07
1.53189e-07
1.53908e-07
1.54255e-07
1.54286e-07
1.53937e-07
1.53183e-07
1.52009e-07
1.50403e-07
1.48357e-07
1.45866e-07
1.42931e-07
1.39558e-07
1.35759e-07
1.31552e-07
1.2696e-07
1.22012e-07
1.16744e-07
1.11195e-07
1.05409e-07
9.94338e-08
9.33182e-08
8.71132e-08
8.08694e-08
7.46363e-08
6.84606e-08
6.23859e-08
5.6451e-08
5.06897e-08
4.51304e-08
3.97957e-08
3.47029e-08
2.98645e-08
2.52896e-08
2.09847e-08
1.69567e-08
1.32151e-08
9.7763e-09
6.66975e-09
3.9486e-09
1.71384e-09
1.90624e-10
4.49261e-10
4.03537e-09
9.26503e-09
1.55513e-08
2.25789e-08
3.01295e-08
3.80307e-08
4.61355e-08
5.43146e-08
6.24534e-08
7.04522e-08
7.82276e-08
8.57128e-08
9.28591e-08
9.96347e-08
1.06024e-07
1.12024e-07
1.17645e-07
1.22904e-07
1.27824e-07
1.3243e-07
1.36748e-07
1.40801e-07
1.44609e-07
1.48187e-07
1.51546e-07
1.5469e-07
1.57619e-07
1.60326e-07
1.62804e-07
1.65036e-07
1.67008e-07
1.68698e-07
1.70084e-07
1.71145e-07
1.71842e-07
1.72142e-07
1.72097e-07
1.71628e-07
1.70716e-07
1.69343e-07
1.67499e-07
1.65173e-07
1.62362e-07
1.59067e-07
1.55295e-07
1.51057e-07
1.46373e-07
1.41268e-07
1.35773e-07
1.29924e-07
1.23765e-07
1.17343e-07
1.10707e-07
1.03914e-07
9.70166e-08
9.00717e-08
8.31339e-08
7.62554e-08
6.94852e-08
6.28674e-08
5.64409e-08
5.02384e-08
4.42864e-08
3.86052e-08
3.321e-08
2.81111e-08
2.33166e-08
1.88338e-08
1.46729e-08
1.08517e-08
7.40178e-09
4.38128e-09
1.90145e-09
2.11487e-10
5.04885e-10
4.53521e-09
1.0414e-08
1.74832e-08
2.53898e-08
3.38889e-08
4.27858e-08
5.19129e-08
6.11211e-08
7.02773e-08
7.92651e-08
8.79868e-08
9.63646e-08
1.04342e-07
1.11883e-07
1.1897e-07
1.25602e-07
1.31792e-07
1.37562e-07
1.4294e-07
1.47957e-07
1.52642e-07
1.57025e-07
1.6113e-07
1.64973e-07
1.68569e-07
1.71923e-07
1.75036e-07
1.77902e-07
1.80512e-07
1.82851e-07
1.84901e-07
1.86641e-07
1.88049e-07
1.891e-07
1.89743e-07
1.8998e-07
1.8983e-07
1.89221e-07
1.88133e-07
1.8655e-07
1.84458e-07
1.81849e-07
1.7872e-07
1.75071e-07
1.70908e-07
1.66246e-07
1.61103e-07
1.55505e-07
1.49484e-07
1.43078e-07
1.36333e-07
1.29296e-07
1.22022e-07
1.14568e-07
1.06993e-07
9.93586e-08
9.17233e-08
8.41453e-08
7.66793e-08
6.93751e-08
6.2277e-08
5.54229e-08
4.88438e-08
4.25641e-08
3.66017e-08
3.09694e-08
2.56766e-08
2.07318e-08
1.61459e-08
1.19375e-08
8.14058e-09
4.81788e-09
2.09073e-09
2.32541e-10
5.62922e-10
5.05672e-09
1.16129e-08
1.94994e-08
2.8324e-08
3.78139e-08
4.77509e-08
5.79454e-08
6.82265e-08
7.84409e-08
8.84535e-08
9.81509e-08
1.07444e-07
1.16266e-07
1.24579e-07
1.32363e-07
1.3962e-07
1.46365e-07
1.52627e-07
1.58439e-07
1.63839e-07
1.68863e-07
1.73544e-07
1.7791e-07
1.81984e-07
1.8578e-07
1.89308e-07
1.92567e-07
1.95554e-07
1.98259e-07
2.00667e-07
2.02759e-07
2.04514e-07
2.05908e-07
2.06917e-07
2.07474e-07
2.07628e-07
2.07349e-07
2.0658e-07
2.05302e-07
2.03499e-07
2.01156e-07
1.98267e-07
1.94827e-07
1.90836e-07
1.86303e-07
1.81239e-07
1.75664e-07
1.69602e-07
1.63087e-07
1.56157e-07
1.48857e-07
1.41237e-07
1.33353e-07
1.25265e-07
1.17035e-07
1.08727e-07
1.00406e-07
9.21362e-08
8.39768e-08
7.59843e-08
6.82092e-08
6.06952e-08
5.34789e-08
4.65893e-08
4.00482e-08
3.38714e-08
2.80705e-08
2.2655e-08
1.76369e-08
1.30357e-08
8.88739e-09
5.25906e-09
2.28197e-09
2.53817e-10
6.23254e-10
5.59886e-09
1.28593e-08
2.15958e-08
3.13755e-08
4.18966e-08
5.2916e-08
6.42203e-08
7.56152e-08
8.69248e-08
9.79939e-08
1.08692e-07
1.18917e-07
1.28594e-07
1.37679e-07
1.46154e-07
1.54021e-07
1.61301e-07
1.6803e-07
1.74247e-07
1.79997e-07
1.85324e-07
1.90265e-07
1.94855e-07
1.99118e-07
2.03075e-07
2.06734e-07
2.10098e-07
2.13165e-07
2.15923e-07
2.18359e-07
2.20455e-07
2.22187e-07
2.23534e-07
2.24462e-07
2.24908e-07
2.24958e-07
2.24528e-07
2.23582e-07
2.22105e-07
2.20078e-07
2.17488e-07
2.14326e-07
2.1059e-07
2.06279e-07
2.01401e-07
1.95966e-07
1.89993e-07
1.83507e-07
1.76538e-07
1.69125e-07
1.61311e-07
1.53148e-07
1.4469e-07
1.36e-07
1.27142e-07
1.18183e-07
1.09194e-07
1.00242e-07
9.1394e-08
8.27128e-08
7.42556e-08
6.60731e-08
5.82082e-08
5.06957e-08
4.35624e-08
3.68279e-08
3.05066e-08
2.46099e-08
1.91507e-08
1.41496e-08
9.6443e-09
5.706e-09
2.47568e-09
2.75368e-10
6.85732e-10
6.16029e-09
1.41501e-08
2.37674e-08
3.4537e-08
4.61271e-08
5.82682e-08
7.07214e-08
8.3267e-08
9.57048e-08
1.07858e-07
1.19577e-07
1.30745e-07
1.4128e-07
1.51133e-07
1.60285e-07
1.68743e-07
1.76534e-07
1.83698e-07
1.90286e-07
1.96348e-07
2.01936e-07
2.07096e-07
2.11865e-07
2.16275e-07
2.20346e-07
2.24092e-07
2.27517e-07
2.30619e-07
2.33388e-07
2.3581e-07
2.37868e-07
2.39541e-07
2.40806e-07
2.41611e-07
2.41939e-07
2.41855e-07
2.41256e-07
2.40125e-07
2.38443e-07
2.36194e-07
2.33365e-07
2.29947e-07
2.25936e-07
2.21333e-07
2.16143e-07
2.10375e-07
2.04047e-07
1.97181e-07
1.89806e-07
1.81957e-07
1.73677e-07
1.65015e-07
1.56027e-07
1.46773e-07
1.37321e-07
1.27739e-07
1.18102e-07
1.08482e-07
9.89524e-08
8.95832e-08
8.04391e-08
7.15786e-08
6.30523e-08
5.4902e-08
4.71606e-08
3.98527e-08
3.29962e-08
2.66051e-08
2.06937e-08
1.52837e-08
1.04142e-08
6.16034e-09
2.67252e-09
2.97271e-10
7.50179e-10
6.73942e-09
1.54818e-08
2.6008e-08
3.77995e-08
5.04932e-08
6.37916e-08
7.74288e-08
9.11578e-08
1.04752e-07
1.1801e-07
1.30765e-07
1.42883e-07
1.54274e-07
1.64885e-07
1.74696e-07
1.83719e-07
1.91989e-07
1.99554e-07
2.06472e-07
2.12804e-07
2.1861e-07
2.23941e-07
2.28843e-07
2.33351e-07
2.3749e-07
2.41275e-07
2.44714e-07
2.47805e-07
2.5054e-07
2.52907e-07
2.54889e-07
2.56465e-07
2.57613e-07
2.58267e-07
2.58471e-07
2.58224e-07
2.57447e-07
2.56125e-07
2.5424e-07
2.51778e-07
2.48725e-07
2.45073e-07
2.40815e-07
2.35953e-07
2.3049e-07
2.24433e-07
2.17797e-07
2.10601e-07
2.02871e-07
1.94639e-07
1.85946e-07
1.76836e-07
1.67365e-07
1.57591e-07
1.47582e-07
1.37409e-07
1.27148e-07
1.16877e-07
1.06676e-07
9.66209e-08
8.67855e-08
7.72372e-08
6.80353e-08
5.92301e-08
5.0862e-08
4.29618e-08
3.55524e-08
2.86508e-08
2.22735e-08
1.64432e-08
1.12005e-08
6.62403e-09
2.87333e-09
3.19618e-10
8.16381e-10
7.33432e-09
1.685e-08
2.83102e-08
4.11522e-08
5.49801e-08
6.94673e-08
8.43188e-08
9.92586e-08
1.14032e-07
1.28412e-07
1.42211e-07
1.5528e-07
1.67519e-07
1.78871e-07
1.89318e-07
1.98877e-07
2.07589e-07
2.15514e-07
2.22719e-07
2.29275e-07
2.3525e-07
2.40705e-07
2.4569e-07
2.50246e-07
2.54403e-07
2.58179e-07
2.61584e-07
2.64619e-07
2.67279e-07
2.69551e-07
2.7142e-07
2.72867e-07
2.73866e-07
2.7435e-07
2.7442e-07
2.73995e-07
2.73036e-07
2.71524e-07
2.69446e-07
2.66786e-07
2.63531e-07
2.59671e-07
2.55201e-07
2.50117e-07
2.44423e-07
2.38123e-07
2.31228e-07
2.23754e-07
2.15724e-07
2.07164e-07
1.98112e-07
1.88608e-07
1.78704e-07
1.68458e-07
1.57934e-07
1.47205e-07
1.36349e-07
1.25449e-07
1.14588e-07
1.03851e-07
9.33209e-08
8.30748e-08
7.31821e-08
6.3703e-08
5.46872e-08
4.61732e-08
3.81899e-08
3.07588e-08
2.38988e-08
1.76343e-08
1.20072e-08
7.09934e-09
3.07907e-09
3.42513e-10
8.84091e-10
7.9428e-09
1.82495e-08
3.06656e-08
4.45826e-08
5.95709e-08
7.52732e-08
9.13639e-08
1.07536e-07
1.23505e-07
1.39018e-07
1.53863e-07
1.67878e-07
1.80951e-07
1.93023e-07
2.04078e-07
2.14138e-07
2.23254e-07
2.31495e-07
2.3894e-07
2.45671e-07
2.51765e-07
2.57291e-07
2.62308e-07
2.66862e-07
2.70988e-07
2.74707e-07
2.78033e-07
2.8097e-07
2.83513e-07
2.85654e-07
2.8738e-07
2.88674e-07
2.89488e-07
2.89813e-07
2.89727e-07
2.89123e-07
2.87984e-07
2.86295e-07
2.84039e-07
2.81203e-07
2.77773e-07
2.73738e-07
2.69091e-07
2.63827e-07
2.57945e-07
2.51448e-07
2.44344e-07
2.36644e-07
2.28365e-07
2.19532e-07
2.10175e-07
2.00331e-07
1.90047e-07
1.79377e-07
1.68383e-07
1.57138e-07
1.45719e-07
1.34212e-07
1.22707e-07
1.11296e-07
1.00069e-07
8.91164e-08
7.85174e-08
6.83443e-08
5.86575e-08
4.95053e-08
4.09241e-08
3.29411e-08
2.55789e-08
1.88636e-08
1.28386e-08
7.58867e-09
3.29075e-09
3.6607e-10
9.53031e-10
8.56235e-09
1.96746e-08
3.30644e-08
4.80764e-08
6.42462e-08
8.11843e-08
9.8533e-08
1.15953e-07
1.33128e-07
1.49776e-07
1.65665e-07
1.80614e-07
1.94503e-07
2.07269e-07
2.18899e-07
2.29422e-07
2.38898e-07
2.47409e-07
2.55045e-07
2.619e-07
2.68061e-07
2.73607e-07
2.78605e-07
2.83108e-07
2.87154e-07
2.90771e-07
2.93976e-07
2.96775e-07
2.99168e-07
3.01148e-07
3.02706e-07
3.03825e-07
3.04442e-07
3.04624e-07
3.04365e-07
3.0359e-07
3.02285e-07
3.00436e-07
2.98027e-07
2.95043e-07
2.91471e-07
2.87297e-07
2.82511e-07
2.77107e-07
2.71081e-07
2.64432e-07
2.57164e-07
2.49285e-07
2.40808e-07
2.3175e-07
2.22139e-07
2.12006e-07
2.01392e-07
1.90346e-07
1.78929e-07
1.67208e-07
1.55261e-07
1.43176e-07
1.31047e-07
1.18971e-07
1.07051e-07
9.53834e-08
8.40636e-08
7.3176e-08
6.27936e-08
5.29764e-08
4.37706e-08
3.52104e-08
2.73233e-08
2.01378e-08
1.36991e-08
8.09455e-09
3.50943e-09
3.90405e-10
1.02289e-09
9.19017e-09
2.1119e-08
3.54958e-08
5.16178e-08
6.89843e-08
8.71726e-08
1.05791e-07
1.24467e-07
1.42851e-07
1.60633e-07
1.77555e-07
1.93421e-07
2.08102e-07
2.21531e-07
2.337e-07
2.44644e-07
2.54435e-07
2.63168e-07
2.70945e-07
2.77872e-07
2.84049e-07
2.89565e-07
2.94495e-07
2.98898e-07
3.0282e-07
3.06294e-07
3.09341e-07
3.1197e-07
3.14185e-07
3.15985e-07
3.1736e-07
3.18286e-07
3.18716e-07
3.18762e-07
3.18336e-07
3.17408e-07
3.15961e-07
3.1398e-07
3.11449e-07
3.08353e-07
3.04675e-07
3.004e-07
2.95515e-07
2.90011e-07
2.8388e-07
2.77119e-07
2.69728e-07
2.6171e-07
2.53075e-07
2.43836e-07
2.34014e-07
2.23635e-07
2.12737e-07
2.01362e-07
1.89565e-07
1.7741e-07
1.64973e-07
1.52342e-07
1.39612e-07
1.26887e-07
1.14277e-07
1.01892e-07
8.9839e-08
7.82171e-08
6.71143e-08
5.6604e-08
4.67444e-08
3.7579e-08
2.91414e-08
2.14637e-08
1.45931e-08
8.61945e-09
3.73616e-09
4.15636e-10
1.09332e-09
9.82322e-09
2.25756e-08
3.79481e-08
5.51894e-08
7.37618e-08
9.32077e-08
1.13101e-07
1.33033e-07
1.52621e-07
1.71526e-07
1.89466e-07
2.06228e-07
2.21672e-07
2.3573e-07
2.48398e-07
2.5972e-07
2.6978e-07
2.78684e-07
2.86552e-07
2.93501e-07
2.99645e-07
3.05082e-07
3.09896e-07
3.14157e-07
3.17916e-07
3.21211e-07
3.24069e-07
3.26504e-07
3.28525e-07
3.30132e-07
3.31321e-07
3.32049e-07
3.32328e-07
3.32235e-07
3.31669e-07
3.30616e-07
3.2906e-07
3.26985e-07
3.24373e-07
3.21205e-07
3.17462e-07
3.13128e-07
3.08184e-07
3.02617e-07
2.96418e-07
2.89578e-07
2.82095e-07
2.7397e-07
2.65208e-07
2.55818e-07
2.45818e-07
2.3523e-07
2.24084e-07
2.12418e-07
2.00281e-07
1.87732e-07
1.74844e-07
1.61699e-07
1.48396e-07
1.35042e-07
1.21754e-07
1.08652e-07
9.58563e-08
8.34827e-08
7.16352e-08
6.04033e-08
4.98593e-08
4.00584e-08
3.10422e-08
2.28477e-08
1.55248e-08
9.1658e-09
3.97194e-09
4.41873e-10
1.16397e-09
1.04582e-08
2.40368e-08
4.04084e-08
5.87725e-08
7.8553e-08
9.92567e-08
1.20422e-07
1.41603e-07
1.62384e-07
1.82395e-07
2.0133e-07
2.18959e-07
2.35133e-07
2.49783e-07
2.62908e-07
2.74564e-07
2.84845e-07
2.93873e-07
3.01783e-07
3.08706e-07
3.14768e-07
3.20081e-07
3.24739e-07
3.28819e-07
3.32382e-07
3.35471e-07
3.38119e-07
3.40347e-07
3.42165e-07
3.43579e-07
3.44589e-07
3.4514e-07
3.45303e-07
3.45086e-07
3.44416e-07
3.4328e-07
3.4166e-07
3.39538e-07
3.36892e-07
3.33701e-07
3.2994e-07
3.25589e-07
3.20627e-07
3.15034e-07
3.08797e-07
3.01906e-07
2.94355e-07
2.86142e-07
2.77271e-07
2.67749e-07
2.5759e-07
2.46812e-07
2.35442e-07
2.23514e-07
2.11068e-07
1.9816e-07
1.84854e-07
1.71231e-07
1.57386e-07
1.43427e-07
1.29476e-07
1.15663e-07
1.02121e-07
8.89822e-08
7.63681e-08
6.43868e-08
5.31273e-08
4.2659e-08
3.30341e-08
2.4296e-08
1.64982e-08
9.73582e-09
4.21772e-09
4.69221e-10
1.23445e-09
1.10917e-08
2.54947e-08
4.28633e-08
6.23471e-08
8.33309e-08
1.05285e-07
1.2771e-07
1.50125e-07
1.7208e-07
1.93173e-07
2.13074e-07
2.31538e-07
2.48406e-07
2.63608e-07
2.77148e-07
2.89091e-07
2.99547e-07
3.08653e-07
3.16557e-07
3.23409e-07
3.29347e-07
3.34497e-07
3.38962e-07
3.42832e-07
3.46173e-07
3.49038e-07
3.51465e-07
3.53481e-07
3.55102e-07
3.56338e-07
3.57186e-07
3.57599e-07
3.57679e-07
3.57379e-07
3.56654e-07
3.55488e-07
3.53861e-07
3.51749e-07
3.49126e-07
3.45966e-07
3.42239e-07
3.37918e-07
3.32978e-07
3.27395e-07
3.21149e-07
3.14227e-07
3.06622e-07
2.9833e-07
2.89354e-07
2.79702e-07
2.69386e-07
2.58423e-07
2.46838e-07
2.34658e-07
2.21923e-07
2.08679e-07
1.94985e-07
1.80915e-07
1.66559e-07
1.52023e-07
1.3743e-07
1.22918e-07
1.08632e-07
9.4719e-08
8.13201e-08
6.85634e-08
5.65578e-08
4.53896e-08
3.51242e-08
2.58138e-08
1.75168e-08
1.03315e-08
4.47431e-09
4.97771e-10
1.30434e-09
1.172e-08
2.6941e-08
4.52986e-08
6.58925e-08
8.80675e-08
1.11256e-07
1.34922e-07
1.58548e-07
1.81648e-07
2.03793e-07
2.24627e-07
2.43888e-07
2.6141e-07
2.77122e-07
2.91033e-07
3.0322e-07
3.13806e-07
3.22945e-07
3.30802e-07
3.37541e-07
3.43318e-07
3.48271e-07
3.52516e-07
3.56152e-07
3.59256e-07
3.61889e-07
3.64095e-07
3.65908e-07
3.67351e-07
3.68436e-07
3.69156e-07
3.69481e-07
3.69518e-07
3.69192e-07
3.68474e-07
3.67344e-07
3.65776e-07
3.63741e-07
3.61208e-07
3.58142e-07
3.54507e-07
3.50269e-07
3.45396e-07
3.39858e-07
3.3363e-07
3.26695e-07
3.19042e-07
3.1067e-07
3.01582e-07
2.91786e-07
2.81296e-07
2.70132e-07
2.58318e-07
2.45881e-07
2.32857e-07
2.19286e-07
2.05221e-07
1.90728e-07
1.75888e-07
1.60802e-07
1.45593e-07
1.30401e-07
1.15379e-07
1.00689e-07
8.64923e-08
7.2938e-08
6.01573e-08
4.82569e-08
3.73185e-08
2.74057e-08
1.85837e-08
1.09546e-08
4.74241e-09
5.27601e-10
1.37323e-09
1.23394e-08
2.8367e-08
4.76998e-08
6.93873e-08
9.27337e-08
1.17133e-07
1.42012e-07
1.66817e-07
1.91029e-07
2.14186e-07
2.35913e-07
2.55931e-07
2.74066e-07
2.90244e-07
3.04484e-07
3.16872e-07
3.27546e-07
3.36678e-07
3.44449e-07
3.51041e-07
3.56626e-07
3.61355e-07
3.6536e-07
3.6875e-07
3.71611e-07
3.74014e-07
3.76011e-07
3.77642e-07
3.78934e-07
3.79905e-07
3.80554e-07
3.80855e-07
3.80896e-07
3.80615e-07
3.79978e-07
3.7896e-07
3.7753e-07
3.75651e-07
3.73283e-07
3.70383e-07
3.66907e-07
3.6281e-07
3.58053e-07
3.526e-07
3.46419e-07
3.39487e-07
3.31791e-07
3.2333e-07
3.1411e-07
3.04141e-07
2.93445e-07
2.82043e-07
2.69964e-07
2.5724e-07
2.43904e-07
2.29994e-07
2.15558e-07
2.00651e-07
1.85347e-07
1.69738e-07
1.53938e-07
1.38087e-07
1.22344e-07
1.06882e-07
9.18805e-08
7.75109e-08
6.39291e-08
5.12654e-08
3.96215e-08
2.90753e-08
1.97012e-08
1.16063e-08
5.02259e-09
5.58772e-10
1.4407e-09
1.2946e-08
2.97639e-08
5.00521e-08
7.281e-08
9.73004e-08
1.22879e-07
1.48935e-07
1.74879e-07
2.0016e-07
2.24287e-07
2.46863e-07
2.67593e-07
2.86295e-07
3.02898e-07
3.17424e-07
3.29973e-07
3.40698e-07
3.49786e-07
3.57438e-07
3.63856e-07
3.69225e-07
3.73714e-07
3.77467e-07
3.80606e-07
3.83229e-07
3.85416e-07
3.87226e-07
3.88706e-07
3.89889e-07
3.90796e-07
3.91438e-07
3.9179e-07
3.91895e-07
3.9174e-07
3.91269e-07
3.9045e-07
3.89246e-07
3.87612e-07
3.85495e-07
3.82844e-07
3.79601e-07
3.75713e-07
3.7113e-07
3.65807e-07
3.59707e-07
3.52799e-07
3.45066e-07
3.36505e-07
3.27126e-07
3.16947e-07
3.05993e-07
2.94297e-07
2.81895e-07
2.68826e-07
2.55129e-07
2.40843e-07
2.26011e-07
2.10683e-07
1.9492e-07
1.78802e-07
1.62435e-07
1.45949e-07
1.29504e-07
1.13281e-07
9.74742e-08
8.22775e-08
6.78729e-08
5.44172e-08
4.20359e-08
3.08252e-08
2.08712e-08
1.22878e-08
5.31522e-09
5.91328e-10
1.50633e-09
1.35362e-08
3.11231e-08
5.23408e-08
7.61389e-08
1.01739e-07
1.28457e-07
1.55646e-07
1.82682e-07
2.08982e-07
2.3403e-07
2.57405e-07
2.78799e-07
2.98025e-07
3.1501e-07
3.29782e-07
3.42455e-07
3.53196e-07
3.62211e-07
3.6972e-07
3.75941e-07
3.81079e-07
3.85318e-07
3.88818e-07
3.91712e-07
3.94112e-07
3.96105e-07
3.97761e-07
3.99133e-07
4.00259e-07
4.01164e-07
4.0186e-07
4.0235e-07
4.02607e-07
4.02657e-07
4.02443e-07
4.01921e-07
4.01041e-07
3.99747e-07
3.97979e-07
3.95667e-07
3.92746e-07
3.89146e-07
3.84806e-07
3.79669e-07
3.7369e-07
3.66833e-07
3.59075e-07
3.50411e-07
3.40847e-07
3.30412e-07
3.1914e-07
3.07076e-07
2.9427e-07
2.80774e-07
2.66636e-07
2.51905e-07
2.36625e-07
2.20839e-07
2.04601e-07
1.87976e-07
1.71055e-07
1.53956e-07
1.36831e-07
1.19864e-07
1.03258e-07
8.72286e-08
7.19845e-08
5.77116e-08
4.45628e-08
3.26568e-08
2.20948e-08
1.29997e-08
5.62054e-09
6.25294e-10
1.5697e-09
1.41061e-08
3.24359e-08
5.45515e-08
7.93529e-08
1.0602e-07
1.3383e-07
1.62101e-07
1.90174e-07
2.17438e-07
2.43351e-07
2.67473e-07
2.89483e-07
3.09186e-07
3.26511e-07
3.41493e-07
3.54256e-07
3.64986e-07
3.73904e-07
3.8125e-07
3.87262e-07
3.92161e-07
3.9615e-07
3.99403e-07
4.02069e-07
4.04268e-07
4.06101e-07
4.07645e-07
4.08959e-07
4.10088e-07
4.11059e-07
4.11886e-07
4.12572e-07
4.13105e-07
4.13454e-07
4.13582e-07
4.1346e-07
4.13007e-07
4.1216e-07
4.10844e-07
4.08977e-07
4.06477e-07
4.03261e-07
3.9925e-07
3.94375e-07
3.88576e-07
3.81809e-07
3.74044e-07
3.65271e-07
3.55504e-07
3.44769e-07
3.33114e-07
3.20598e-07
3.07289e-07
2.93258e-07
2.78573e-07
2.63295e-07
2.47478e-07
2.31168e-07
2.14409e-07
1.97256e-07
1.79779e-07
1.6208e-07
1.44295e-07
1.26602e-07
1.0921e-07
9.23504e-08
7.62564e-08
6.11453e-08
4.72014e-08
3.45703e-08
2.33724e-08
1.3742e-08
5.9386e-09
6.60677e-10
1.63041e-09
1.46522e-08
3.36941e-08
5.66701e-08
8.24315e-08
1.10117e-07
1.38965e-07
1.68258e-07
1.97308e-07
2.25474e-07
2.52193e-07
2.77006e-07
2.9958e-07
3.19715e-07
3.3734e-07
3.52498e-07
3.65324e-07
3.76019e-07
3.84823e-07
3.91995e-07
3.97791e-07
4.02454e-07
4.06201e-07
4.09223e-07
4.11682e-07
4.13713e-07
4.15425e-07
4.16905e-07
4.18219e-07
4.19416e-07
4.20525e-07
4.21563e-07
4.2253e-07
4.2341e-07
4.24173e-07
4.24778e-07
4.25131e-07
4.25211e-07
4.24917e-07
4.24165e-07
4.22854e-07
4.20885e-07
4.18159e-07
4.1458e-07
4.1006e-07
4.04523e-07
3.97907e-07
3.90177e-07
3.81317e-07
3.71333e-07
3.60261e-07
3.48161e-07
3.35105e-07
3.21184e-07
3.06494e-07
2.91127e-07
2.75169e-07
2.58692e-07
2.41752e-07
2.24393e-07
2.06659e-07
1.88602e-07
1.703e-07
1.51869e-07
1.33469e-07
1.15308e-07
9.76251e-08
8.06771e-08
6.47121e-08
4.99491e-08
3.65649e-08
2.47036e-08
1.45147e-08
6.26929e-09
6.97464e-10
1.68808e-09
1.51711e-08
3.48898e-08
5.86834e-08
8.53556e-08
1.14003e-07
1.43829e-07
1.7408e-07
2.04039e-07
2.3304e-07
2.60501e-07
2.85947e-07
3.09033e-07
3.29555e-07
3.47443e-07
3.62746e-07
3.75611e-07
3.86255e-07
3.94935e-07
4.01929e-07
4.07512e-07
4.11946e-07
4.15467e-07
4.18281e-07
4.20565e-07
4.22465e-07
4.24102e-07
4.25571e-07
4.26945e-07
4.28276e-07
4.29598e-07
4.30926e-07
4.32258e-07
4.33575e-07
4.34839e-07
4.35999e-07
4.36983e-07
4.37711e-07
4.3804e-07
4.3797e-07
4.37327e-07
4.36004e-07
4.33883e-07
4.30847e-07
4.26787e-07
4.21609e-07
4.15236e-07
4.07614e-07
3.98712e-07
3.88534e-07
3.77117e-07
3.64525e-07
3.50852e-07
3.3621e-07
3.20724e-07
3.04523e-07
2.87724e-07
2.70428e-07
2.52713e-07
2.34634e-07
2.1623e-07
1.97537e-07
1.78608e-07
1.59529e-07
1.40437e-07
1.21524e-07
1.03032e-07
8.52321e-08
6.84035e-08
5.28013e-08
3.86383e-08
2.60874e-08
1.53172e-08
6.61232e-09
7.35624e-10
1.74236e-09
1.56595e-08
3.60157e-08
6.05791e-08
8.81073e-08
1.17657e-07
1.48392e-07
1.7953e-07
2.10326e-07
2.40093e-07
2.68229e-07
2.94246e-07
3.17792e-07
3.38657e-07
3.56773e-07
3.72195e-07
3.85081e-07
3.95662e-07
4.04215e-07
4.11034e-07
4.16415e-07
4.20637e-07
4.23954e-07
4.26589e-07
4.28732e-07
4.30544e-07
4.32155e-07
4.33668e-07
4.35162e-07
4.36694e-07
4.38298e-07
4.39991e-07
4.41768e-07
4.43605e-07
4.45459e-07
4.4727e-07
4.48958e-07
4.50433e-07
4.51586e-07
4.52238e-07
4.52367e-07
4.51808e-07
4.50413e-07
4.48044e-07
4.44568e-07
4.39869e-07
4.33848e-07
4.2643e-07
4.17571e-07
4.07257e-07
3.95516e-07
3.82421e-07
3.68076e-07
3.5262e-07
3.36209e-07
3.19012e-07
3.0119e-07
2.82887e-07
2.64216e-07
2.45254e-07
2.26048e-07
2.06625e-07
1.87013e-07
1.67265e-07
1.47484e-07
1.27834e-07
1.08547e-07