/*--------------------------------*- C++ -*----------------------------------*\
  =========                 |
  \\      /  F ield         | OpenFOAM: The Open Source CFD Toolbox
   \\    /   O peration     | Website:  https://openfoam.org
    \\  /    A nd           | Version:  12
     \\/     M anipulation  |
\*---------------------------------------------------------------------------*/
FoamFile
{
    format      ascii;
    class       volScalarField;
    location    "3.5";
    object      nut;
}
// * * * * * * * * * * * * * * * * * * * * * * * * * * * * * * * * * * * * * //

dimensions      [0 2 -1 0 0 0 0];

internalField   nonuniform List<scalar> 
5625
(
1.48132e-16
7.39541e-16
1.61387e-15
2.65508e-15
3.80818e-15
5.03828e-15
6.31919e-15
7.62974e-15
8.95221e-15
1.02717e-14
1.15755e-14
1.28535e-14
1.40972e-14
1.53003e-14
1.64584e-14
1.75687e-14
1.86301e-14
1.96424e-14
2.06069e-14
2.15254e-14
2.24001e-14
2.32336e-14
2.40282e-14
2.4786e-14
2.55084e-14
2.61963e-14
2.68499e-14
2.74685e-14
2.80505e-14
2.85937e-14
2.9095e-14
2.95508e-14
2.99567e-14
3.0308e-14
3.05997e-14
3.08265e-14
3.09829e-14
3.10624e-14
3.1065e-14
3.09838e-14
3.08146e-14
3.05542e-14
3.02003e-14
2.97517e-14
2.92086e-14
2.85719e-14
2.78443e-14
2.70293e-14
2.61319e-14
2.51585e-14
2.41162e-14
2.30133e-14
2.18589e-14
2.06626e-14
1.94345e-14
1.81848e-14
1.69235e-14
1.56605e-14
1.44051e-14
1.31658e-14
1.19504e-14
1.07656e-14
9.61718e-15
8.51e-15
7.44787e-15
6.43383e-15
5.4704e-15
4.55946e-15
3.70305e-15
2.90374e-15
2.16537e-15
1.49426e-15
9.01875e-16
4.11631e-16
8.23706e-17
7.4044e-16
6.71825e-14
2.27321e-13
4.18069e-13
6.23882e-13
8.40067e-13
1.06317e-12
1.29014e-12
1.51827e-12
1.74518e-12
1.96887e-12
2.18764e-12
2.40016e-12
2.6054e-12
2.80266e-12
2.99151e-12
3.17179e-12
3.34358e-12
3.5071e-12
3.66272e-12
3.81088e-12
3.95203e-12
4.08664e-12
4.21506e-12
4.33761e-12
4.45444e-12
4.56561e-12
4.671e-12
4.77037e-12
4.86334e-12
4.94939e-12
5.02787e-12
5.09807e-12
5.15915e-12
5.21024e-12
5.25041e-12
5.27871e-12
5.29366e-12
5.29539e-12
5.28274e-12
5.25502e-12
5.21165e-12
5.15222e-12
5.07651e-12
4.98447e-12
4.8763e-12
4.75238e-12
4.61335e-12
4.46005e-12
4.29356e-12
4.11512e-12
3.92617e-12
3.7283e-12
3.52317e-12
3.31255e-12
3.09822e-12
2.88193e-12
2.6654e-12
2.45023e-12
2.23792e-12
2.02979e-12
1.82701e-12
1.63056e-12
1.44123e-12
1.25965e-12
1.08628e-12
9.21417e-13
7.65376e-13
6.18365e-13
4.80585e-13
3.52298e-13
2.33917e-13
1.26534e-13
3.73411e-14
4.11368e-16
1.62386e-15
2.27941e-13
1.15007e-12
2.57598e-12
4.2127e-12
5.93838e-12
7.7049e-12
9.48565e-12
1.1261e-11
1.30149e-11
1.47335e-11
1.64056e-11
1.80221e-11
1.95767e-11
2.10648e-11
2.24845e-11
2.38354e-11
2.51189e-11
2.63378e-11
2.74956e-11
2.85964e-11
2.96445e-11
3.06438e-11
3.15976e-11
3.25088e-11
3.33788e-11
3.42083e-11
3.49968e-11
3.57425e-11
3.64425e-11
3.70929e-11
3.7689e-11
3.82251e-11
3.86948e-11
3.90913e-11
3.94073e-11
3.96361e-11
3.97635e-11
3.97954e-11
3.97191e-11
3.95288e-11
3.92194e-11
3.87875e-11
3.82307e-11
3.75485e-11
3.67417e-11
3.58131e-11
3.47672e-11
3.36105e-11
3.2351e-11
3.09984e-11
2.9564e-11
2.806e-11
2.64996e-11
2.48967e-11
2.32652e-11
2.1619e-11
1.99715e-11
1.83352e-11
1.67217e-11
1.51412e-11
1.36025e-11
1.21128e-11
1.06776e-11
9.30117e-12
7.98604e-12
6.73355e-12
5.54416e-12
4.41753e-12
3.35334e-12
2.35359e-12
1.43081e-12
6.37884e-13
1.26416e-13
8.98858e-16
2.6944e-15
4.22142e-13
2.58751e-12
6.82058e-12
1.23715e-11
1.85496e-11
2.49752e-11
3.14551e-11
3.78812e-11
4.4184e-11
5.03136e-11
5.62333e-11
6.19165e-11
6.73453e-11
7.25104e-11
7.74095e-11
8.20473e-11
8.64335e-11
9.05823e-11
9.45107e-11
9.82366e-11
1.01778e-10
1.05153e-10
1.08374e-10
1.11454e-10
1.14399e-10
1.17214e-10
1.19897e-10
1.22443e-10
1.24843e-10
1.27083e-10
1.29147e-10
1.31013e-10
1.32661e-10
1.34065e-10
1.35199e-10
1.36042e-10
1.36531e-10
1.36704e-10
1.36504e-10
1.35908e-10
1.349e-10
1.33463e-10
1.31588e-10
1.29272e-10
1.26517e-10
1.2333e-10
1.19728e-10
1.15732e-10
1.1137e-10
1.06677e-10
1.01692e-10
9.64596e-11
9.10269e-11
8.54435e-11
7.97594e-11
7.40243e-11
6.82859e-11
6.2589e-11
5.6974e-11
5.14765e-11
4.61263e-11
4.09474e-11
3.59573e-11
3.11675e-11
2.65838e-11
2.22074e-11
1.80367e-11
1.40711e-11
1.03216e-11
6.83664e-12
3.76268e-12
1.42881e-12
2.32867e-13
1.48181e-15
3.91167e-15
6.37167e-13
4.27043e-12
1.2465e-11
2.45856e-11
3.91238e-11
5.48296e-11
7.09147e-11
8.69179e-11
1.02567e-10
1.17696e-10
1.32202e-10
1.46021e-10
1.59119e-10
1.71486e-10
1.83133e-10
1.94085e-10
2.04381e-10
2.14067e-10
2.23198e-10
2.31828e-10
2.40009e-10
2.4779e-10
2.55212e-10
2.62309e-10
2.69101e-10
2.75601e-10
2.81808e-10
2.87711e-10
2.93289e-10
2.98511e-10
3.03335e-10
3.07713e-10
3.11592e-10
3.1491e-10
3.17603e-10
3.19627e-10
3.20806e-10
3.21256e-10
3.20827e-10
3.19462e-10
3.17117e-10
3.13754e-10
3.0935e-10
3.03895e-10
2.9739e-10
2.89858e-10
2.81332e-10
2.71865e-10
2.61525e-10
2.50394e-10
2.38566e-10
2.26148e-10
2.13253e-10
2.00001e-10
1.86509e-10
1.72899e-10
1.59282e-10
1.45765e-10
1.32443e-10
1.19399e-10
1.06702e-10
9.44035e-11
8.25422e-11
7.11405e-11
6.02087e-11
4.97491e-11
3.97667e-11
3.02918e-11
2.14258e-11
1.34268e-11
6.81764e-12
2.33983e-12
3.48415e-13
2.13137e-15
5.2566e-15
8.71278e-13
6.10562e-12
1.89265e-11
3.95903e-11
6.61174e-11
9.60665e-11
1.27488e-10
1.59087e-10
1.90066e-10
2.19937e-10
2.48421e-10
2.75367e-10
3.00711e-10
3.24454e-10
3.46638e-10
3.67344e-10
3.86674e-10
4.04747e-10
4.21688e-10
4.37626e-10
4.52679e-10
4.66956e-10
4.80547e-10
4.93525e-10
5.05937e-10
5.17811e-10
5.2915e-10
5.39935e-10
5.50124e-10
5.59659e-10
5.68461e-10
5.76439e-10
5.83487e-10
5.8949e-10
5.94325e-10
5.97899e-10
5.99893e-10
6.00526e-10
5.99503e-10
5.96724e-10
5.92107e-10
5.85585e-10
5.77117e-10
5.66686e-10
5.54303e-10
5.40006e-10
5.23866e-10
5.05982e-10
4.86482e-10
4.65521e-10
4.43278e-10
4.19948e-10
3.95743e-10
3.70883e-10
3.45587e-10
3.20076e-10
2.94556e-10
2.69221e-10
2.44243e-10
2.19772e-10
1.9593e-10
1.72809e-10
1.50476e-10
1.28969e-10
1.08312e-10
8.85286e-11
6.9674e-11
5.1898e-11
3.55487e-11
2.13082e-11
1.02269e-11
3.30693e-12
4.70801e-13
2.83009e-15
6.71905e-15
1.12393e-12
8.0716e-12
2.59443e-11
5.6452e-11
9.77232e-11
1.46209e-10
1.98434e-10
2.51723e-10
3.04261e-10
3.54924e-10
4.03068e-10
4.48358e-10
4.90667e-10
5.30005e-10
5.66479e-10
6.00264e-10
6.31573e-10
6.60647e-10
6.87733e-10
7.13075e-10
7.36896e-10
7.59398e-10
7.80747e-10
8.01072e-10
8.20463e-10
8.38966e-10
8.56591e-10
8.73306e-10
8.89043e-10
9.03705e-10
9.17165e-10
9.2927e-10
9.39851e-10
9.48723e-10
9.55692e-10
9.60557e-10
9.62975e-10
9.63167e-10
9.60691e-10
9.55399e-10
9.47169e-10
9.35913e-10
9.21579e-10
9.04152e-10
8.83662e-10
8.60183e-10
8.33836e-10
8.04785e-10
7.73239e-10
7.39445e-10
7.03682e-10
6.66259e-10
6.27502e-10
5.8775e-10
5.47342e-10
5.06612e-10
4.65878e-10
4.25431e-10
3.85534e-10
3.46411e-10
3.08245e-10
2.71176e-10
2.35305e-10
2.00699e-10
1.67418e-10
1.35546e-10
1.05263e-10
7.69614e-11
5.14019e-11
2.98303e-11
1.3795e-11
4.30629e-12
5.98468e-13
3.56557e-15
8.29337e-15
1.39481e-12
1.01657e-11
3.34301e-11
7.4694e-11
1.32692e-10
2.03042e-10
2.80584e-10
3.6086e-10
4.40604e-10
5.17683e-10
5.90811e-10
6.59315e-10
7.22934e-10
7.81681e-10
8.3575e-10
8.85452e-10
9.31168e-10
9.73313e-10
1.01231e-09
1.04856e-09
1.08245e-09
1.11428e-09
1.14434e-09
1.17283e-09
1.19988e-09
1.22557e-09
1.24991e-09
1.27286e-09
1.29431e-09
1.31413e-09
1.33211e-09
1.34806e-09
1.36171e-09
1.37282e-09
1.38112e-09
1.38617e-09
1.38796e-09
1.38641e-09
1.38102e-09
1.37159e-09
1.35798e-09
1.34011e-09
1.31793e-09
1.29145e-09
1.26073e-09
1.22591e-09
1.18717e-09
1.14475e-09
1.09897e-09
1.05016e-09
9.98714e-10
9.45063e-10
8.89647e-10
8.32925e-10
7.75351e-10
7.17372e-10
6.5941e-10
6.01853e-10
5.45046e-10
4.89286e-10
4.34813e-10
3.81816e-10
3.30435e-10
2.80781e-10
2.32975e-10
1.87211e-10
1.43878e-10
1.03716e-10
6.80061e-11
3.85957e-11
1.74268e-11
5.32596e-12
7.30103e-13
4.32843e-15
9.97633e-15
1.68377e-12
1.23894e-11
4.13631e-11
9.41226e-11
1.70332e-10
2.6507e-10
3.7148e-10
4.83051e-10
5.94674e-10
7.02836e-10
8.05364e-10
9.01089e-10
9.89543e-10
1.07072e-09
1.14493e-09
1.21265e-09
1.27448e-09
1.33107e-09
1.38306e-09
1.43106e-09
1.47562e-09
1.51723e-09
1.55627e-09
1.59304e-09
1.62773e-09
1.66044e-09
1.6912e-09
1.71994e-09
1.74652e-09
1.77074e-09
1.79236e-09
1.81109e-09
1.82661e-09
1.83861e-09
1.84675e-09
1.85027e-09
1.8497e-09
1.84471e-09
1.83447e-09
1.81894e-09
1.79799e-09
1.77153e-09
1.73956e-09
1.70214e-09
1.65939e-09
1.61151e-09
1.55876e-09
1.50149e-09
1.4401e-09
1.37502e-09
1.30677e-09
1.23587e-09
1.16287e-09
1.08834e-09
1.01283e-09
9.36882e-10
8.61006e-10
7.8567e-10
7.11285e-10
6.38207e-10
5.66723e-10
4.97063e-10
4.29406e-10
3.63918e-10
3.00802e-10
2.40405e-10
1.83375e-10
1.30869e-10
8.47279e-11
4.73811e-11
2.1072e-11
6.35802e-12
8.6463e-13
5.11147e-15
1.17659e-14
1.99071e-12
1.47449e-11
4.97464e-11
1.14672e-10
2.10317e-10
3.31426e-10
4.69471e-10
6.15706e-10
7.62893e-10
9.05843e-10
1.04126e-09
1.16734e-09
1.28332e-09
1.38916e-09
1.4853e-09
1.57242e-09
1.65139e-09
1.72313e-09
1.78854e-09
1.84848e-09
1.90372e-09
1.95491e-09
2.00257e-09
2.0471e-09
2.08876e-09
2.12768e-09
2.16389e-09
2.1973e-09
2.22773e-09
2.25495e-09
2.27865e-09
2.29848e-09
2.31407e-09
2.32505e-09
2.33103e-09
2.33092e-09
2.32583e-09
2.31549e-09
2.29836e-09
2.27472e-09
2.24448e-09
2.20762e-09
2.16418e-09
2.11428e-09
2.05813e-09
1.99602e-09
1.92829e-09
1.85537e-09
1.77775e-09
1.69599e-09
1.61067e-09
1.52241e-09
1.43186e-09
1.33966e-09
1.24644e-09
1.15283e-09
1.05939e-09
9.66646e-10
8.75059e-10
7.85022e-10
6.96857e-10
6.10822e-10
5.27133e-10
4.46007e-10
3.67742e-10
2.92854e-10
2.22272e-10
1.57585e-10
1.01189e-10
5.60613e-11
2.4702e-11
7.39667e-12
1.00121e-12
5.90925e-15
1.36607e-14
2.31551e-12
1.72336e-11
5.85874e-11
1.3633e-10
2.52512e-10
4.01651e-10
5.73549e-10
7.57091e-10
9.42684e-10
1.12324e-09
1.29415e-09
1.45285e-09
1.59823e-09
1.73021e-09
1.84934e-09
1.95658e-09
2.05307e-09
2.14006e-09
2.21875e-09
2.29027e-09
2.35563e-09
2.41568e-09
2.47108e-09
2.52235e-09
2.5698e-09
2.6136e-09
2.6538e-09
2.69028e-09
2.72284e-09
2.75121e-09
2.77504e-09
2.79393e-09
2.80749e-09
2.81529e-09
2.81693e-09
2.81096e-09
2.79928e-09
2.78153e-09
2.7557e-09
2.72211e-09
2.68092e-09
2.63216e-09
2.57595e-09
2.51251e-09
2.44211e-09
2.36512e-09
2.28198e-09
2.19321e-09
2.09938e-09
2.00112e-09
1.8991e-09
1.79402e-09
1.68658e-09
1.5775e-09
1.46746e-09
1.35714e-09
1.24713e-09
1.13801e-09
1.03026e-09
9.24291e-10
8.20452e-10
7.19015e-10
6.20221e-10
5.24333e-10
4.31737e-10
3.4311e-10
2.59656e-10
1.83372e-10
1.17174e-10
6.45668e-11
2.82994e-11
8.43781e-12
1.13923e-12
6.71795e-15
1.56589e-14
2.65801e-12
1.9856e-11
6.78915e-11
1.59098e-10
2.96873e-10
4.75498e-10
6.83109e-10
9.06076e-10
1.13227e-09
1.35253e-09
1.5608e-09
1.75365e-09
1.92961e-09
2.08853e-09
2.23111e-09
2.3586e-09
2.47246e-09
2.5743e-09
2.66565e-09
2.74795e-09
2.82246e-09
2.89023e-09
2.95209e-09
3.00867e-09
3.06037e-09
3.1074e-09
3.1498e-09
3.18746e-09
3.22018e-09
3.24764e-09
3.26947e-09
3.28528e-09
3.29463e-09
3.29712e-09
3.2922e-09
3.27832e-09
3.25844e-09
3.23104e-09
3.19521e-09
3.15017e-09
3.09674e-09
3.03501e-09
2.9652e-09
2.88759e-09
2.80255e-09
2.71052e-09
2.61203e-09
2.50766e-09
2.39806e-09
2.28393e-09
2.166e-09
2.04501e-09
1.92173e-09
1.7969e-09
1.67126e-09
1.54549e-09
1.42025e-09
1.2961e-09
1.17355e-09
1.05303e-09
9.34872e-10
8.19366e-10
7.06766e-10
5.97368e-10
4.91631e-10
3.9037e-10
2.95028e-10
2.07968e-10
1.32575e-10
7.28622e-11
3.18546e-11
9.47892e-12
1.2783e-12
7.53515e-15
1.77588e-14
3.01796e-12
2.26114e-11
7.76599e-11
1.82978e-10
3.43362e-10
5.5282e-10
7.97763e-10
1.0619e-09
1.3304e-09
1.5919e-09
1.8388e-09
2.06677e-09
2.27392e-09
2.46004e-09
2.62603e-09
2.77342e-09
2.90408e-09
3.01996e-09
3.12298e-09
3.2149e-09
3.29725e-09
3.37131e-09
3.43808e-09
3.49831e-09
3.55249e-09
3.60087e-09
3.64353e-09
3.68037e-09
3.71117e-09
3.73563e-09
3.75337e-09
3.764e-09
3.76713e-09
3.76236e-09
3.74872e-09
3.72554e-09
3.69584e-09
3.65719e-09
3.61017e-09
3.55271e-09
3.48618e-09
3.41086e-09
3.32703e-09
3.23506e-09
3.13539e-09
3.02854e-09
2.9151e-09
2.79572e-09
2.6711e-09
2.54198e-09
2.40914e-09
2.27336e-09
2.13544e-09
1.99615e-09
1.85624e-09
1.71642e-09
1.57736e-09
1.43963e-09
1.30373e-09
1.17011e-09
1.03909e-09
9.10967e-10
7.85991e-10
6.64479e-10
5.46941e-10
4.34297e-10
3.28181e-10
2.31265e-10
1.47349e-10
8.09346e-11
3.5364e-11
1.05189e-11
1.41823e-12
8.35981e-15
1.99576e-14
3.39494e-12
2.54975e-11
8.78879e-11
2.07959e-10
3.91936e-10
6.33491e-10
9.17209e-10
1.22397e-09
1.53613e-09
1.83999e-09
2.12635e-09
2.38992e-09
2.62841e-09
2.84158e-09
3.03053e-09
3.19713e-09
3.34366e-09
3.47248e-09
3.58589e-09
3.68602e-09
3.77468e-09
3.85339e-09
3.92334e-09
3.98542e-09
4.04019e-09
4.08799e-09
4.12893e-09
4.16294e-09
4.18982e-09
4.20929e-09
4.22099e-09
4.22457e-09
4.21965e-09
4.2059e-09
4.18186e-09
4.14848e-09
4.10754e-09
4.05672e-09
3.99714e-09
3.9271e-09
3.847e-09
3.75784e-09
3.65996e-09
3.55379e-09
3.43984e-09
3.31868e-09
3.19095e-09
3.05735e-09
2.91862e-09
2.77554e-09
2.6289e-09
2.47951e-09
2.32818e-09
2.1757e-09
2.02285e-09
1.87033e-09
1.7188e-09
1.56886e-09
1.42101e-09
1.27568e-09
1.1332e-09
9.93853e-10
8.57892e-10
7.2564e-10
5.97634e-10
4.74863e-10
3.591e-10
2.5326e-10
1.61499e-10
8.87873e-11
3.88293e-11
1.15581e-11
1.55905e-12
9.19208e-15
2.22517e-14
3.78838e-12
2.85104e-11
9.85635e-11
2.34013e-10
4.42527e-10
7.17366e-10
1.04115e-09
1.39178e-09
1.74866e-09
2.09566e-09
2.42193e-09
2.72124e-09
2.99088e-09
3.23061e-09
3.44177e-09
3.62661e-09
3.78782e-09
3.92824e-09
4.05059e-09
4.15733e-09
4.25063e-09
4.33224e-09
4.40356e-09
4.46562e-09
4.5191e-09
4.56442e-09
4.60173e-09
4.63102e-09
4.65214e-09
4.66483e-09
4.66879e-09
4.66371e-09
4.64926e-09
4.62517e-09
4.58949e-09
4.54522e-09
4.49211e-09
4.42862e-09
4.35578e-09
4.2731e-09
4.17937e-09
4.0765e-09
3.96485e-09
3.84493e-09
3.71728e-09
3.58252e-09
3.44133e-09
3.29443e-09
3.14258e-09
2.98659e-09
2.82725e-09
2.6654e-09
2.50184e-09
2.33738e-09
2.17278e-09
2.00877e-09
1.846e-09
1.68507e-09
1.52649e-09
1.37068e-09
1.21798e-09
1.06866e-09
9.22969e-10
7.81227e-10
6.43979e-10
5.12249e-10
3.87898e-10
2.74018e-10
1.7506e-10
9.64363e-11
4.22568e-11
1.25983e-11
1.70097e-12
1.00331e-14
2.46365e-14
4.19751e-12
3.16446e-11
1.09668e-10
2.61093e-10
4.95037e-10
8.04253e-10
1.16926e-09
1.5648e-09
1.96721e-09
2.35787e-09
2.72424e-09
3.05913e-09
3.35946e-09
3.62501e-09
3.8574e-09
4.05929e-09
4.23384e-09
4.38437e-09
4.51404e-09
4.62573e-09
4.72191e-09
4.80464e-09
4.87552e-09
4.93573e-09
4.9861e-09
5.02713e-09
5.05906e-09
5.08194e-09
5.09568e-09
5.10008e-09
5.09491e-09
5.07992e-09
5.05489e-09
5.01929e-09
4.97132e-09
4.91579e-09
4.85005e-09
4.77366e-09
4.68737e-09
4.59216e-09
4.48518e-09
4.369e-09
4.24414e-09
4.11112e-09
3.97052e-09
3.823e-09
3.66924e-09
3.50999e-09
3.34602e-09
3.17813e-09
3.00715e-09
2.83388e-09
2.65914e-09
2.48374e-09
2.30844e-09
2.13397e-09
1.96098e-09
1.79009e-09
1.62179e-09
1.45653e-09
1.29464e-09
1.13638e-09
9.8202e-10
8.31854e-10
6.86427e-10
5.46766e-10
4.14772e-10
2.93652e-10
1.8809e-10
1.03907e-10
4.56565e-11
1.36422e-11
1.84437e-12
1.0885e-14
2.71063e-14
4.62132e-12
3.48925e-11
1.21174e-10
2.89133e-10
5.49328e-10
8.93909e-10
1.30113e-09
1.74245e-09
2.19098e-09
2.62559e-09
3.032e-09
3.40211e-09
3.73247e-09
4.02292e-09
4.27539e-09
4.493e-09
4.67942e-09
4.83847e-09
4.97381e-09
5.08872e-09
5.18605e-09
5.26813e-09
5.33681e-09
5.39345e-09
5.43903e-09
5.47415e-09
5.49916e-09
5.51419e-09
5.51921e-09
5.51413e-09
5.49878e-09
5.47302e-09
5.43671e-09
5.38856e-09
5.32881e-09
5.26145e-09
5.18308e-09
5.094e-09
4.99459e-09
4.88665e-09
4.76753e-09
4.63864e-09
4.50127e-09
4.35594e-09
4.20324e-09
4.04384e-09
3.87842e-09
3.70775e-09
3.53258e-09
3.35373e-09
3.17201e-09
2.98823e-09
2.8032e-09
2.61773e-09
2.43257e-09
2.24846e-09
2.06607e-09
1.886e-09
1.70878e-09
1.53486e-09
1.36457e-09
1.1982e-09
1.036e-09
8.78274e-10
7.25536e-10
5.78801e-10
4.39968e-10
3.12304e-10
2.00664e-10
1.11234e-10
4.90412e-11
1.46938e-11
1.98977e-12
1.17508e-14
2.96538e-14
5.0586e-12
3.82445e-11
1.33048e-10
3.18044e-10
6.05223e-10
9.86027e-10
1.43631e-09
1.92406e-09
2.41912e-09
2.89775e-09
3.34398e-09
3.74876e-09
4.10833e-09
4.42262e-09
4.69392e-09
4.92583e-09
5.12258e-09
5.28855e-09
5.42788e-09
5.54432e-09
5.6411e-09
5.72087e-09
5.78571e-09
5.83722e-09
5.87651e-09
5.90433e-09
5.92113e-09
5.92715e-09
5.92246e-09
5.90705e-09
5.88084e-09
5.84376e-09
5.79574e-09
5.73482e-09
5.66411e-09
5.58456e-09
5.4939e-09
5.39252e-09
5.28083e-09
5.16049e-09
5.03019e-09
4.88939e-09
4.74036e-09
4.58359e-09
4.41968e-09
4.24926e-09
4.07305e-09
3.89179e-09
3.70624e-09
3.51721e-09
3.32549e-09
3.13192e-09
2.93728e-09
2.74239e-09
2.548e-09
2.35486e-09
2.16364e-09
1.97497e-09
1.78939e-09
1.60736e-09
1.42926e-09
1.25537e-09
1.08595e-09
9.21294e-10
7.61914e-10
6.08783e-10
4.63765e-10
3.30134e-10
2.12864e-10
1.18454e-10
5.24263e-11
1.57574e-11
2.13778e-12
1.26341e-14
3.22707e-14
5.50789e-12
4.16892e-11
1.45246e-10
3.47719e-10
6.62505e-10
1.08024e-09
1.57423e-09
2.1089e-09
2.65069e-09
3.17325e-09
3.65889e-09
4.09765e-09
4.4855e-09
4.82249e-09
5.1113e-09
5.35606e-09
5.56161e-09
5.73289e-09
5.87459e-09
5.99095e-09
6.08559e-09
6.1615e-09
6.22105e-09
6.26604e-09
6.29779e-09
6.31717e-09
6.32479e-09
6.32098e-09
6.30592e-09
6.27971e-09
6.24236e-09
6.19388e-09
6.13397e-09
6.06074e-09
5.97967e-09
5.88831e-09
5.78598e-09
5.67308e-09
5.55e-09
5.41797e-09
5.27742e-09
5.12575e-09
4.96598e-09
4.79867e-09
4.62439e-09
4.44377e-09
4.25751e-09
4.06636e-09
3.87107e-09
3.67244e-09
3.47128e-09
3.2684e-09
3.06462e-09
2.86073e-09
2.65752e-09
2.45572e-09
2.25604e-09
2.05911e-09
1.86551e-09
1.67572e-09
1.49015e-09
1.3091e-09
1.13286e-09
9.61728e-10
7.9618e-10
6.37151e-10
4.8645e-10
3.47313e-10
2.24782e-10
1.25608e-10
5.58285e-11
1.68382e-11
2.2891e-12
1.35391e-14
3.49472e-14
5.96749e-12
4.52131e-11
1.57718e-10
3.78028e-10
7.20918e-10
1.17612e-09
1.71428e-09
2.29613e-09
2.88466e-09
3.45089e-09
3.9754e-09
4.44737e-09
4.86248e-09
5.22098e-09
5.52596e-09
5.78214e-09
5.99498e-09
6.17003e-09
6.31257e-09
6.42734e-09
6.51839e-09
6.58909e-09
6.64209e-09
6.67945e-09
6.70265e-09
6.71278e-09
6.71055e-09
6.69643e-09
6.67072e-09
6.63361e-09
6.58523e-09
6.52569e-09
6.4537e-09
6.36989e-09
6.27867e-09
6.17637e-09
6.06335e-09
5.93997e-09
5.80663e-09
5.66389e-09
5.51361e-09
5.35263e-09
5.18301e-09
5.006e-09
4.82212e-09
4.63198e-09
4.43628e-09
4.23574e-09
4.03113e-09
3.82327e-09
3.61297e-09
3.40105e-09
3.18833e-09
2.97564e-09
2.76377e-09
2.55346e-09
2.34545e-09
2.1404e-09
1.93891e-09
1.7415e-09
1.54861e-09
1.36058e-09
1.17773e-09
1.00036e-09
8.28931e-10
6.64337e-10
5.08309e-10
3.64011e-10
2.36507e-10
1.3274e-10
5.9265e-11
1.79415e-11
2.44446e-12
1.44703e-14
3.76723e-14
6.43546e-12
4.88005e-11
1.70407e-10
4.08826e-10
7.80169e-10
1.27319e-09
1.85575e-09
2.48483e-09
3.11994e-09
3.72941e-09
4.29215e-09
4.79645e-09
5.23778e-09
5.61659e-09
5.93643e-09
6.20264e-09
6.42133e-09
6.59872e-09
6.7407e-09
6.85253e-09
6.93874e-09
7.00307e-09
7.04851e-09
7.07736e-09
7.09134e-09
7.09169e-09
7.07929e-09
7.05475e-09
7.01848e-09
6.97075e-09
6.91177e-09
6.84166e-09
6.75845e-09
6.66596e-09
6.56486e-09
6.45285e-09
6.33036e-09
6.19773e-09
6.05531e-09
5.90345e-09
5.74386e-09
5.57503e-09
5.39646e-09
5.21054e-09
5.01772e-09
4.81859e-09
4.61384e-09
4.40421e-09
4.19048e-09
3.97348e-09
3.75407e-09
3.53309e-09
3.31139e-09
3.08982e-09
2.8692e-09
2.6503e-09
2.43388e-09
2.22063e-09
2.01119e-09
1.80611e-09
1.60587e-09
1.41087e-09
1.22144e-09
1.03791e-09
8.60729e-10
6.90749e-10
5.29614e-10
3.80392e-10
2.48129e-10
1.39889e-10
6.2753e-11
1.90725e-11
2.60464e-12
1.54322e-14
4.04337e-14
6.90967e-12
5.24344e-11
1.83248e-10
4.39945e-10
8.39932e-10
1.37091e-09
1.99788e-09
2.67402e-09
3.35534e-09
4.0075e-09
4.60771e-09
5.14343e-09
5.60992e-09
6.00785e-09
6.34129e-09
6.61622e-09
6.83945e-09
7.01789e-09
7.15806e-09
7.2658e-09
7.34613e-09
7.40319e-09
7.44032e-09
7.46009e-09
7.46445e-09
7.45485e-09
7.43232e-09
7.39761e-09
7.35123e-09
7.29358e-09
7.22493e-09
7.14487e-09
7.05206e-09
6.95226e-09
6.84247e-09
6.72218e-09
6.59169e-09
6.45125e-09
6.30113e-09
6.14157e-09
5.97359e-09
5.79789e-09
5.61145e-09
5.41732e-09
5.21608e-09
5.00831e-09
4.7947e-09
4.57601e-09
4.35308e-09
4.12677e-09
3.89798e-09
3.66762e-09
3.4366e-09
3.20581e-09
2.97609e-09
2.74828e-09
2.52314e-09
2.30142e-09
2.08378e-09
1.87081e-09
1.66305e-09
1.46091e-09
1.26479e-09
1.07502e-09
8.92081e-10
7.16759e-10
5.50618e-10
3.96609e-10
2.59728e-10
1.47094e-10
6.63085e-11
2.02365e-11
2.77039e-12
1.64296e-14
4.3218e-14
7.38775e-12
5.60955e-11
1.96169e-10
4.71206e-10
8.9985e-10
1.46869e-09
2.13984e-09
2.86266e-09
3.58964e-09
4.28379e-09
4.92065e-09
5.48684e-09
5.97744e-09
6.39338e-09
6.73924e-09
7.0217e-09
7.24829e-09
7.42664e-09
7.56396e-09
7.66667e-09
7.74031e-09
7.78945e-09
7.8178e-09
7.82822e-09
7.82292e-09
7.80352e-09
7.77125e-09
7.72697e-09
7.67132e-09
7.60477e-09
7.52766e-09
7.43864e-09
7.33891e-09
7.23254e-09
7.11581e-09
6.98895e-09
6.85214e-09
6.70552e-09
6.54924e-09
6.38347e-09
6.20846e-09
6.02578e-09
5.83326e-09
5.63144e-09
5.42214e-09
5.20588e-09
4.98337e-09
4.75541e-09
4.52289e-09
4.28678e-09
4.04804e-09
3.80769e-09
3.56669e-09
3.32602e-09
3.08659e-09
2.84927e-09
2.61489e-09
2.38422e-09
2.15795e-09
1.93672e-09
1.72108e-09
1.51152e-09
1.30846e-09
1.11227e-09
9.23432e-10
7.42699e-10
5.71549e-10
4.12803e-10
2.71376e-10
1.54388e-10
6.99459e-11
2.14382e-11
2.94241e-12
1.74667e-14
4.60106e-14
7.86715e-12
5.97635e-11
2.09093e-10
5.02412e-10
9.59543e-10
1.56592e-09
2.28077e-09
3.04964e-09
3.82155e-09
4.55688e-09
5.2295e-09
5.8252e-09
6.3389e-09
6.7718e-09
7.12903e-09
7.41797e-09
7.64691e-09
7.82425e-09
7.95788e-09
8.05486e-09
8.12125e-09
8.16212e-09
8.18151e-09
8.18262e-09
8.16791e-09
8.13922e-09
8.09793e-09
8.04504e-09
7.98129e-09
7.90718e-09
7.82306e-09
7.727e-09
7.62268e-09
7.51098e-09
7.3893e-09
7.25781e-09
7.11656e-09
6.96553e-09
6.80471e-09
6.63411e-09
6.45377e-09
6.26453e-09
6.06678e-09
5.85796e-09
5.64085e-09
5.41608e-09
5.1844e-09
4.94668e-09
4.70393e-09
4.4572e-09
4.20762e-09
3.95629e-09
3.70434e-09
3.45282e-09
3.20274e-09
2.95507e-09
2.71067e-09
2.47034e-09
2.23482e-09
2.00478e-09
1.78081e-09
1.56341e-09
1.35305e-09
1.15015e-09
9.55166e-10
7.68855e-10
5.92604e-10
4.291e-10
2.83132e-10
1.61799e-10
7.36775e-11
2.26818e-11
3.12136e-12
1.85477e-14
4.87963e-14
8.3452e-12
6.34167e-11
2.21939e-10
5.33358e-10
1.01861e-09
1.66196e-09
2.41977e-09
3.23384e-09
4.04978e-09
4.82537e-09
5.5328e-09
6.15707e-09
6.69292e-09
7.14182e-09
7.5095e-09
7.80404e-09
8.03453e-09
8.21013e-09
8.33947e-09
8.43026e-09
8.48914e-09
8.52162e-09
8.53218e-09
8.52433e-09
8.50079e-09
8.46363e-09
8.41439e-09
8.35418e-09
8.28384e-09
8.2039e-09
8.11449e-09
8.01379e-09
7.90678e-09
7.79178e-09
7.66732e-09
7.53335e-09
7.38971e-09
7.23619e-09
7.0726e-09
6.89874e-09
6.71451e-09
6.51996e-09
6.31633e-09
6.10208e-09
5.87721e-09
5.64374e-09
5.40241e-09
5.15422e-09
4.90029e-09
4.64184e-09
4.38016e-09
4.11655e-09
3.85229e-09
3.5886e-09
3.32663e-09
3.06743e-09
2.81194e-09
2.56102e-09
2.31544e-09
2.07588e-09
1.84294e-09
1.61718e-09
1.39907e-09
1.18904e-09
9.87605e-10
7.95467e-10
6.13946e-10
4.45594e-10
2.9505e-10
1.69353e-10
7.75134e-11
2.39709e-11
3.3078e-12
1.96763e-14
5.15591e-14
8.81907e-12
6.70324e-11
2.34623e-10
5.63832e-10
1.07664e-09
1.75615e-09
2.55591e-09
3.41411e-09
4.27301e-09
5.08782e-09
5.82909e-09
6.481e-09
7.03813e-09
7.50222e-09
7.87958e-09
8.17903e-09
8.41046e-09
8.58384e-09
8.70854e-09
8.79294e-09
8.84428e-09
8.86858e-09
8.87071e-09
8.85454e-09
8.82306e-09
8.77855e-09
8.72272e-09
8.65679e-09
8.58167e-09
8.49795e-09
8.40533e-09
8.30265e-09
8.19483e-09
8.07895e-09
7.9541e-09
7.81996e-09
7.67616e-09
7.52223e-09
7.35773e-09
7.18223e-09
6.99544e-09
6.79717e-09
6.58772e-09
6.3683e-09
6.13619e-09
5.89371e-09
5.64212e-09
5.38253e-09
5.11622e-09
4.84465e-09
4.5693e-09
4.29174e-09
4.01346e-09
3.73591e-09
3.46041e-09
3.18816e-09
2.92022e-09
2.65749e-09
2.40079e-09
2.1508e-09
1.90814e-09
1.67335e-09
1.44692e-09
1.22931e-09
1.02102e-09
8.22733e-10
6.35709e-10
4.62363e-10
3.07171e-10
1.77072e-10
8.14609e-11
2.53082e-11
3.5022e-12
2.08554e-14
5.42823e-14
9.28587e-12
7.05873e-11
2.47058e-10
5.93617e-10
1.13321e-09
1.84781e-09
2.68828e-09
3.58931e-09
4.48993e-09
5.34283e-09
6.11695e-09
6.79562e-09
7.37325e-09
7.85185e-09
8.23829e-09
8.54215e-09
8.77414e-09
8.94504e-09
9.06499e-09
9.14308e-09
9.18714e-09
9.20371e-09
9.1981e-09
9.17453e-09
9.13627e-09
9.08581e-09
9.02501e-09
8.95521e-09
8.87734e-09
8.79199e-09
8.69895e-09
8.59703e-09
8.49031e-09
8.37622e-09
8.25355e-09
8.12176e-09
7.98016e-09
7.82803e-09
7.66462e-09
7.48925e-09
7.30137e-09
7.10058e-09
6.88675e-09
6.66082e-09
6.42266e-09
6.17087e-09
5.90828e-09
5.6362e-09
5.35612e-09
5.06975e-09
4.77888e-09
4.48534e-09
4.19096e-09
3.89746e-09
3.60642e-09
3.31923e-09
3.0371e-09
2.76104e-09
2.49188e-09
2.23034e-09
1.97701e-09
1.7324e-09
1.497e-09
1.27124e-09
1.05562e-09
8.50817e-10
6.58003e-10
4.79467e-10
3.19512e-10
1.84978e-10
8.55239e-11
2.66955e-11
3.70489e-12
2.20876e-14
5.69494e-14
9.74267e-12
7.40579e-11
2.59158e-10
6.22497e-10
1.18792e-09
1.93629e-09
2.81595e-09
3.7583e-09
4.69925e-09
5.58904e-09
6.39499e-09
7.0996e-09
7.69704e-09
8.18961e-09
8.58473e-09
8.89272e-09
9.12511e-09
9.29352e-09
9.40886e-09
9.48095e-09
9.51824e-09
9.52781e-09
9.5154e-09
9.48561e-09
9.44197e-09
9.3872e-09
9.3233e-09
9.2517e-09
9.17333e-09
9.08873e-09
8.99805e-09
8.9e-09
8.79647e-09
8.68694e-09
8.56918e-09
8.44237e-09
8.30551e-09
8.15753e-09
7.99735e-09
7.824e-09
7.63661e-09
7.43458e-09
7.21757e-09
6.98557e-09
6.74021e-09
6.47999e-09
6.2056e-09
5.91987e-09
5.6245e-09
5.32147e-09
5.01294e-09
4.7011e-09
4.38818e-09
4.07625e-09
3.76723e-09
3.4628e-09
3.16437e-09
2.87308e-09
2.58983e-09
2.31535e-09
2.05018e-09
1.7948e-09
1.54964e-09
1.31509e-09
1.09162e-09
8.79856e-10
6.80919e-10
4.96962e-10
3.32106e-10
1.9307e-10
8.97042e-11
2.81335e-11
3.91609e-12
2.33745e-14
5.95437e-14
1.01866e-11
7.74211e-11
2.70836e-10
6.50259e-10
1.24035e-09
2.02095e-09
2.93806e-09
3.92e-09
4.89973e-09
5.82513e-09
6.66188e-09
7.39164e-09
8.00835e-09
8.5145e-09
8.91808e-09
9.23013e-09
9.463e-09
9.62914e-09
9.74027e-09
9.80692e-09
9.83819e-09
9.84171e-09
9.82368e-09
9.78905e-09
9.74165e-09
9.68441e-09
9.61947e-09
9.54831e-09
9.47189e-09
9.39069e-09
9.30476e-09
9.21382e-09
9.11651e-09
9.01399e-09
8.90394e-09
8.78489e-09
8.65539e-09
8.51403e-09
8.35938e-09
8.19008e-09
8.00496e-09
7.80309e-09
7.5839e-09
7.34719e-09
7.09361e-09
6.82499e-09
6.53862e-09
6.23812e-09
5.92587e-09
5.60422e-09
5.27571e-09
4.943e-09
4.60876e-09
4.27555e-09
3.94573e-09
3.62132e-09
3.30404e-09
2.99522e-09
2.69588e-09
2.40674e-09
2.12833e-09
1.86103e-09
1.60518e-09
1.36109e-09
1.12916e-09
9.09964e-10
7.04532e-10
5.14887e-10
3.44969e-10
2.01348e-10
9.40002e-11
2.96222e-11
4.13591e-12
2.47171e-14
6.20486e-14
1.06147e-11
8.06541e-11
2.8201e-10
6.767e-10
1.29012e-09
2.10117e-09
3.05375e-09
4.07335e-09
5.09019e-09
6.04983e-09
6.91637e-09
7.67057e-09
8.30609e-09
8.8256e-09
9.23761e-09
9.55386e-09
9.78751e-09
9.95184e-09
1.00594e-08
1.01214e-08
1.01476e-08
1.01462e-08
1.01239e-08
1.0086e-08
1.00367e-08
9.97897e-09
9.91517e-09
9.84684e-09
9.77492e-09
9.69982e-09
9.62147e-09
9.5394e-09
9.45279e-09
9.36016e-09
9.26006e-09
9.15166e-09
9.03225e-09
8.90008e-09
8.75338e-09
8.59035e-09
8.40944e-09
8.2094e-09
7.98937e-09
7.74894e-09
7.48819e-09
7.20909e-09
6.91164e-09
6.59527e-09
6.26461e-09
5.92234e-09
5.57145e-09
5.21512e-09
4.85655e-09
4.4989e-09
4.14504e-09
3.7975e-09
3.45837e-09
3.1293e-09
2.81145e-09
2.5056e-09
2.21223e-09
1.93163e-09
1.66399e-09
1.40949e-09
1.16842e-09
9.41246e-10
7.28903e-10
5.33275e-10
3.58108e-10
2.09809e-10
9.84081e-11
3.11606e-11
4.36429e-12
2.61158e-14
6.44485e-14
1.10242e-11
8.37353e-11
2.92601e-10
7.0163e-10
1.33686e-09
2.17639e-09
3.16224e-09
4.2174e-09
5.26951e-09
6.26197e-09
7.15728e-09
7.93527e-09
8.58925e-09
9.12207e-09
9.54266e-09
9.86345e-09
1.00984e-08
1.02616e-08
1.03664e-08
1.04247e-08
1.04471e-08
1.04422e-08
1.04171e-08
1.03777e-08
1.03283e-08
1.02721e-08
1.02118e-08
1.01487e-08
1.00838e-08
1.00175e-08
9.94954e-09
9.87916e-09
9.80524e-09
9.72624e-09
9.64051e-09
9.54432e-09
9.43767e-09
9.31724e-09
9.18106e-09
9.02662e-09
8.85205e-09
8.6557e-09
8.43637e-09
8.19337e-09
7.92664e-09
7.63679e-09
7.32723e-09
6.99535e-09
6.64478e-09
6.27996e-09
5.90431e-09
5.52153e-09
5.13548e-09
4.74996e-09
4.36852e-09
3.99429e-09
3.62991e-09
3.2774e-09
2.93818e-09
2.61316e-09
2.30278e-09
2.00722e-09
1.72648e-09
1.46055e-09
1.20955e-09
9.73799e-10
7.54088e-10
5.52151e-10
3.71529e-10
2.18448e-10
1.02922e-10
3.2747e-11
4.60108e-12
2.75699e-14
6.67282e-14
1.14126e-11
8.66443e-11
3.02538e-10
7.24874e-10
1.38026e-09
2.24609e-09
3.26282e-09
4.35125e-09
5.43669e-09
6.46047e-09
7.38351e-09
8.18469e-09
8.85693e-09
9.40313e-09
9.83264e-09
1.01585e-08
1.03955e-08
1.05584e-08
1.06615e-08
1.07174e-08
1.07372e-08
1.07302e-08
1.07041e-08
1.06649e-08
1.06173e-08
1.0565e-08
1.05103e-08
1.04548e-08
1.03996e-08
1.03447e-08
1.02898e-08
1.02339e-08
1.01755e-08
1.01127e-08
1.00432e-08
9.96446e-09
9.87369e-09
9.76591e-09
9.64305e-09
9.49958e-09
9.33358e-09
9.14294e-09
8.92603e-09
8.68185e-09
8.41005e-09
8.11103e-09
7.78769e-09
7.44095e-09
7.06963e-09
6.68065e-09
6.27801e-09
5.86606e-09
5.44935e-09
5.03242e-09
4.61963e-09
4.21485e-09
3.8214e-09
3.44183e-09
3.07796e-09
2.73087e-09
2.40104e-09
2.08853e-09
1.79313e-09
1.51458e-09
1.25274e-09
1.00773e-09
7.80141e-10
5.71535e-10
3.85231e-10
2.27257e-10
1.07535e-10
3.43787e-11
4.84599e-12
2.90783e-14
6.88737e-14
1.17775e-11
8.93625e-11
3.11754e-10
7.46278e-10
1.42002e-09
2.30982e-09
3.35486e-09
4.47411e-09
5.59082e-09
6.64435e-09
7.5941e-09
8.41793e-09
9.1083e-09
9.6681e-09
1.0107e-08
1.04387e-08
1.06786e-08
1.08424e-08
1.09449e-08
1.09997e-08
1.10184e-08
1.10109e-08
1.09854e-08
1.09484e-08
1.09047e-08
1.08581e-08
1.08113e-08
1.07659e-08
1.07227e-08
1.06817e-08
1.06424e-08
1.06036e-08
1.05633e-08
1.05194e-08
1.04692e-08
1.04095e-08
1.03373e-08
1.02491e-08
1.01391e-08
1.00086e-08
9.85354e-09
9.67084e-09
9.45838e-09
9.21475e-09
8.93935e-09
8.63243e-09
8.29523e-09
7.93267e-09
7.54156e-09
7.12709e-09
6.69561e-09
6.25202e-09
5.8016e-09
5.34977e-09
4.90176e-09
4.46236e-09
4.03571e-09
3.62509e-09
3.23283e-09
2.86034e-09
2.50822e-09
2.17641e-09
1.8645e-09
1.57192e-09