/*--------------------------------*- C++ -*----------------------------------*\
  =========                 |
  \\      /  F ield         | OpenFOAM: The Open Source CFD Toolbox
   \\    /   O peration     | Website:  https://openfoam.org
    \\  /    A nd           | Version:  12
     \\/     M anipulation  |
\*---------------------------------------------------------------------------*/
FoamFile
{
    format      ascii;
    class       volScalarField;
    location    "1";
    object      nut;
}
// * * * * * * * * * * * * * * * * * * * * * * * * * * * * * * * * * * * * * //

dimensions      [0 2 -1 0 0 0 0];

internalField   nonuniform List<scalar> 
18225
(
6.94197e-14
2.09777e-12
4.44881e-12
7.25953e-12
1.04328e-11
1.38966e-11
1.76e-11
2.15052e-11
2.55823e-11
2.98067e-11
3.4157e-11
3.86146e-11
4.31623e-11
4.77848e-11
5.24677e-11
5.71978e-11
6.19625e-11
6.67504e-11
7.15503e-11
7.6352e-11
8.11458e-11
8.59226e-11
9.06738e-11
9.53912e-11
1.00067e-10
1.04695e-10
1.09268e-10
1.13779e-10
1.18223e-10
1.22595e-10
1.26889e-10
1.31101e-10
1.35226e-10
1.39261e-10
1.43201e-10
1.47044e-10
1.50787e-10
1.54426e-10
1.57959e-10
1.61384e-10
1.64699e-10
1.67901e-10
1.7099e-10
1.73963e-10
1.7682e-10
1.79558e-10
1.82178e-10
1.84678e-10
1.87057e-10
1.89316e-10
1.91452e-10
1.93466e-10
1.95357e-10
1.97125e-10
1.9877e-10
2.00292e-10
2.01689e-10
2.02963e-10
2.04113e-10
2.05138e-10
2.0604e-10
2.06817e-10
2.07471e-10
2.08e-10
2.08405e-10
2.08686e-10
2.08843e-10
2.08876e-10
2.08786e-10
2.08571e-10
2.08232e-10
2.0777e-10
2.07184e-10
2.06475e-10
2.05641e-10
2.04685e-10
2.03605e-10
2.02402e-10
2.01076e-10
1.99628e-10
1.98057e-10
1.96363e-10
1.94548e-10
1.92611e-10
1.90553e-10
1.88375e-10
1.86076e-10
1.83659e-10
1.81123e-10
1.78469e-10
1.75699e-10
1.72813e-10
1.69813e-10
1.667e-10
1.63477e-10
1.60143e-10
1.56703e-10
1.53157e-10
1.49509e-10
1.4576e-10
1.41914e-10
1.37974e-10
1.33943e-10
1.29825e-10
1.25623e-10
1.21343e-10
1.16989e-10
1.12566e-10
1.08079e-10
1.03534e-10
9.89367e-11
9.42946e-11
8.96142e-11
8.4903e-11
8.0169e-11
7.54205e-11
7.06664e-11
6.59163e-11
6.11801e-11
5.64686e-11
5.17931e-11
4.71656e-11
4.25993e-11
3.81079e-11
3.37066e-11
2.94119e-11
2.52423e-11
2.12185e-11
1.73648e-11
1.37105e-11
1.02929e-11
7.16207e-12
4.38904e-12
2.06956e-12
6.84848e-14
4.69509e-13
6.84819e-11
3.66046e-10
8.56967e-10
1.44274e-09
2.07749e-09
2.74534e-09
3.44002e-09
4.158e-09
4.8965e-09
5.65299e-09
6.42508e-09
7.21045e-09
8.00689e-09
8.81229e-09
9.62461e-09
1.04419e-08
1.12624e-08
1.20842e-08
1.29058e-08
1.37255e-08
1.45419e-08
1.53536e-08
1.61591e-08
1.69573e-08
1.77469e-08
1.8527e-08
1.92963e-08
2.0054e-08
2.07992e-08
2.1531e-08
2.22487e-08
2.29514e-08
2.36387e-08
2.43098e-08
2.49641e-08
2.56013e-08
2.62208e-08
2.68222e-08
2.74051e-08
2.79692e-08
2.85141e-08
2.90396e-08
2.95454e-08
3.00314e-08
3.04972e-08
3.09428e-08
3.1368e-08
3.17727e-08
3.21567e-08
3.25199e-08
3.28624e-08
3.31839e-08
3.34845e-08
3.37642e-08
3.40228e-08
3.42603e-08
3.44768e-08
3.46722e-08
3.48465e-08
3.49996e-08
3.51317e-08
3.52427e-08
3.53325e-08
3.54013e-08
3.5449e-08
3.54755e-08
3.5481e-08
3.54654e-08
3.54288e-08
3.53711e-08
3.52923e-08
3.51925e-08
3.50717e-08
3.49298e-08
3.4767e-08
3.45832e-08
3.43785e-08
3.41529e-08
3.39064e-08
3.36391e-08
3.33509e-08
3.30421e-08
3.27125e-08
3.23624e-08
3.19918e-08
3.16007e-08
3.11894e-08
3.07579e-08
3.03063e-08
2.98349e-08
2.93439e-08
2.88334e-08
2.83037e-08
2.77551e-08
2.71878e-08
2.66022e-08
2.59987e-08
2.53776e-08
2.47394e-08
2.40845e-08
2.34136e-08
2.2727e-08
2.20256e-08
2.13099e-08
2.05806e-08
1.98386e-08
1.90846e-08
1.83196e-08
1.75445e-08
1.67604e-08
1.59683e-08
1.51693e-08
1.43648e-08
1.35561e-08
1.27444e-08
1.19313e-08
1.11184e-08
1.03071e-08
9.49929e-09
8.69668e-09
7.90117e-09
7.11473e-09
6.3394e-09
5.57735e-09
4.83082e-09
4.10214e-09
3.39378e-09
2.70845e-09
2.04961e-09
1.4234e-09
8.45496e-10
3.61151e-10
6.75656e-11
4.63205e-13
1.04413e-12
1.71594e-10
1.17373e-09
3.51482e-09
7.11559e-09
1.16101e-08
1.66683e-08
2.20796e-08
2.77247e-08
3.35365e-08
3.94751e-08
4.5514e-08
5.16332e-08
5.78163e-08
6.40486e-08
7.03167e-08
7.66075e-08
8.29089e-08
8.92091e-08
9.54969e-08
1.01761e-07
1.07992e-07
1.1418e-07
1.20315e-07
1.26388e-07
1.32392e-07
1.38318e-07
1.44159e-07
1.49908e-07
1.55559e-07
1.61106e-07
1.66543e-07
1.71864e-07
1.77067e-07
1.82145e-07
1.87095e-07
1.91913e-07
1.96596e-07
2.01141e-07
2.05546e-07
2.09807e-07
2.13922e-07
2.1789e-07
2.21709e-07
2.25377e-07
2.28893e-07
2.32255e-07
2.35463e-07
2.38515e-07
2.41412e-07
2.44151e-07
2.46733e-07
2.49157e-07
2.51423e-07
2.53531e-07
2.5548e-07
2.57269e-07
2.589e-07
2.60372e-07
2.61684e-07
2.62837e-07
2.63831e-07
2.64665e-07
2.6534e-07
2.65856e-07
2.66213e-07
2.66411e-07
2.6645e-07
2.6633e-07
2.66051e-07
2.65613e-07
2.65016e-07
2.64261e-07
2.63348e-07
2.62275e-07
2.61045e-07
2.59657e-07
2.5811e-07
2.56406e-07
2.54544e-07
2.52526e-07
2.5035e-07
2.48018e-07
2.4553e-07
2.42886e-07
2.40088e-07
2.37135e-07
2.3403e-07
2.30772e-07
2.27362e-07
2.23803e-07
2.20095e-07
2.16239e-07
2.12239e-07
2.08094e-07
2.03809e-07
1.99384e-07
1.94823e-07
1.90128e-07
1.85302e-07
1.8035e-07
1.75275e-07
1.7008e-07
1.6477e-07
1.59351e-07
1.53827e-07
1.48203e-07
1.42486e-07
1.36682e-07
1.30798e-07
1.24841e-07
1.18819e-07
1.1274e-07
1.06612e-07
1.00445e-07
9.42478e-08
8.80309e-08
8.18046e-08
7.55796e-08
6.93674e-08
6.31798e-08
5.70292e-08
5.09286e-08
4.48922e-08
3.89359e-08
3.30791e-08
2.73476e-08
2.17804e-08
1.64434e-08
1.14542e-08
7.02041e-09
3.4679e-09
1.15805e-09
1.69297e-10
1.0301e-12
1.72715e-12
2.90984e-10
2.12657e-09
7.00863e-09
1.57149e-08
2.81105e-08
4.35223e-08
6.11679e-08
8.03848e-08
1.00686e-07
1.21735e-07
1.43304e-07
1.65236e-07
1.87419e-07
2.0977e-07
2.32223e-07
2.54723e-07
2.77221e-07
2.99676e-07
3.22048e-07
3.443e-07
3.66399e-07
3.88313e-07
4.10011e-07
4.31465e-07
4.52648e-07
4.73535e-07
4.94102e-07
5.14328e-07
5.34191e-07
5.53672e-07
5.72754e-07
5.91421e-07
6.09656e-07
6.27445e-07
6.44777e-07
6.6164e-07
6.78022e-07
6.93914e-07
7.09308e-07
7.24195e-07
7.38568e-07
7.52422e-07
7.65751e-07
7.78549e-07
7.90813e-07
8.02539e-07
8.13723e-07
8.24363e-07
8.34456e-07
8.44001e-07
8.52995e-07
8.61438e-07
8.69328e-07
8.76665e-07
8.83447e-07
8.89674e-07
8.95347e-07
9.00464e-07
9.05026e-07
9.09032e-07
9.12483e-07
9.15379e-07
9.17721e-07
9.19507e-07
9.20739e-07
9.21416e-07
9.2154e-07
9.2111e-07
9.20126e-07
9.18589e-07
9.16499e-07
9.13857e-07
9.10662e-07
9.06916e-07
9.02618e-07
8.9777e-07
8.92371e-07
8.86423e-07
8.79925e-07
8.7288e-07
8.65289e-07
8.57151e-07
8.4847e-07
8.39246e-07
8.29482e-07
8.1918e-07
8.08342e-07
7.96972e-07
7.85072e-07
7.72648e-07
7.59702e-07
7.46241e-07
7.32269e-07
7.17793e-07
7.02819e-07
6.87355e-07
6.7141e-07
6.54992e-07
6.38112e-07
6.2078e-07
6.03009e-07
5.84812e-07
5.66203e-07
5.47197e-07
5.27811e-07
5.08063e-07
4.87971e-07
4.67557e-07
4.46841e-07
4.25847e-07
4.046e-07
3.83126e-07
3.61452e-07
3.39607e-07
3.17622e-07
2.9553e-07
2.73366e-07
2.51167e-07
2.28974e-07
2.06833e-07
1.84797e-07
1.62929e-07
1.4131e-07
1.20049e-07
9.93003e-08
7.92865e-08
6.03387e-08
4.29368e-08
2.77346e-08
1.55054e-08
6.91513e-09
2.0981e-09
2.87072e-10
1.70382e-12
2.48735e-12
4.22635e-10
3.16384e-09
1.08477e-08
2.55613e-08
4.82086e-08
7.85228e-08
1.15484e-07
1.5779e-07
2.0418e-07
2.53584e-07
3.05159e-07
3.58264e-07
4.12419e-07
4.67262e-07
5.2252e-07
5.77977e-07
6.33462e-07
6.88833e-07
7.43969e-07
7.98767e-07
8.53135e-07
9.06989e-07
9.60255e-07
1.01286e-06
1.06475e-06
1.11586e-06
1.16613e-06
1.21552e-06
1.26399e-06
1.31147e-06
1.35795e-06
1.40337e-06
1.44772e-06
1.49095e-06
1.53304e-06
1.57396e-06
1.61369e-06
1.65222e-06
1.68952e-06
1.72557e-06
1.76036e-06
1.79388e-06
1.82612e-06
1.85706e-06
1.8867e-06
1.91503e-06
1.94204e-06
1.96773e-06
1.99209e-06
2.01512e-06
2.03682e-06
2.05718e-06
2.07621e-06
2.09389e-06
2.11023e-06
2.12523e-06
2.13889e-06
2.15121e-06
2.16219e-06
2.17183e-06
2.18013e-06
2.18708e-06
2.1927e-06
2.19698e-06
2.19992e-06
2.20153e-06
2.2018e-06
2.20073e-06
2.19833e-06
2.1946e-06
2.18953e-06
2.18313e-06
2.1754e-06
2.16634e-06
2.15594e-06
2.14422e-06
2.13118e-06
2.1168e-06
2.1011e-06
2.08408e-06
2.06574e-06
2.04608e-06
2.0251e-06
2.00282e-06
1.97922e-06
1.95433e-06
1.92814e-06
1.90065e-06
1.87188e-06
1.84184e-06
1.81053e-06
1.77797e-06
1.74416e-06
1.70912e-06
1.67286e-06
1.6354e-06
1.59676e-06
1.55696e-06
1.51602e-06
1.47396e-06
1.4308e-06
1.38659e-06
1.34135e-06
1.29511e-06
1.2479e-06
1.19978e-06
1.15077e-06
1.10093e-06
1.05031e-06
9.98956e-07
9.46924e-07
8.94278e-07
8.41084e-07
7.87413e-07
7.33344e-07
6.78965e-07
6.24375e-07
5.69689e-07
5.15042e-07
4.60599e-07
4.06567e-07
3.53213e-07
3.0089e-07
2.50068e-07
2.01377e-07
1.55646e-07
1.13929e-07
7.74728e-08
4.75663e-08
2.52206e-08
1.07024e-08
3.1212e-09
4.16906e-10
2.45344e-12
3.30471e-12
5.63646e-10
4.26561e-09
1.49027e-08
3.60223e-08
6.99872e-08
1.17622e-07
1.7838e-07
2.50799e-07
3.32992e-07
4.23019e-07
5.19105e-07
6.19734e-07
7.23666e-07
8.29907e-07
9.37668e-07
1.04632e-06
1.15538e-06
1.26443e-06
1.37315e-06
1.48126e-06
1.58854e-06
1.69479e-06
1.79982e-06
1.90351e-06
2.0057e-06
2.10627e-06
2.20513e-06
2.30217e-06
2.39731e-06
2.49046e-06
2.58154e-06
2.67051e-06
2.75728e-06
2.84182e-06
2.92407e-06
3.00399e-06
3.08154e-06
3.15668e-06
3.22938e-06
3.29962e-06
3.36737e-06
3.43262e-06
3.49533e-06
3.5555e-06
3.61311e-06
3.66815e-06
3.72061e-06
3.77049e-06
3.81777e-06
3.86246e-06
3.90454e-06
3.94402e-06
3.9809e-06
4.01517e-06
4.04683e-06
4.07588e-06
4.10233e-06
4.12617e-06
4.14741e-06
4.16605e-06
4.18209e-06
4.19553e-06
4.20637e-06
4.21462e-06
4.22027e-06
4.22333e-06
4.22381e-06
4.2217e-06
4.217e-06
4.20971e-06
4.19984e-06
4.18739e-06
4.17236e-06
4.15475e-06
4.13456e-06
4.1118e-06
4.08646e-06
4.05855e-06
4.02807e-06
3.99502e-06
3.95941e-06
3.92123e-06
3.8805e-06
3.83722e-06
3.7914e-06
3.74304e-06
3.69215e-06
3.63874e-06
3.58282e-06
3.52441e-06
3.46352e-06
3.40017e-06
3.33437e-06
3.26615e-06
3.19554e-06
3.12255e-06
3.04723e-06
2.9696e-06
2.8897e-06
2.80757e-06
2.72327e-06
2.63683e-06
2.54831e-06
2.45778e-06
2.36529e-06
2.27093e-06
2.17476e-06
2.07688e-06
1.97739e-06
1.87637e-06
1.77395e-06
1.67026e-06
1.56544e-06
1.45966e-06
1.35309e-06
1.24597e-06
1.13855e-06
1.03114e-06
9.2414e-07
8.18022e-07
7.13394e-07
6.11024e-07
5.11887e-07
4.17201e-07
3.28461e-07
2.47419e-07
1.75993e-07
1.16055e-07
6.90544e-08
3.55398e-08
1.47014e-08
4.20745e-09
5.55905e-10
3.25904e-12
4.16425e-12
7.11657e-10
5.41658e-09
1.91153e-08
4.68639e-08
9.26461e-08
1.58746e-07
2.45642e-07
3.52303e-07
4.76677e-07
6.16197e-07
7.68172e-07
9.30049e-07
1.09955e-06
1.27472e-06
1.45391e-06
1.63579e-06
1.81923e-06
2.00335e-06
2.18738e-06
2.37072e-06
2.55286e-06
2.73338e-06
2.9119e-06
3.08813e-06
3.26179e-06
3.43266e-06
3.60052e-06
3.76522e-06
3.92658e-06
4.08448e-06
4.23879e-06
4.38939e-06
4.5362e-06
4.67912e-06
4.81809e-06
4.95303e-06
5.08389e-06
5.21061e-06
5.33315e-06
5.45148e-06
5.56554e-06
5.67533e-06
5.78081e-06
5.88197e-06
5.97878e-06
6.07124e-06
6.15933e-06
6.24305e-06
6.32238e-06
6.39733e-06
6.4679e-06
6.53407e-06
6.59586e-06
6.65327e-06
6.70629e-06
6.75493e-06
6.7992e-06
6.83909e-06
6.87461e-06
6.90577e-06
6.93257e-06
6.95502e-06
6.97312e-06
6.98686e-06
6.99627e-06
7.00133e-06
7.00206e-06
6.99847e-06
6.99053e-06
6.97827e-06
6.96169e-06
6.94078e-06
6.91555e-06
6.886e-06
6.85213e-06
6.81394e-06
6.77144e-06
6.72462e-06
6.6735e-06
6.61806e-06
6.55832e-06
6.49428e-06
6.42594e-06
6.35332e-06
6.27641e-06
6.19522e-06
6.10977e-06
6.02007e-06
5.92613e-06
5.82797e-06
5.72562e-06
5.61908e-06
5.50839e-06
5.39358e-06
5.27469e-06
5.15174e-06
5.0248e-06
4.89389e-06
4.75909e-06
4.62045e-06
4.47805e-06
4.33195e-06
4.18225e-06
4.02904e-06
3.87243e-06
3.71254e-06
3.54951e-06
3.38348e-06
3.21462e-06
3.04313e-06
2.86922e-06
2.69315e-06
2.51521e-06
2.33575e-06
2.15516e-06
1.97395e-06
1.79268e-06
1.61209e-06
1.43303e-06
1.25659e-06
1.08408e-06
9.17109e-07
7.57603e-07
6.07809e-07
4.70248e-07
3.47585e-07
2.42365e-07
1.56628e-07
9.14035e-08
4.62295e-08
1.88534e-08
5.3415e-09
7.01705e-10
4.10564e-12
5.05387e-12
8.64682e-10
6.60318e-09
2.34409e-08
5.79577e-08
1.15809e-07
2.00896e-07
3.15032e-07
4.58041e-07
6.28168e-07
8.226e-07
1.03797e-06
1.27077e-06
1.51761e-06
1.77542e-06
2.04145e-06
2.31338e-06
2.5892e-06
2.86726e-06
3.14616e-06
3.42474e-06
3.70204e-06
3.97723e-06
4.24966e-06
4.51873e-06
4.78396e-06
5.04495e-06
5.30134e-06
5.55282e-06
5.79913e-06
6.04005e-06
6.27538e-06
6.50494e-06
6.7286e-06
6.94623e-06
7.15771e-06
7.36294e-06
7.56186e-06
7.75439e-06
7.94046e-06
8.12003e-06
8.29306e-06
8.45952e-06
8.61937e-06
8.7726e-06
8.91918e-06
9.05912e-06
9.19239e-06
9.31899e-06
9.43892e-06
9.55219e-06
9.6588e-06
9.75874e-06
9.85203e-06
9.93867e-06
1.00187e-05
1.00921e-05
1.01588e-05
1.0219e-05
1.02725e-05
1.03194e-05
1.03598e-05
1.03936e-05
1.04208e-05
1.04415e-05
1.04556e-05
1.04632e-05
1.04642e-05
1.04587e-05
1.04467e-05
1.04281e-05
1.0403e-05
1.03714e-05
1.03333e-05
1.02887e-05
1.02375e-05
1.01798e-05
1.01156e-05
1.00449e-05
9.96771e-06
9.88398e-06
9.79373e-06
9.69697e-06
9.5937e-06
9.48393e-06
9.36766e-06
9.2449e-06
9.11567e-06
8.97996e-06
8.8378e-06
8.6892e-06
8.53419e-06
8.3728e-06
8.20505e-06
8.03098e-06
7.85064e-06
7.66407e-06
7.47133e-06
7.27249e-06
7.06762e-06
6.8568e-06
6.64015e-06
6.41776e-06
6.18977e-06
5.95632e-06
5.71758e-06
5.47374e-06
5.22502e-06
4.97166e-06
4.71396e-06
4.45224e-06
4.18691e-06
3.91841e-06
3.6473e-06
3.37421e-06
3.09993e-06
2.82537e-06
2.55165e-06
2.28012e-06
2.0124e-06
1.75043e-06
1.4965e-06
1.25328e-06
1.02383e-06
8.1149e-07
6.19738e-07
4.51913e-07
3.10814e-07
1.98193e-07
1.14235e-07
5.71597e-08
2.31133e-08
6.50963e-09
8.5231e-10
4.98107e-12
5.96331e-12
1.02101e-09
7.81322e-09
2.78395e-08
6.92049e-08
1.3924e-07
2.43517e-07
3.85323e-07
5.65588e-07
7.83174e-07
1.03536e-06
1.31839e-06
1.62801e-06
1.9598e-06
2.30955e-06
2.67333e-06
3.04766e-06
3.42946e-06
3.81611e-06
4.20536e-06
4.59529e-06
4.98431e-06
5.37107e-06
5.75443e-06
6.13342e-06
6.50725e-06
6.87524e-06
7.2368e-06
7.59145e-06
7.93877e-06
8.27841e-06
8.61008e-06
8.93351e-06
9.2485e-06
9.55485e-06
9.85241e-06
1.01411e-05
1.04207e-05
1.06912e-05
1.09525e-05
1.12046e-05
1.14474e-05
1.16808e-05
1.19049e-05
1.21196e-05
1.23249e-05
1.25208e-05
1.27074e-05
1.28845e-05
1.30522e-05
1.32106e-05
1.33596e-05
1.34992e-05
1.36295e-05
1.37505e-05
1.38622e-05
1.39646e-05
1.40578e-05
1.41417e-05
1.42163e-05
1.42818e-05
1.43381e-05
1.43851e-05
1.44231e-05
1.44518e-05
1.44714e-05
1.44819e-05
1.44833e-05
1.44755e-05
1.44587e-05
1.44327e-05
1.43977e-05
1.43535e-05
1.43002e-05
1.42379e-05
1.41664e-05
1.40859e-05
1.39962e-05
1.38974e-05
1.37896e-05
1.36726e-05
1.35465e-05
1.34113e-05
1.32669e-05
1.31135e-05
1.29509e-05
1.27792e-05
1.25984e-05
1.24085e-05
1.22095e-05
1.20015e-05
1.17843e-05
1.15582e-05
1.1323e-05
1.10789e-05
1.08259e-05
1.05641e-05
1.02935e-05
1.00141e-05
9.72621e-06
9.4298e-06
9.12504e-06
8.81209e-06
8.49111e-06
8.16234e-06
7.82601e-06
7.48241e-06
7.13187e-06
6.7748e-06
6.41165e-06
6.04296e-06
5.6694e-06
5.29171e-06
4.91081e-06
4.52778e-06
4.14392e-06
3.76076e-06
3.38015e-06
3.00426e-06
2.63567e-06
2.27736e-06
1.93278e-06
1.60577e-06
1.30052e-06
1.0214e-06
7.72641e-07
5.57973e-07
3.80107e-07
2.40189e-07
1.37311e-07
6.82299e-08
2.74405e-08
7.6995e-09
1.00599e-09
5.87498e-12
6.88371e-12
1.17915e-09
9.03577e-09
3.22749e-08
8.05189e-08
1.62759e-07
2.86236e-07
4.55759e-07
6.73486e-07
9.39081e-07
1.25016e-06
1.60282e-06
1.99225e-06
2.41318e-06
2.86031e-06
3.32855e-06
3.8132e-06
4.31e-06
4.81524e-06
5.32566e-06
5.83846e-06
6.35125e-06
6.862e-06
7.36899e-06
7.87077e-06
8.3661e-06
8.85396e-06
9.33347e-06
9.80391e-06
1.02646e-05
1.07152e-05
1.11551e-05
1.15839e-05
1.20015e-05
1.24074e-05
1.28016e-05
1.31838e-05
1.35539e-05
1.39119e-05
1.42575e-05
1.45907e-05
1.49115e-05
1.52199e-05
1.55158e-05
1.57992e-05
1.60701e-05
1.63285e-05
1.65744e-05
1.68079e-05
1.70289e-05
1.72375e-05
1.74337e-05
1.76175e-05
1.7789e-05
1.79482e-05
1.80951e-05
1.82298e-05
1.83522e-05
1.84625e-05
1.85606e-05
1.86466e-05
1.87205e-05
1.87823e-05
1.88321e-05
1.88698e-05
1.88955e-05
1.89092e-05
1.89109e-05
1.89007e-05
1.88784e-05
1.88442e-05
1.87981e-05
1.87399e-05
1.86699e-05
1.85878e-05
1.84938e-05
1.83878e-05
1.82699e-05
1.81399e-05
1.7998e-05
1.7844e-05
1.76781e-05
1.75001e-05
1.731e-05
1.7108e-05
1.68938e-05
1.66676e-05
1.64294e-05
1.61791e-05
1.59167e-05
1.56422e-05
1.53558e-05
1.50573e-05
1.47468e-05
1.44244e-05
1.40901e-05
1.3744e-05
1.33861e-05
1.30166e-05
1.26355e-05
1.22431e-05
1.18395e-05
1.14249e-05
1.09996e-05
1.05638e-05
1.01179e-05
9.66237e-06
9.19762e-06
8.72428e-06
8.24302e-06
7.75468e-06
7.26024e-06
6.76086e-06
6.25793e-06
5.75309e-06
5.24828e-06
4.74583e-06
4.24843e-06
3.75924e-06
3.28193e-06
2.82064e-06
2.38e-06
1.96505e-06
1.58104e-06
1.2332e-06
9.26323e-07
6.64285e-07
4.49473e-07
2.82233e-07
1.60444e-07
7.93515e-08
3.17979e-08
8.90003e-09
1.16123e-09
6.77841e-12
7.80731e-12
1.33778e-09
1.02611e-08
3.67138e-08
9.18213e-08
1.86209e-07
3.2876e-07
5.25804e-07
7.80765e-07
1.09421e-06
1.46422e-06
1.88694e-06
2.35715e-06
2.8689e-06
3.41589e-06
3.99191e-06
4.59107e-06
5.20793e-06
5.83759e-06
6.4757e-06
7.11849e-06
7.76267e-06
8.40543e-06
9.04436e-06
9.67743e-06
1.03029e-05
1.09193e-05
1.15255e-05
1.21203e-05
1.2703e-05
1.32728e-05
1.38291e-05
1.43713e-05
1.48992e-05
1.54123e-05
1.59104e-05
1.63932e-05
1.68606e-05
1.73124e-05
1.77485e-05
1.81688e-05
1.85734e-05
1.89621e-05
1.93349e-05
1.96919e-05
2.0033e-05
2.03583e-05
2.06678e-05
2.09615e-05
2.12394e-05
2.15017e-05
2.17483e-05
2.19793e-05
2.21947e-05
2.23947e-05
2.25791e-05
2.27482e-05
2.29019e-05
2.30403e-05
2.31634e-05
2.32712e-05
2.33639e-05
2.34414e-05
2.35037e-05
2.35509e-05
2.35831e-05
2.36002e-05
2.36023e-05
2.35893e-05
2.35613e-05
2.35183e-05
2.34603e-05
2.33873e-05
2.32992e-05
2.31962e-05
2.30781e-05
2.2945e-05
2.27969e-05
2.26337e-05
2.24554e-05
2.2262e-05
2.20535e-05
2.18298e-05
2.1591e-05
2.13369e-05
2.10677e-05
2.07833e-05
2.04836e-05
2.01686e-05
1.98384e-05
1.94929e-05
1.91322e-05
1.87562e-05
1.8365e-05
1.79586e-05
1.75371e-05
1.71006e-05
1.66491e-05
1.61827e-05
1.57017e-05
1.52061e-05
1.46962e-05
1.41724e-05
1.36348e-05
1.3084e-05
1.25204e-05
1.19445e-05
1.13571e-05
1.07589e-05
1.0151e-05
9.5345e-06
8.9108e-06
8.28155e-06
7.64868e-06
7.01451e-06
6.38174e-06
5.75354e-06
5.13359e-06
4.52612e-06
3.93593e-06
3.36836e-06
2.82924e-06
2.32471e-06
1.861e-06
1.44406e-06
1.07906e-06
7.69854e-07
5.18359e-07
3.24025e-07
1.83474e-07
9.0444e-08
3.61518e-08
1.01013e-08
1.3167e-09
7.68347e-12
8.72732e-12
1.49576e-09
1.14805e-08
4.11268e-08
1.03041e-07
2.0945e-07
3.70841e-07
5.95036e-07
8.86718e-07
1.24739e-06
1.67569e-06
2.16787e-06
2.71849e-06
3.32096e-06
3.96814e-06
4.65278e-06
5.36783e-06
6.10665e-06
6.86318e-06
7.63196e-06
8.40815e-06
9.18754e-06
9.96647e-06
1.07418e-05
1.15108e-05
1.22712e-05
1.30211e-05
1.37588e-05
1.4483e-05
1.51925e-05
1.58864e-05
1.65638e-05
1.72241e-05
1.78668e-05
1.84914e-05
1.90976e-05
1.96851e-05
2.02537e-05
2.08031e-05
2.13333e-05
2.18442e-05
2.23358e-05
2.28079e-05
2.32606e-05
2.3694e-05
2.41079e-05
2.45025e-05
2.48779e-05
2.5234e-05
2.55709e-05
2.58887e-05
2.61874e-05
2.64672e-05
2.67281e-05
2.69702e-05
2.71934e-05
2.7398e-05
2.7584e-05
2.77513e-05
2.79002e-05
2.80306e-05
2.81426e-05
2.82362e-05
2.83115e-05
2.83685e-05
2.84073e-05
2.84278e-05
2.84302e-05
2.84144e-05
2.83804e-05
2.83282e-05
2.82579e-05
2.81695e-05
2.80629e-05
2.79381e-05
2.77952e-05
2.7634e-05
2.74546e-05
2.7257e-05
2.70411e-05
2.68069e-05
2.65543e-05
2.62834e-05
2.5994e-05
2.56862e-05
2.536e-05
2.50152e-05
2.46518e-05
2.42699e-05
2.38693e-05
2.34502e-05
2.30124e-05
2.2556e-05
2.20811e-05
2.15875e-05
2.10754e-05
2.05449e-05
1.9996e-05
1.9429e-05
1.88439e-05
1.8241e-05
1.76206e-05
1.69831e-05
1.63288e-05
1.56583e-05
1.49721e-05
1.42711e-05
1.35562e-05
1.28284e-05
1.20891e-05
1.13398e-05
1.05823e-05
9.81881e-06
9.05194e-06
8.28469e-06
7.5206e-06
6.76376e-06
6.01887e-06
5.29126e-06
4.58688e-06
3.91227e-06
3.27438e-06
2.68042e-06
2.13747e-06
1.65207e-06
1.22965e-06
8.73948e-07
5.86327e-07
3.65308e-07
2.06257e-07
1.01435e-07
4.04719e-08
1.12945e-08
1.47123e-09
8.58325e-12
9.63782e-12
1.65206e-09
1.26865e-08
4.54874e-08
1.14116e-07
2.3236e-07
4.12267e-07
6.63104e-07
9.9079e-07
1.39776e-06
1.88322e-06
2.44363e-06
3.07333e-06
3.76527e-06
4.5115e-06
5.30381e-06
6.13405e-06
6.99445e-06
7.87777e-06
8.77744e-06
9.68759e-06
1.0603e-05
1.15192e-05
1.24321e-05
1.33385e-05
1.42355e-05
1.51205e-05
1.59916e-05
1.6847e-05
1.76852e-05
1.8505e-05
1.93054e-05
2.00856e-05
2.08449e-05
2.15827e-05
2.22987e-05
2.29924e-05
2.36636e-05
2.43121e-05
2.49378e-05
2.55405e-05
2.61202e-05
2.66769e-05
2.72105e-05
2.77212e-05
2.82088e-05
2.86736e-05
2.91156e-05
2.95348e-05
2.99313e-05
3.03052e-05
3.06567e-05
3.09857e-05
3.12925e-05
3.1577e-05
3.18394e-05
3.20798e-05
3.22982e-05
3.24948e-05
3.26696e-05
3.28227e-05
3.29541e-05
3.30639e-05
3.31522e-05
3.3219e-05
3.32644e-05
3.32884e-05
3.32909e-05
3.32722e-05
3.32321e-05
3.31707e-05
3.30879e-05
3.29838e-05
3.28584e-05
3.27116e-05
3.25435e-05
3.23539e-05
3.2143e-05
3.19105e-05
3.16566e-05
3.13811e-05
3.1084e-05
3.07653e-05
3.04249e-05
3.00627e-05
2.96787e-05
2.92729e-05
2.88451e-05
2.83954e-05
2.79237e-05
2.743e-05
2.69142e-05
2.63763e-05
2.58164e-05
2.52345e-05
2.46306e-05
2.40048e-05
2.33572e-05
2.2688e-05
2.19974e-05
2.12857e-05
2.05531e-05
1.98002e-05
1.90274e-05
1.82354e-05
1.7425e-05
1.65972e-05
1.5753e-05
1.48939e-05
1.40216e-05
1.31379e-05
1.22452e-05
1.13464e-05
1.04445e-05
9.54346e-06
8.6476e-06
7.76197e-06
6.8923e-06
6.04502e-06
5.22724e-06
4.44661e-06
3.7112e-06
3.02915e-06
2.40834e-06
1.85582e-06
1.37719e-06
9.75984e-07
6.53013e-07
4.0586e-07
2.28666e-07
1.12259e-07
4.47311e-08
1.24718e-08
1.62377e-09
9.47169e-12
1.05337e-11
1.80583e-09
1.38724e-08
4.97726e-08
1.24989e-07
2.5483e-07
4.52849e-07
7.29712e-07
1.09253e-06
1.54464e-06
2.08582e-06
2.71275e-06
3.41965e-06
4.19898e-06
5.04212e-06
5.93994e-06
6.88325e-06
7.86319e-06
8.8714e-06
9.90021e-06
1.09427e-05
1.19927e-05
1.30448e-05
1.40943e-05
1.51371e-05
1.61697e-05
1.71891e-05
1.81929e-05
1.91788e-05
2.01451e-05
2.10903e-05
2.20133e-05
2.29129e-05
2.37883e-05
2.46389e-05
2.54642e-05
2.62637e-05
2.70372e-05
2.77843e-05
2.8505e-05
2.9199e-05
2.98664e-05
3.05072e-05
3.11213e-05
3.17088e-05
3.22698e-05
3.28042e-05
3.33123e-05
3.37942e-05
3.42498e-05
3.46794e-05
3.50831e-05
3.5461e-05
3.58132e-05
3.61398e-05
3.6441e-05
3.67168e-05
3.69674e-05
3.71928e-05
3.73932e-05
3.75687e-05
3.77193e-05
3.78451e-05
3.79462e-05
3.80226e-05
3.80744e-05
3.81016e-05
3.81043e-05
3.80826e-05
3.80363e-05
3.79655e-05
3.78703e-05
3.77506e-05
3.76065e-05
3.74378e-05
3.72446e-05
3.70268e-05
3.67845e-05
3.65174e-05
3.62257e-05
3.59092e-05
3.55679e-05
3.52017e-05
3.48105e-05
3.43943e-05
3.39529e-05
3.34864e-05
3.29947e-05
3.24776e-05
3.19351e-05
3.13672e-05
3.07739e-05
3.0155e-05
2.95106e-05
2.88408e-05
2.81455e-05
2.74249e-05
2.66791e-05
2.59082e-05
2.51126e-05
2.42924e-05
2.34482e-05
2.25804e-05
2.16897e-05
2.07768e-05
1.98428e-05
1.88887e-05
1.7916e-05
1.69264e-05
1.59219e-05
1.49048e-05
1.38781e-05
1.28451e-05
1.18096e-05
1.07763e-05
9.75042e-06
8.73787e-06
7.74545e-06
6.78066e-06
5.85172e-06
4.96738e-06
4.1367e-06
3.36876e-06
2.67212e-06
2.05426e-06
1.52095e-06
1.07549e-06
7.18105e-07
4.45486e-07
2.50588e-07
1.22859e-07
4.89058e-08
1.36265e-08
1.77343e-09
1.03435e-11
1.14105e-11
1.9563e-09
1.50326e-08
5.39629e-08
1.35613e-07
2.76766e-07
4.92429e-07
7.94609e-07
1.19156e-06
1.68749e-06
2.28273e-06
2.97418e-06
3.75595e-06
4.62009e-06
5.55732e-06
6.55766e-06
7.61096e-06
8.70727e-06
9.83719e-06
1.0992e-05
1.21637e-05
1.33452e-05
1.45303e-05
1.57135e-05
1.68899e-05
1.80554e-05
1.92066e-05
2.03405e-05
2.14545e-05
2.25466e-05
2.36149e-05
2.46581e-05
2.56749e-05
2.66644e-05
2.76258e-05
2.85584e-05
2.94617e-05
3.03355e-05
3.11794e-05
3.19933e-05
3.27769e-05
3.35304e-05
3.42536e-05
3.49465e-05
3.56093e-05
3.6242e-05
3.68447e-05
3.74176e-05
3.79607e-05
3.84742e-05
3.89583e-05
3.94131e-05
3.98386e-05
4.02352e-05
4.06029e-05
4.09419e-05
4.12523e-05
4.15342e-05
4.17878e-05
4.20131e-05
4.22104e-05
4.23796e-05
4.25209e-05
4.26343e-05
4.272e-05
4.27779e-05
4.28083e-05
4.28109e-05
4.27861e-05
4.27337e-05
4.26537e-05
4.25461e-05
4.24111e-05
4.22485e-05
4.20582e-05
4.18404e-05
4.15949e-05
4.13217e-05
4.10207e-05
4.06919e-05
4.03352e-05
3.99505e-05
3.95377e-05
3.90967e-05
3.86275e-05
3.813e-05
3.7604e-05
3.70494e-05
3.64663e-05
3.58545e-05
3.52138e-05
3.45444e-05
3.38461e-05
3.31189e-05
3.23629e-05
3.1578e-05
3.07644e-05
2.99222e-05
2.90516e-05
2.81528e-05
2.72263e-05
2.62726e-05
2.52921e-05
2.42857e-05
2.32543e-05
2.21989e-05
2.11211e-05
2.00225e-05
1.8905e-05
1.7771e-05
1.66234e-05
1.54656e-05
1.43014e-05
1.31355e-05
1.19731e-05
1.08204e-05
9.68427e-06
8.57244e-06
7.49347e-06
6.45663e-06
5.47171e-06
4.54876e-06
3.69766e-06
2.92764e-06
2.24659e-06
1.66037e-06
1.17206e-06
7.81341e-07
4.84019e-07
2.71925e-07
1.33185e-07
5.29756e-08
1.47527e-08
1.91945e-09
1.11943e-11
1.22647e-11
2.10286e-09
1.61624e-08
5.80414e-08
1.45949e-07
2.98089e-07
5.30872e-07
8.57587e-07
1.28757e-06
1.82588e-06
2.47336e-06
3.22712e-06
4.08117e-06
5.02717e-06
6.05524e-06
7.15459e-06
8.31412e-06
9.52291e-06
1.07705e-05
1.20472e-05
1.3344e-05
1.46529e-05
1.59669e-05
1.72795e-05
1.85855e-05
1.988e-05
2.1159e-05
2.24192e-05
2.36576e-05
2.48717e-05
2.60596e-05
2.72195e-05
2.83502e-05
2.94503e-05
3.05192e-05
3.1556e-05
3.25601e-05
3.35313e-05
3.44691e-05
3.53733e-05
3.62439e-05
3.70808e-05
3.78839e-05
3.86533e-05
3.9389e-05
4.00913e-05
4.07601e-05
4.13956e-05
4.19981e-05
4.25675e-05
4.31043e-05
4.36084e-05
4.40801e-05
4.45196e-05
4.49269e-05
4.53024e-05
4.56461e-05
4.59582e-05
4.62389e-05
4.64882e-05
4.67064e-05
4.68935e-05
4.70496e-05
4.71748e-05
4.72693e-05
4.73331e-05
4.73662e-05
4.73687e-05
4.73407e-05
4.72821e-05
4.7193e-05
4.70734e-05
4.69233e-05
4.67426e-05
4.65314e-05
4.62896e-05
4.60171e-05
4.57139e-05
4.53799e-05
4.5015e-05
4.46192e-05
4.41924e-05
4.37343e-05
4.32451e-05
4.27244e-05
4.21723e-05
4.15886e-05
4.09731e-05
4.03259e-05
3.96467e-05
3.89356e-05
3.81924e-05
3.7417e-05
3.66094e-05
3.57698e-05
3.48979e-05
3.39941e-05
3.30584e-05
3.2091e-05
3.10923e-05
3.00627e-05
2.90026e-05
2.79129e-05
2.67943e-05
2.56479e-05
2.4475e-05
2.32772e-05
2.20564e-05
2.0815e-05
1.95557e-05
1.82817e-05
1.6997e-05
1.57059e-05
1.44139e-05
1.31268e-05
1.18516e-05
1.05962e-05
9.36921e-06
8.18018e-06
7.03939e-06
5.95762e-06
4.94583e-06
4.0147e-06
3.17406e-06
2.43217e-06
1.79499e-06
1.26539e-06
8.42498e-07
5.21317e-07
2.92596e-07
1.43196e-07
5.69231e-08
1.58456e-08
2.06117e-09
1.20201e-11
1.30932e-11
2.24499e-09
1.72578e-08
6.19945e-08
1.55962e-07
3.18735e-07
5.68068e-07
9.18477e-07
1.38034e-06
1.95948e-06
2.65726e-06
3.47097e-06
4.39453e-06
5.41924e-06
6.5346e-06
7.72909e-06
8.99072e-06
1.03076e-05
1.16683e-05
1.30622e-05
1.44792e-05
1.59107e-05
1.73486e-05
1.87859e-05
2.02165e-05
2.16351e-05
2.30372e-05
2.44189e-05
2.5777e-05
2.71086e-05
2.84116e-05
2.96839e-05
3.09241e-05
3.21309e-05
3.33032e-05
3.44402e-05
3.55414e-05
3.66062e-05
3.76343e-05
3.86255e-05
3.95797e-05
4.04967e-05
4.13766e-05
4.22195e-05
4.30253e-05
4.37943e-05
4.45266e-05
4.52223e-05
4.58816e-05
4.65048e-05
4.7092e-05
4.76434e-05
4.81593e-05
4.86398e-05
4.90852e-05
4.94955e-05
4.98711e-05
5.02121e-05
5.05186e-05
5.07908e-05
5.10288e-05
5.12329e-05
5.14031e-05
5.15395e-05
5.16422e-05
5.17113e-05
5.17469e-05
5.1749e-05
5.17178e-05
5.16531e-05
5.15551e-05
5.14237e-05
5.12589e-05
5.10607e-05
5.08291e-05
5.05641e-05
5.02655e-05
4.99333e-05
4.95674e-05
4.91678e-05
4.87342e-05
4.82667e-05
4.77651e-05
4.72293e-05
4.66591e-05
4.60544e-05
4.54151e-05
4.47411e-05
4.40321e-05
4.32882e-05
4.25092e-05
4.16949e-05
4.08454e-05
3.99606e-05
3.90404e-05
3.8085e-05
3.70944e-05
3.60687e-05
3.50083e-05
3.39135e-05
3.27846e-05
3.16224e-05
3.04276e-05
2.92011e-05
2.79442e-05
2.66584e-05
2.53453e-05
2.40073e-05
2.26468e-05
2.12671e-05
1.98718e-05
1.84652e-05
1.70525e-05
1.56394e-05
1.42327e-05
1.28401e-05
1.14704e-05
1.0133e-05
8.83855e-06
7.5982e-06
6.42368e-06
5.32681e-06
4.31902e-06
3.41072e-06
2.61051e-06
1.92445e-06
1.35519e-06
9.01395e-07
5.57263e-07
3.1253e-07
1.52856e-07
6.0734e-08
1.69009e-08
2.19805e-09
1.28179e-11
1.38935e-11
2.38228e-09
1.83157e-08
6.58114e-08
1.65626e-07
3.38653e-07
6.0393e-07
9.77146e-07
1.46966e-06
2.08803e-06
2.8341e-06
3.70532e-06
4.69551e-06
5.79562e-06
6.99459e-06
8.28015e-06
9.63949e-06
1.10598e-05
1.25288e-05
1.40347e-05
1.55668e-05
1.71155e-05
1.86719e-05
2.02284e-05
2.17783e-05
2.33156e-05
2.48354e-05
2.63334e-05
2.7806e-05
2.92501e-05
3.06631e-05
3.20429e-05
3.33879e-05
3.46965e-05
3.59677e-05
3.72006e-05
3.83944e-05
3.95488e-05
4.06632e-05
4.17375e-05
4.27714e-05
4.3765e-05
4.47182e-05
4.56311e-05
4.65039e-05
4.73365e-05
4.81293e-05
4.88823e-05
4.95959e-05
5.02702e-05
5.09055e-05
5.1502e-05
5.20599e-05
5.25794e-05
5.30608e-05
5.35043e-05
5.39101e-05
5.42783e-05
5.46093e-05
5.49031e-05
5.516e-05
5.538e-05
5.55634e-05
5.57102e-05
5.58205e-05
5.58945e-05
5.59323e-05
5.59338e-05
5.58992e-05
5.58285e-05
5.57217e-05
5.55788e-05
5.53998e-05
5.51847e-05
5.49335e-05
5.4646e-05
5.43223e-05
5.39622e-05
5.35657e-05
5.31327e-05
5.2663e-05
5.21565e-05
5.16131e-05
5.10327e-05
5.0415e-05
4.976e-05
4.90676e-05
4.83374e-05
4.75694e-05
4.67636e-05
4.59196e-05
4.50375e-05
4.41171e-05
4.31584e-05
4.21613e-05
4.1126e-05
4.00525e-05
3.8941e-05
3.77917e-05
3.6605e-05
3.53815e-05
3.41217e-05
3.28266e-05
3.14972e-05
3.01348e-05
2.87411e-05
2.73181e-05
2.58681e-05
2.43942e-05
2.28996e-05
2.13886e-05
1.98658e-05
1.8337e-05
1.68085e-05
1.52878e-05
1.37834e-05
1.23046e-05
1.08621e-05
9.46713e-06
8.13188e-06
6.86894e-06
5.69094e-06
4.61003e-06
3.63714e-06
2.78124e-06
2.04845e-06
1.44128e-06
9.57887e-07
5.91763e-07
3.31673e-07
1.62136e-07
6.43965e-08
1.79154e-08
2.32965e-09
1.3585e-11
1.46639e-11
2.51442e-09
1.93337e-08
6.94836e-08
1.74921e-07
3.57802e-07
6.38394e-07
1.0335e-06
1.5554e-06
2.21137e-06
3.00366e-06
3.92989e-06
4.98377e-06
6.15591e-06
7.4347e-06
8.80719e-06
1.02597e-05
1.17787e-05
1.33508e-05
1.49636e-05
1.66054e-05
1.82657e-05
1.9935e-05
2.16051e-05
2.32685e-05
2.49189e-05
2.65508e-05
2.81594e-05
2.9741e-05
3.1292e-05
3.28097e-05
3.42918e-05
3.57364e-05
3.7142e-05
3.85072e-05
3.98312e-05
4.11132e-05