/*--------------------------------*- C++ -*----------------------------------*\
  =========                 |
  \\      /  F ield         | OpenFOAM: The Open Source CFD Toolbox
   \\    /   O peration     | Website:  https://openfoam.org
    \\  /    A nd           | Version:  12
     \\/     M anipulation  |
\*---------------------------------------------------------------------------*/
FoamFile
{
    format      ascii;
    class       surfaceScalarField;
    location    "1";
    object      phi;
}
// * * * * * * * * * * * * * * * * * * * * * * * * * * * * * * * * * * * * * //

dimensions      [0 3 -1 0 0 0 0];

internalField   nonuniform List<scalar> 
36180
(
-8.66771e-11
8.47278e-11
-6.77244e-11
-1.88352e-11
-3.31995e-11
-3.46389e-11
1.10897e-11
-4.42595e-11
5.08268e-11
-3.98284e-11
8.7617e-11
-3.67792e-11
1.22234e-10
-3.46753e-11
1.57301e-10
-3.50563e-11
1.93237e-10
-3.59728e-11
2.30988e-10
-3.77387e-11
2.70365e-10
-3.93975e-11
3.11539e-10
-4.11615e-11
3.54195e-10
-4.26673e-11
3.98172e-10
-4.39651e-11
4.43196e-10
-4.5028e-11
4.88982e-10
-4.57761e-11
5.35358e-10
-4.63757e-11
5.81987e-10
-4.66206e-11
6.28798e-10
-4.68077e-11
6.75439e-10
-4.66327e-11
7.21924e-10
-4.64813e-11
7.6792e-10
-4.59879e-11
8.13506e-10
-4.5582e-11
8.58357e-10
-4.48439e-11
9.02596e-10
-4.42341e-11
9.45933e-10
-4.33306e-11
9.88521e-10
-4.25832e-11
1.03009e-09
-4.15608e-11
1.07079e-09
-4.07011e-11
1.11041e-09
-3.96139e-11
1.14911e-09
-3.86923e-11
1.18668e-09
-3.75726e-11
1.22329e-09
-3.66057e-11
1.25878e-09
-3.5488e-11
1.2933e-09
-3.45124e-11
1.32672e-09
-3.34155e-11
1.35916e-09
-3.24423e-11
1.39054e-09
-3.13797e-11
1.42097e-09
-3.04268e-11
1.45037e-09
-2.93987e-11
1.47884e-09
-2.8464e-11
1.5063e-09
-2.7466e-11
1.53285e-09
-2.65495e-11
1.55842e-09
-2.55701e-11
1.58309e-09
-2.46596e-11
1.60678e-09
-2.36898e-11
1.62956e-09
-2.27801e-11
1.65137e-09
-2.18112e-11
1.67226e-09
-2.08928e-11
1.69218e-09
-1.99208e-11
1.71118e-09
-1.89934e-11
1.7292e-09
-1.80158e-11
1.74627e-09
-1.70767e-11
1.76237e-09
-1.60929e-11
1.77751e-09
-1.51442e-11
1.79167e-09
-1.41527e-11
1.80486e-09
-1.31923e-11
1.81705e-09
-1.21918e-11
1.82827e-09
-1.12193e-11
1.83848e-09
-1.02075e-11
1.8477e-09
-9.21867e-12
1.8559e-09
-8.19265e-12
1.86308e-09
-7.18513e-12
1.86922e-09
-6.14108e-12
1.87434e-09
-5.11025e-12
1.87838e-09
-4.04461e-12
1.88137e-09
-2.98791e-12
1.88327e-09
-1.89557e-12
1.88408e-09
-8.08662e-13
1.88377e-09
3.11555e-13
1.88234e-09
1.42972e-12
1.87976e-09
2.58031e-12
1.87603e-09
3.73148e-12
1.87112e-09
4.91008e-12
1.86503e-09
6.09169e-12
1.85774e-09
7.29542e-12
1.84924e-09
8.50599e-12
1.83951e-09
9.73104e-12
1.82854e-09
1.09668e-11
1.81633e-09
1.22102e-11
1.80287e-09
1.34683e-11
1.78814e-09
1.47278e-11
1.77214e-09
1.60053e-11
1.75486e-09
1.72783e-11
1.73629e-09
1.85711e-11
1.71643e-09
1.98564e-11
1.69527e-09
2.11629e-11
1.67282e-09
2.24585e-11
1.64904e-09
2.37749e-11
1.62397e-09
2.50801e-11
1.59756e-09
2.64046e-11
1.56985e-09
2.77153e-11
1.54081e-09
2.90411e-11
1.51046e-09
3.03515e-11
1.47879e-09
3.16716e-11
1.44582e-09
3.2971e-11
1.41155e-09
3.42725e-11
1.37601e-09
3.5549e-11
1.33919e-09
3.68197e-11
1.30113e-09
3.80579e-11
1.26185e-09
3.92807e-11
1.22139e-09
4.04644e-11
1.17977e-09
4.16224e-11
1.13704e-09
4.27309e-11
1.09324e-09
4.38009e-11
1.04843e-09
4.48113e-11
1.00266e-09
4.57683e-11
9.56014e-10
4.66508e-11
9.08553e-10
4.74613e-11
8.60375e-10
4.81813e-11
8.11567e-10
4.88075e-11
7.62249e-10
4.9321e-11
7.12534e-10
4.97138e-11
6.62568e-10
4.99694e-11
6.12494e-10
5.00732e-11
5.6249e-10
5.00077e-11
5.12735e-10
4.97525e-11
4.63447e-10
4.92914e-11
4.1485e-10
4.85959e-11
3.67204e-10
4.76484e-11
3.20791e-10
4.64114e-11
2.75926e-10
4.48677e-11
2.32953e-10
4.29709e-11
1.92251e-10
4.0704e-11
1.54233e-10
3.80157e-11
1.1934e-10
3.48955e-11
8.80382e-11
3.12994e-11
6.07943e-11
2.72454e-11
3.80629e-11
2.273e-11
2.02217e-11
1.78419e-11
7.52451e-12
1.26968e-11
-3.66237e-14
7.56133e-12
-2.89236e-12
2.85609e-12
-2.12663e-12
-7.65684e-13
-2.12661e-12
-9.90053e-12
9.47298e-11
-2.60611e-11
-2.51938e-12
-1.34596e-11
-4.7205e-11
1.07357e-11
-6.83755e-11
5.26498e-11
-8.17438e-11
1.10585e-10
-9.46694e-11
1.81629e-10
-1.05728e-10
2.63379e-10
-1.16777e-10
3.53725e-10
-1.26326e-10
4.51236e-10
-1.35226e-10
5.54571e-10
-1.42736e-10
6.62788e-10
-1.4936e-10
7.7492e-10
-1.54799e-10
8.90272e-10
-1.59301e-10
1.00805e-09
-1.62803e-10
1.12769e-09
-1.65402e-10
1.24852e-09
-1.67197e-10
1.37008e-09
-1.6817e-10
1.49179e-09
-1.68511e-10
1.6133e-09
-1.68137e-10
1.73413e-09
-1.67304e-10
1.85402e-09
-1.65871e-10
1.97257e-09
-1.64121e-10
2.08961e-09
-1.61874e-10
2.20482e-09
-1.59437e-10
2.31809e-09
-1.56601e-10
2.42919e-09
-1.53672e-10
2.53806e-09
-1.50423e-10
2.64452e-09
-1.47159e-10
2.74856e-09
-1.4365e-10
2.85005e-09
-1.40181e-10
2.94901e-09
-1.36528e-10
3.04536e-09
-1.32951e-10
3.13912e-09
-1.29244e-10
3.23024e-09
-1.25633e-10
3.31877e-09
-1.21935e-10
3.40466e-09
-1.18338e-10
3.48797e-09
-1.14686e-10
3.56868e-09
-1.11129e-10
3.64682e-09
-1.07536e-10
3.72238e-09
-1.04029e-10
3.79541e-09
-1.00495e-10
3.8659e-09
-9.70347e-11
3.93388e-09
-9.35476e-11
3.99934e-09
-9.01224e-11
4.06232e-09
-8.6669e-11
4.12281e-09
-8.32667e-11
4.18083e-09
-7.98336e-11
4.23639e-09
-7.6442e-11
4.28948e-09
-7.30187e-11
4.34012e-09
-6.96282e-11
4.38831e-09
-6.62051e-11
4.43404e-09
-6.28069e-11
4.47732e-09
-5.93748e-11
4.51814e-09
-5.59603e-11
4.5565e-09
-5.25085e-11
4.59238e-09
-4.90672e-11
4.62577e-09
-4.55844e-11
4.65665e-09
-4.21042e-11
4.68503e-09
-3.85781e-11
4.71085e-09
-3.50456e-11
4.73413e-09
-3.14637e-11
4.75481e-09
-2.78655e-11
4.77288e-09
-2.42158e-11
4.78832e-09
-2.054e-11
4.80108e-09
-1.68112e-11
4.81114e-09
-1.30475e-11
4.81848e-09
-9.2289e-12
4.82304e-09
-5.3692e-12
4.82481e-09
-1.45312e-12
4.82373e-09
2.50814e-12
4.81979e-09
6.52696e-12
4.81293e-09
1.05939e-11
4.80312e-09
1.47183e-11
4.79032e-09
1.88911e-11
4.7745e-09
2.31191e-11
4.75561e-09
2.73972e-11
4.73361e-09
3.17267e-11
4.70848e-09
3.61056e-11
4.68016e-09
4.05307e-11
4.64862e-09
4.5006e-11
4.61383e-09
4.95217e-11
4.57575e-09
5.40854e-11
4.53435e-09
5.86829e-11
4.48959e-09
6.33266e-11
4.44145e-09
6.79974e-11
4.38991e-09
7.27093e-11
4.33493e-09
7.74404e-11
4.2765e-09
8.22066e-11
4.2146e-09
8.69829e-11
4.14922e-09
9.17842e-11
4.08035e-09
9.65841e-11
4.008e-09
1.01396e-10
3.93216e-09
1.06193e-10
3.85285e-09
1.10984e-10
3.77008e-09
1.15741e-10
3.68388e-09
1.20473e-10
3.59429e-09
1.25149e-10
3.50133e-09
1.29773e-10
3.40508e-09
1.34315e-10
3.30559e-09
1.38775e-10
3.20293e-09
1.43122e-10
3.0972e-09
1.4735e-10
2.98851e-09
1.51425e-10
2.87698e-09
1.55339e-10
2.76273e-09
1.59054e-10
2.64595e-09
1.62554e-10
2.5268e-09
1.658e-10
2.4055e-09
1.68768e-10
2.28226e-09
1.71416e-10
2.15736e-09
1.73709e-10
2.03109e-09
1.75602e-10
1.90375e-09
1.7705e-10
1.77572e-09
1.78004e-10
1.64738e-09
1.78406e-10
1.51919e-09
1.782e-10
1.39163e-09
1.77319e-10
1.26523e-09
1.75695e-10
1.14057e-09
1.73252e-10
1.01831e-09
1.69913e-10
8.99128e-10
1.65589e-10
7.83799e-10
1.60199e-10
6.73123e-10
1.53646e-10
5.67975e-10
1.45854e-10
4.69257e-10
1.36733e-10
3.77919e-10
1.26235e-10
2.94901e-10
1.14316e-10
2.21138e-10
1.0101e-10
1.57466e-10
8.64018e-11
1.04583e-10
7.07255e-11
6.29118e-11
5.43679e-11
3.24797e-11
3.79942e-11
1.27226e-11
2.26133e-11
2.48526e-12
9.472e-12
3.58731e-13
2.20527e-11
7.27639e-11
3.79911e-12
1.58482e-11
1.87657e-11
-6.21134e-11
6.44186e-11
-1.13951e-10
1.32906e-10
-1.50203e-10
2.19584e-10
-1.81295e-10
3.22343e-10
-2.08474e-10
4.38853e-10
-2.3325e-10
5.67416e-10
-2.5488e-10
7.06255e-10
-2.74037e-10
8.53879e-10
-2.90352e-10
1.00889e-09
-3.04352e-10
1.17001e-09
-3.15911e-10
1.33614e-09
-3.25407e-10
1.50617e-09
-3.32827e-10
1.67924e-09
-3.38458e-10
1.85439e-09
-3.42343e-10
2.03095e-09
-3.44716e-10
2.20809e-09
-3.45645e-10
2.3853e-09
-3.45336e-10
2.56187e-09
-3.43864e-10
2.73742e-09
-3.41416e-10
2.91137e-09
-3.38059e-10
3.08345e-09
-3.33949e-10
3.25318e-09
-3.29155e-10
3.42038e-09
-3.23803e-10
3.58468e-09
-3.17963e-10
3.74598e-09
-3.11717e-10
3.90397e-09
-3.05144e-10
4.05862e-09
-2.98294e-10
4.20969e-09
-2.9125e-10
4.35719e-09
-2.84024e-10
4.50095e-09
-2.76704e-10
4.64099e-09
-2.6928e-10
4.77719e-09
-2.61834e-10
4.9096e-09
-2.54341e-10
5.03813e-09
-2.46869e-10
5.16284e-09
-2.39392e-10
5.28367e-09
-2.31961e-10
5.40069e-09
-2.24549e-10
5.51385e-09
-2.17191e-10
5.62322e-09
-2.09867e-10
5.72879e-09
-2.02595e-10
5.8306e-09
-1.95359e-10
5.92865e-09
-1.8817e-10
6.02299e-09
-1.81013e-10
6.11362e-09
-1.73895e-10
6.20059e-09
-1.668e-10
6.28388e-09
-1.59734e-10
6.36355e-09
-1.52683e-10
6.43957e-09
-1.4565e-10
6.51198e-09
-1.3862e-10
6.58077e-09
-1.31595e-10
6.64596e-09
-1.24562e-10
6.70752e-09
-1.17521e-10
6.76547e-09
-1.10458e-10
6.81978e-09
-1.03373e-10
6.87045e-09
-9.62517e-11
6.91744e-09
-8.90944e-11
6.96075e-09
-8.18872e-11
7.00033e-09
-7.46275e-11
7.03618e-09
-6.7306e-11
7.06823e-09
-5.99155e-11
7.09646e-09
-5.24531e-11
7.12083e-09
-4.49055e-11
7.1413e-09
-3.72779e-11
7.15781e-09
-2.95509e-11
7.17031e-09
-2.17359e-11
7.17876e-09
-1.38106e-11
7.1831e-09
-5.7907e-12
7.18326e-09
2.34625e-12
7.1792e-09
1.05853e-11
7.17085e-09
1.89448e-11
7.15816e-09
2.74112e-11
7.14106e-09
3.59983e-11
7.11948e-09
4.46959e-11
7.09337e-09
5.35124e-11
7.06265e-09
6.24398e-11
7.02728e-09
7.14823e-11
6.98718e-09
8.06336e-11
6.94229e-09
8.98945e-11
6.89255e-09
9.92593e-11
6.83792e-09
1.08726e-10
6.77831e-09
1.18288e-10
6.7137e-09
1.27942e-10
6.64402e-09
1.3768e-10
6.56923e-09
1.47496e-10
6.48929e-09
1.5738e-10
6.40418e-09
1.67325e-10
6.31384e-09
1.77318e-10
6.21828e-09
1.87349e-10
6.11746e-09
1.97402e-10
6.0114e-09
2.07464e-10
5.90008e-09
2.17517e-10
5.78352e-09
2.27543e-10
5.66174e-09
2.37519e-10
5.53479e-09
2.47425e-10
5.40271e-09
2.57233e-10
5.26556e-09
2.66918e-10
5.12343e-09
2.76447e-10
4.97642e-09
2.8579e-10
4.82464e-09
2.94908e-10
4.66823e-09
3.03762e-10
4.50735e-09
3.12307e-10
4.34219e-09
3.20498e-10
4.17296e-09
3.28281e-10
3.99992e-09
3.35599e-10
3.82333e-09
3.42391e-10
3.64351e-09
3.48588e-10
3.46081e-09
3.54119e-10
3.27562e-09
3.589e-10
3.08837e-09
3.62848e-10
2.89956e-09
3.65865e-10
2.70971e-09
3.67855e-10
2.51941e-09
3.68701e-10
2.32932e-09
3.68293e-10
2.14014e-09
3.66499e-10
1.95265e-09
3.6319e-10
1.76768e-09
3.58221e-10
1.58615e-09
3.51447e-10
1.40902e-09
3.42715e-10
1.23735e-09
3.31872e-10
1.07223e-09
3.18769e-10
9.14817e-10
3.03264e-10
7.66308e-10
2.85241e-10
6.27927e-10
2.64618e-10
5.00877e-10
2.41366e-10
3.86336e-10
2.15553e-10
2.85376e-10
1.87362e-10
1.98935e-10
1.57168e-10
1.27725e-10
1.25578e-10
7.21818e-11
9.35374e-11
3.23693e-11
6.24269e-11
8.19015e-12
3.36516e-11
8.54896e-12
1.60377e-11
5.6768e-11
2.49069e-11
7.03935e-12
6.06083e-11
-9.77807e-11
1.28462e-10
-1.81755e-10
2.22206e-10
-2.43925e-10
3.36889e-10
-2.95939e-10
4.69496e-10
-3.41066e-10
6.1751e-10
-3.81234e-10
7.79092e-10
-4.16452e-10
9.52498e-10
-4.47419e-10
1.13619e-09
-4.74038e-10
1.32869e-09
-4.96832e-10
1.52861e-09
-5.15823e-10
1.73465e-09
-5.31433e-10
1.9456e-09
-5.43762e-10
2.16032e-09
-5.53168e-10
2.37778e-09
-5.59794e-10
2.59703e-09
-5.63956e-10
2.8172e-09
-5.65805e-10
3.03751e-09
-5.65634e-10
3.25725e-09
-5.63592e-10
3.47578e-09
-5.59941e-10
3.69254e-09
-5.54813e-10
3.90704e-09
-5.48437e-10
4.11882e-09
-5.40936e-10
4.32752e-09
-5.32497e-10
4.5328e-09
-5.23232e-10
4.73437e-09
-5.13283e-10
4.93199e-09
-5.02762e-10
5.12547e-09
-4.91766e-10
5.31462e-09
-4.80399e-10
5.49932e-09
-4.68725e-10
5.67946e-09
-4.56837e-10
5.85496e-09
-4.44774e-10
6.02574e-09
-4.32612e-10
6.19177e-09
-4.20371e-10
6.35302e-09
-4.08114e-10
6.50947e-09
-3.95847e-10
6.66113e-09
-3.83614e-10
6.808e-09
-3.71416e-10
6.95009e-09
-3.59282e-10
7.08743e-09
-3.47206e-10
7.22004e-09
-3.35205e-10
7.34795e-09
-3.23273e-10
7.4712e-09
-3.11415e-10
7.58981e-09
-2.99624e-10
7.70382e-09
-2.87898e-10
7.81325e-09
-2.7623e-10
7.91813e-09
-2.64612e-10
8.01848e-09
-2.53037e-10
8.11432e-09
-2.41493e-10
8.20568e-09
-2.29973e-10
8.29255e-09
-2.18463e-10
8.37494e-09
-2.06953e-10
8.45285e-09
-1.95431e-10
8.52628e-09
-1.83885e-10
8.59521e-09
-1.72301e-10
8.65963e-09
-1.60668e-10
8.7195e-09
-1.48971e-10
8.77482e-09
-1.37201e-10
8.82553e-09
-1.25341e-10
8.87161e-09
-1.13384e-10
8.91301e-09
-1.0131e-10
8.94968e-09
-8.912e-11
8.98156e-09
-7.67883e-11
9.0086e-09
-6.43212e-11
9.03075e-09
-5.1691e-11
9.04792e-09
-3.89085e-11
9.06006e-09
-2.59456e-11
9.06708e-09
-1.28157e-11
9.06892e-09
5.07364e-13
9.0655e-09
1.40098e-11
9.05673e-09
2.77143e-11
9.04254e-09
4.1607e-11
9.02283e-09
5.5706e-11
8.99753e-09
6.99984e-11
8.96655e-09
8.44984e-11
8.92979e-09
9.91924e-11
8.88719e-09
1.14091e-10
8.83864e-09
1.29179e-10
8.78407e-09
1.44465e-10
8.7234e-09
1.59933e-10
8.65654e-09
1.75586e-10
8.58342e-09
1.91407e-10
8.50397e-09
2.07396e-10
8.41812e-09
2.23534e-10
8.3258e-09
2.39814e-10
8.22696e-09
2.56219e-10
8.12156e-09
2.72733e-10
8.00954e-09
2.89338e-10
7.89088e-09
3.06012e-10
7.76555e-09
3.22733e-10
7.63354e-09
3.39474e-10
7.49485e-09
3.56205e-10
7.3495e-09
3.72896e-10
7.19751e-09
3.8951e-10
7.03893e-09
4.0601e-10
6.87381e-09
4.2235e-10
6.70224e-09
4.38486e-10
6.52433e-09
4.54365e-10
6.34019e-09
4.69932e-10
6.14997e-09
4.85124e-10
5.95386e-09
4.99874e-10
5.75206e-09
5.1411e-10
5.54481e-09
5.2775e-10
5.33238e-09
5.4071e-10
5.11509e-09
5.52892e-10
4.89328e-09
5.64198e-10
4.66736e-09
5.74511e-10
4.43777e-09
5.83717e-10
4.20499e-09
5.91678e-10
3.96958e-09
5.98261e-10
3.73213e-09
6.03307e-10
3.49333e-09
6.06662e-10
3.25389e-09
6.08144e-10
3.01461e-09
6.07576e-10
2.77635e-09
6.04756e-10
2.54005e-09
5.99485e-10
2.30673e-09
5.91543e-10
2.07747e-09
5.80715e-10
1.85341e-09
5.66773e-10
1.63578e-09
5.49499e-10
1.42587e-09
5.28679e-10
1.22501e-09
5.04121e-10
1.03459e-09
4.75664e-10
8.56013e-10
4.43199e-10
6.90681e-10
4.06698e-10
5.39997e-10
3.66237e-10
4.05306e-10
3.22054e-10
2.87888e-10
2.74587e-10
1.88921e-10
2.24546e-10
1.09475e-10
1.72985e-10
5.05352e-11
1.21367e-10
1.33118e-11
7.08756e-11
2.18608e-11
1.90013e-11
3.77781e-11
4.89944e-11
-2.29295e-11
1.05209e-10
-1.53986e-10
1.92203e-10
-2.68725e-10
3.06421e-10
-3.58136e-10
4.43743e-10
-4.3324e-10
6.00927e-10
-4.98245e-10
7.75184e-10
-5.55472e-10
9.64364e-10
-6.05627e-10
1.1665e-09
-6.49543e-10
1.37991e-09
-6.87441e-10
1.60296e-09
-7.19862e-10
1.83415e-09
-7.47009e-10
2.07206e-09
-7.69329e-10
2.31536e-09
-7.87064e-10
2.56282e-09
-8.00616e-10
2.81329e-09
-8.10257e-10
3.0657e-09
-8.16361e-10
3.31911e-09
-8.19205e-10
3.57262e-09
-8.19135e-10
3.82545e-09
-8.16415e-10
4.07687e-09
-8.11357e-10
4.32626e-09
-8.042e-10
4.57305e-09
-7.95216e-10
4.81674e-09
-7.84622e-10
5.05688e-09
-7.72639e-10
5.29312e-09
-7.59464e-10
5.52511e-09
-7.45269e-10
5.75258e-09
-7.30232e-10
5.9753e-09
-7.14481e-10
6.19308e-09
-6.98169e-10
6.40574e-09
-6.81392e-10
6.61318e-09
-6.64273e-10
6.81529e-09
-6.46884e-10
7.012e-09
-6.29321e-10
7.20327e-09
-6.11634e-10
7.38905e-09
-5.93894e-10
7.56934e-09
-5.76135e-10
7.74413e-09
-5.58405e-10
7.91344e-09
-5.40723e-10
8.07728e-09
-5.23122e-10
8.23568e-09
-5.05608e-10
8.38868e-09
-4.882e-10
8.53631e-09
-4.70897e-10
8.6786e-09
-4.53706e-10
8.8156e-09
-4.36621e-10
8.94734e-09
-4.19637e-10
9.07386e-09
-4.02748e-10
9.19519e-09
-3.8594e-10
9.31136e-09
-3.69206e-10
9.42239e-09
-3.52525e-10
9.52831e-09
-3.3589e-10
9.62912e-09
-3.19275e-10
9.72484e-09
-3.02671e-10
9.81546e-09
-2.86052e-10
9.90098e-09
-2.69407e-10
9.98139e-09
-2.52709e-10
1.00567e-08
-2.35946e-10
1.01268e-08
-2.19091e-10
1.01917e-08
-2.02133e-10
1.02514e-08
-1.85043e-10
1.03059e-08
-1.67814e-10
1.0355e-08
-1.50414e-10
1.03987e-08
-1.32841e-10
1.0437e-08
-1.15062e-10
1.04697e-08
-9.70779e-11
1.04969e-08
-7.8857e-11
1.05184e-08
-6.04029e-11
1.05341e-08
-4.16856e-11
1.0544e-08
-2.27107e-11
1.0548e-08
-3.45179e-12
1.05459e-08
1.60842e-11
1.05377e-08
3.59203e-11
1.05233e-08
5.60469e-11
1.05025e-08
7.64843e-11
1.04753e-08
9.72194e-11
1.04415e-08
1.1827e-10
1.04011e-08
1.3962e-10
1.03539e-08
1.61284e-10
1.02998e-08
1.83241e-10
1.02388e-08
2.05504e-10
1.01707e-08
2.28047e-10
1.00954e-08
2.50879e-10
1.00128e-08
2.73972e-10
9.92289e-09
2.97327e-10
9.82551e-09
3.20914e-10
9.7206e-09
3.44726e-10
9.60808e-09
3.68732e-10
9.4879e-09
3.92914e-10
9.36e-09
4.1724e-10
9.22434e-09
4.4168e-10
9.08087e-09
4.66199e-10
8.92959e-09
4.90758e-10
8.77048e-09
5.15313e-10
8.60357e-09
5.39815e-10
8.42886e-09
5.64214e-10
8.24643e-09
5.88449e-10
8.05632e-09
6.12458e-10
7.85864e-09
6.3617e-10
7.65349e-09
6.5951e-10
7.44103e-09
6.82392e-10
7.22143e-09
7.04729e-10
6.99489e-09
7.26417e-10
6.76165e-09
7.47353e-10
6.52198e-09
7.67416e-10
6.27621e-09
7.86482e-10
6.02469e-09
8.0441e-10
5.76784e-09
8.21055e-10
5.5061e-09
8.3625e-10
5.23999e-09
8.49829e-10
4.97007e-09
8.61597e-10
4.69697e-09
8.71363e-10
4.42138e-09
8.78901e-10
4.14405e-09
8.83995e-10
3.8658e-09
8.8639e-10
3.58754e-09
8.8584e-10
3.31023e-09
8.82066e-10
3.03492e-09
8.74796e-10
2.76273e-09
8.6373e-10
2.49487e-09
8.48581e-10
2.2326e-09
8.29042e-10
1.97727e-09
8.04827e-10
1.7303e-09
7.75651e-10
1.49316e-09
7.4126e-10
1.26738e-09
7.0144e-10
1.05455e-09
6.56036e-10
8.56264e-10
6.04981e-10
6.74174e-10
5.48329e-10
5.09935e-10
4.86293e-10
3.65228e-10
4.19296e-10
2.41763e-10
3.48012e-10
1.41322e-10
2.73426e-10
6.57755e-11
1.96914e-10
1.74765e-11
1.19175e-10
3.93374e-11
2.27072e-11
1.50682e-11
6.97594e-11
-6.99758e-11
1.44179e-10
-2.28409e-10
2.48165e-10
-3.72702e-10
3.79653e-10
-4.89628e-10
5.35411e-10
-5.88988e-10
7.12362e-10
-6.75198e-10
9.07695e-10
-7.50795e-10
1.11904e-09
-8.16977e-10
1.34425e-09
-8.74741e-10
1.58143e-09
-9.24614e-10
1.82877e-09
-9.672e-10
2.08467e-09
-1.0029e-09
2.34757e-09
-1.03222e-09
2.61605e-09
-1.05555e-09
2.88879e-09
-1.07335e-09
3.16457e-09
-1.08603e-09
3.44225e-09
-1.09404e-09
3.72083e-09
-1.09778e-09
3.99935e-09
-1.09765e-09
4.27698e-09
-1.09404e-09
4.55295e-09
-1.08732e-09
4.8266e-09
-1.07785e-09
5.09731e-09
-1.06592e-09
5.36456e-09
-1.05187e-09
5.62787e-09
-1.03594e-09
5.88685e-09
-1.01844e-09
6.14114e-09
-9.99557e-10
6.39045e-09
-9.79544e-10
6.63454e-09
-9.58561e-10
6.87319e-09
-9.36816e-10
7.10623e-09
-9.14437e-10
7.33355e-09
-8.91585e-10
7.55503e-09
-8.68363e-10
7.7706e-09
-8.4489e-10
7.98021e-09
-8.21248e-10
8.18384e-09
-7.97519e-10
8.38147e-09
-7.73763e-10
8.5731e-09
-7.50037e-10
8.75875e-09
-7.26378e-10
8.93846e-09
-7.02823e-10
9.11224e-09
-6.79391e-10
9.28015e-09
-6.56103e-10
9.44221e-09
-6.32966e-10
9.59849e-09
-6.09982e-10
9.74902e-09
-5.87152e-10
9.89385e-09
-5.64465e-10
1.0033e-08
-5.4192e-10
1.01666e-08
-5.19489e-10
1.02945e-08
-4.97172e-10
1.0417e-08
-4.74933e-10
1.05338e-08
-4.52766e-10
1.06452e-08
-4.30634e-10
1.0751e-08
-4.08526e-10
1.08514e-08
-3.86403e-10
1.09462e-08
-3.64252e-10
1.10356e-08
-3.42033e-10
1.11194e-08
-3.19732e-10
1.11976e-08
-2.97307e-10
1.12702e-08
-2.74746e-10
1.13372e-08
-2.52007e-10
1.13984e-08
-2.29079e-10
1.14539e-08
-2.0592e-10
1.15036e-08
-1.82523e-10
1.15474e-08
-1.58846e-10
1.15852e-08
-1.34884e-10
1.1617e-08
-1.10601e-10
1.16425e-08
-8.59891e-11
1.16619e-08
-6.10188e-11
1.16748e-08
-3.56851e-11
1.16814e-08
-9.96155e-12
1.16813e-08
1.61534e-11
1.16745e-08
4.26831e-11
1.1661e-08
6.96238e-11
1.16404e-08
9.69969e-11
1.16129e-08
1.24792e-10
1.15781e-08
1.53029e-10
1.1536e-08
1.8169e-10
1.14865e-08
2.10794e-10
1.14295e-08
2.40314e-10
1.13647e-08
2.70267e-10
1.12921e-08
3.00621e-10
1.12116e-08
3.31384e-10
1.11231e-08
3.6252e-10
1.10264e-08
3.94031e-10
1.09214e-08
4.25875e-10
1.08081e-08
4.58043e-10
1.06863e-08
4.90492e-10
1.05561e-08
5.23198e-10
1.04172e-08
5.56115e-10
1.02697e-08
5.89205e-10
1.01134e-08
6.22415e-10
9.94851e-09
6.55695e-10
9.77484e-09
6.88984e-10
9.59244e-09
7.22215e-10
9.40134e-09
7.55318e-10
9.20158e-09
7.8821e-10
8.99323e-09
8.20808e-10
8.77639e-09
8.53011e-10
8.55118e-09
8.8472e-10
8.31776e-09
9.15817e-10
8.07631e-09
9.46182e-10
7.82705e-09
9.75677e-10
7.57024e-09
1.00416e-09
7.30619e-09
1.03147e-09
7.03524e-09
1.05744e-09
6.75778e-09
1.08187e-09
6.47425e-09
1.10458e-09
6.18515e-09
1.12535e-09
5.89103e-09
1.14395e-09
5.59251e-09
1.16012e-09
5.29027e-09
1.17361e-09
4.98504e-09
1.18413e-09
4.67765e-09
1.19139e-09
4.36897e-09
1.19507e-09
4.05998e-09
1.19483e-09
3.75171e-09
1.19033e-09
3.44529e-09
1.18122e-09
3.14191e-09
1.16711e-09
2.84286e-09
1.14763e-09
2.5495e-09
1.1224e-09
2.26327e-09
1.09105e-09
1.9857e-09
1.05322e-09
1.71839e-09
1.00857e-09
1.46302e-09
9.56816e-10
1.22133e-09
8.97726e-10
9.95152e-10
8.31157e-10
7.86401e-10
7.57081e-10
5.9707e-10
6.75625e-10
4.29262e-10
5.87105e-10
2.85197e-10
4.92077e-10
1.67258e-10
3.91368e-10
7.80599e-11
2.86113e-10
2.07986e-11
1.76437e-10
6.01362e-11
2.5825e-11
-1.07659e-11
8.52333e-11
-1.29388e-10
1.74039e-10
-3.17226e-10
2.92236e-10
-4.909e-10
4.38193e-10
-6.35593e-10
6.09121e-10
-7.59914e-10
8.02095e-10
-8.68179e-10
1.01433e-09
-9.63029e-10
1.24333e-09
-1.04598e-09
1.4868e-09
-1.1182e-09
1.74266e-09
-1.18048e-09
2.00899e-09
-1.23353e-09
2.28405e-09
-1.27796e-09
2.56617e-09
-1.31434e-09
2.85387e-09
-1.34324e-09
3.14574e-09
-1.36521e-09
3.44051e-09
-1.3808e-09
3.737e-09
-1.39053e-09
4.03416e-09
-1.39494e-09
4.33101e-09
-1.3945e-09
4.6267e-09
-1.38973e-09
4.92043e-09
-1.38105e-09
5.21151e-09
-1.36893e-09
5.49932e-09
-1.35372e-09
5.78332e-09
-1.33587e-09
6.06303e-09
-1.31565e-09
6.33804e-09
-1.29345e-09
6.60799e-09
-1.2695e-09
6.87259e-09
-1.24414e-09
7.13158e-09
-1.21755e-09
7.38476e-09
-1.19e-09
7.63196e-09
-1.16164e-09
7.87306e-09
-1.13268e-09
8.10796e-09
-1.10326e-09
8.33658e-09
-1.07351e-09
8.55889e-09
-1.04356e-09
8.77486e-09
-1.01349e-09
8.98449e-09
-9.83392e-10
9.18779e-09
-9.53333e-10
9.38478e-09
-9.2337e-10
9.5755e-09
-8.93541e-10
9.75999e-09
-8.63882e-10
9.9383e-09
-8.3441e-10
1.01105e-08
-8.05143e-10
1.02766e-08
-7.7608e-10
1.04367e-08
-7.47229e-10
1.05908e-08
-7.18567e-10
1.07389e-08
-6.901e-10
1.08812e-08
-6.6179e-10
1.10177e-08
-6.33637e-10
1.11484e-08
-6.05591e-10
1.12732e-08
-5.77652e-10
1.13924e-08
-5.49761e-10
1.15058e-08
-5.21914e-10
1.16134e-08
-4.9405e-10
1.17153e-08
-4.66161e-10
1.18115e-08
-4.38185e-10
1.19019e-08
-4.1011e-10
1.19864e-08
-3.81877e-10
1.20652e-08
-3.53473e-10
1.2138e-08
-3.24838e-10
1.22049e-08
-2.95961e-10
1.22657e-08
-2.66786e-10
1.23205e-08
-2.37298e-10
1.23691e-08
-2.0745e-10
1.24115e-08
-1.77226e-10
1.24475e-08
-1.46585e-10
1.2477e-08
-1.1551e-10
1.24999e-08
-8.39678e-11
1.25162e-08
-5.19431e-11
1.25256e-08
-1.94088e-11
1.25281e-08
1.36465e-11
1.25236e-08
4.72465e-11
1.25118e-08
8.13946e-11
1.24927e-08
1.16113e-10
1.24661e-08
1.51396e-10
1.24319e-08
1.87264e-10
1.23898e-08
2.237e-10
1.23399e-08
2.60724e-10
1.22819e-08
2.98308e-10
1.22157e-08
3.36469e-10
1.21412e-08
3.7517e-10
1.20581e-08
4.14419e-10
1.19665e-08
4.54173e-10
1.18661e-08
4.9443e-10
1.17568e-08
5.35141e-10
1.16386e-08
5.76291e-10
1.15113e-08
6.17825e-10
1.13747e-08
6.59713e-10
1.1229e-08
7.01894e-10
1.10738e-08
7.44319e-10
1.09093e-08
7.86921e-10
1.07354e-08
8.29633e-10
1.0552e-08
8.72377e-10
1.03592e-08
9.15066e-10
1.01569e-08
9.5761e-10
9.94519e-09
9.99901e-10
9.72416e-09
1.04183e-09
9.4939e-09
1.08327e-09
9.25452e-09
1.1241e-09
9.00618e-09
1.16416e-09
8.74908e-09
1.20329e-09
8.48343e-09
1.24132e-09
8.20952e-09
1.27808e-09
7.92765e-09
1.31334e-09
7.63818e-09
1.34691e-09
7.34152e-09
1.37853e-09
7.03815e-09
1.40797e-09
6.72856e-09
1.43494e-09
6.41335e-09
1.45916e-09
6.09315e-09
1.48032e-09
5.76868e-09
1.49808e-09
5.4407e-09
1.5121e-09
5.11009e-09
1.52201e-09
4.77775e-09
1.5274e-09
4.4447e-09
1.52788e-09
4.11203e-09
1.523e-09
3.78091e-09
1.51234e-09
3.4526e-09
1.49542e-09
3.12845e-09
1.47178e-09
2.8099e-09
1.44096e-09
2.49848e-09
1.40248e-09
2.19581e-09
1.35589e-09
1.90362e-09
1.30076e-09
1.62374e-09
1.2367e-09
1.3581e-09
1.16337e-09
1.10875e-09
1.08051e-09
8.77864e-10
9.87967e-10
6.67754e-10
8.85734e-10
4.80896e-10
7.73966e-10
3.19955e-10
6.53019e-10
1.87838e-10
5.23484e-10
8.77054e-11
3.86248e-10
2.33617e-11
2.40782e-10
8.3498e-11
2.79236e-11
-3.87007e-11
9.55238e-11
-1.96995e-10
1.94857e-10
-4.16572e-10
3.24247e-10
-6.20295e-10
4.81909e-10
-7.93267e-10
6.65138e-10
-9.43146e-10
8.71019e-10
-1.07407e-09
1.09675e-09
-1.18876e-09
1.3397e-09
-1.28894e-09
1.59747e-09
-1.37597e-09
1.86785e-09
-1.45086e-09
2.14879e-09
-1.51448e-09
2.43845e-09
-1.56761e-09
2.73508e-09
-1.61097e-09
3.03712e-09
-1.64528e-09
3.34311e-09
-1.6712e-09
3.65175e-09
-1.68944e-09
3.96182e-09
-1.7006e-09
4.27226e-09
-1.70537e-09
4.58207e-09
-1.7043e-09
4.89037e-09
-1.69804e-09
5.19638e-09
-1.68705e-09
5.4994e-09
-1.67195e-09
5.79881e-09
-1.65313e-09
6.09407e-09
-1.63113e-09
6.3847e-09
-1.60628e-09
6.67031e-09
-1.57906e-09
6.95054e-09
-1.54974e-09
7.22512e-09
-1.51871e-09
7.49378e-09
-1.48621e-09
7.75634e-09
-1.45256e-09
8.01265e-09
-1.41794e-09
8.26257e-09
-1.38261e-09
8.50604e-09
-1.34673e-09
8.74299e-09
-1.31046e-09
8.97338e-09
-1.27395e-09
9.19721e-09
-1.23732e-09
9.41449e-09
-1.20067e-09
9.62523e-09
-1.16407e-09
9.82948e-09
-1.12761e-09
1.00273e-08
-1.09133e-09
1.02187e-08
-1.05527e-09
1.04037e-08
-1.01945e-09
1.05825e-08
-9.83904e-10
1.0755e-08
-9.48616e-10
1.09214e-08
-9.13607e-10
1.10816e-08
-8.78843e-10
1.12359e-08
-8.44334e-10
1.13841e-08
-8.10028e-10
1.15264e-08
-7.7593e-10
1.16628e-08
-7.41975e-10
1.17933e-08
-7.08162e-10
1.1918e-08
-6.74418e-10
1.20368e-08
-6.40736e-10
1.21498e-08
-6.0704e-10
1.22569e-08
-5.73318e-10
1.23583e-08
-5.39493e-10
1.24537e-08
-5.05551e-10
1.25432e-08
-4.71414e-10
1.26268e-08
-4.37066e-10
1.27044e-08
-4.02433e-10
1.2776e-08
-3.67497e-10
1.28414e-08
-3.3219e-10
1.29006e-08
-2.9649e-10
1.29535e-08
-2.6034e-10
1.29999e-08
-2.23713e-10
1.30399e-08
-1.86564e-10
1.30733e-08
-1.48864e-10
1.30999e-08
-1.10577e-10
1.31196e-08
-7.16762e-11
1.31323e-08
-3.21322e-11
1.31379e-08
8.07616e-12
1.31362e-08
4.89739e-11
1.3127e-08
9.05722e-11
1.31102e-08
1.32894e-10
1.30857e-08
1.7594e-10
1.30532e-08
2.19729e-10
1.30127e-08
2.64249e-10
1.29639e-08
3.09519e-10
1.29067e-08
3.55511e-10
1.28409e-08
4.02239e-10
1.27664e-08
4.49666e-10
1.2683e-08
4.97796e-10
1.25906e-08
5.46582e-10
1.24891e-08
5.96016e-10
1.23782e-08
6.46043e-10
1.22578e-08
6.9664e-10
1.21279e-08
7.47742e-10
1.19883e-08
7.99309e-10
1.18389e-08
8.51268e-10
1.16797e-08
9.03556e-10
1.15105e-08
9.56093e-10
1.13314e-08
1.00879e-09
1.11422e-08
1.06156e-09
1.0943e-08
1.11429e-09
1.07337e-08
1.16686e-09
1.05145e-08
1.21915e-09
1.02853e-08
1.27102e-09
1.00462e-08
1.32232e-09
9.79744e-09
1.37288e-09
9.53908e-09
1.42252e-09
9.27132e-09
1.47105e-09
8.9944e-09
1.51825e-09
8.70858e-09
1.5639e-09
8.41418e-09
1.60774e-09
8.11156e-09
1.64953e-09
7.80114e-09
1.68895e-09
7.48339e-09
1.72572e-09
7.15883e-09
1.75949e-09
6.82807e-09
1.78993e-09
6.49175e-09
1.81664e-09
6.15059e-09
1.83924e-09
5.8054e-09
1.85729e-09
5.45706e-09
1.87036e-09
5.1065e-09
1.87796e-09
4.75477e-09
1.87961e-09
4.403e-09
1.87478e-09
4.0524e-09
1.86295e-09
3.70427e-09
1.84355e-09
3.36002e-09
1.81603e-09
3.02117e-09
1.77981e-09
2.68933e-09
1.73432e-09
2.36622e-09
1.67899e-09
2.05371e-09
1.61328e-09
1.75375e-09
1.53665e-09
1.46847e-09
1.44865e-09
1.20012e-09
1.34886e-09
9.51127e-10
1.23696e-09
7.24092e-10
1.11277e-09
5.21828e-10
9.76231e-10
3.47364e-10
8.27484e-10
2.03981e-10
6.6687e-10
9.52537e-11
4.94975e-10
2.53795e-11
3.10657e-10
1.08878e-10
2.90978e-11
-6.78101e-11
1.01698e-10
-2.69604e-10
2.08304e-10
-5.23191e-10
3.46086e-10
-7.58083e-10
5.12863e-10
-9.60055e-10
7.05789e-10
-1.13608e-09
9.21853e-10
-1.29014e-09
1.15816e-09
-1.42506e-09
1.41197e-09
-1.54276e-09
1.68076e-09
-1.64477e-09
1.96221e-09
-1.73231e-09
2.25417e-09
-1.80644e-09
2.5547e-09
-1.86814e-09
2.86199e-09
-1.91826e-09
3.17442e-09
-1.95771e-09
3.49049e-09
-1.98727e-09
3.80888e-09
-2.00782e-09
4.12833e-09
-2.02006e-09
4.44779e-09
-2.02482e-09
4.76623e-09
-2.02274e-09
5.0828e-09
-2.01461e-09
5.39671e-09
-2.00096e-09
5.70727e-09
-1.98251e-09
6.01387e-09
-1.95973e-09
6.316e-09
-1.93325e-09
6.61319e-09
-1.90347e-09
6.90506e-09
-1.87093e-09
7.19127e-09
-1.83595e-09
7.47156e-09
-1.799e-09
7.7457e-09
-1.76035e-09
8.01351e-09
-1.72037e-09
8.27486e-09
-1.67929e-09
8.52964e-09
-1.63739e-09
8.77779e-09
-1.59488e-09
9.01927e-09
-1.55193e-09
9.25405e-09
-1.50873e-09
9.48214e-09
-1.46541e-09
9.70357e-09
-1.4221e-09
9.91837e-09
-1.37887e-09
1.01266e-08
-1.33583e-09
1.03283e-08
-1.29302e-09
1.05235e-08
-1.2505e-09
1.07124e-08
-1.20829e-09
1.08949e-08
-1.16642e-09
1.10711e-08
-1.12489e-09
1.12412e-08
-1.0837e-09
1.14052e-08
-1.04282e-09
1.15632e-08
-1.00227e-09
1.17151e-08
-9.61971e-10
1.18611e-08
-9.21936e-10
1.20012e-08
-8.82085e-10
1.21355e-08
-8.42415e-10
1.22639e-08
-8.02837e-10
1.23865e-08
-7.63343e-10
1.25033e-08
-7.23837e-10
1.26143e-08
-6.84307e-10
1.27195e-08
-6.44656e-10
1.28188e-08
-6.04866e-10
1.29122e-08
-5.64844e-10
1.29997e-08
-5.24566e-10
1.30812e-08
-4.83945e-10
1.31567e-08
-4.42954e-10
1.3226e-08
-4.01514e-10
1.32891e-08
-3.59592e-10
1.33459e-08
-3.17122e-10
1.33962e-08
-2.74068e-10
1.34401e-08
-2.30375e-10
1.34772e-08
-1.86005e-10
1.35075e-08
-1.40916e-10
1.35309e-08
-9.50692e-11
1.35472e-08
-4.84331e-11
1.35563e-08
-9.76458e-13
1.35579e-08
4.73284e-11
1.3552e-08
9.65009e-11
1.35383e-08
1.46565e-10
1.35168e-08
1.97528e-10
1.34871e-08
2.49409e-10
1.34491e-08
3.022e-10
1.34027e-08
3.55916e-10
1.33477e-08
4.10537e-10
1.32839e-08
4.66068e-10
1.32111e-08
5.22476e-10
1.31291e-08
5.79757e-10
1.30378e-08
6.37863e-10
1.29371e-08
6.96779e-10
1.28267e-08
7.56444e-10
1.27065e-08
8.16825e-10
1.25764e-08
8.77852e-10
1.24362e-08
9.39469e-10
1.22859e-08
1.00159e-09
1.21253e-08
1.06415e-09
1.19543e-08
1.12704e-09
1.1773e-08
1.19016e-09
1.15811e-08
1.2534e-09
1.13788e-08
1.31663e-09
1.11659e-08
1.37971e-09
1.09426e-08
1.44249e-09
1.07088e-08
1.5048e-09
1.04647e-08
1.56646e-09
1.02103e-08
1.62728e-09
9.9458e-09
1.68703e-09
9.67135e-09
1.74549e-09
9.3872e-09
1.8024e-09
9.0936e-09
1.8575e-09
8.79085e-09
1.91048e-09
8.47933e-09
1.96105e-09
8.15945e-09
2.00884e-09
7.83166e-09
2.05351e-09
7.4965e-09
2.09465e-09
7.15457e-09
2.13186e-09
6.80652e-09
2.16469e-09
6.45308e-09
2.19268e-09
6.09506e-09
2.21531e-09
5.73334e-09
2.23207e-09
5.3689e-09
2.2424e-09
5.0028e-09
2.24571e-09
4.63618e-09
2.2414e-09
4.2703e-09
2.22883e-09
3.9065e-09
2.20734e-09
3.54626e-09
2.17627e-09
3.19114e-09
2.13493e-09
2.84285e-09
2.08261e-09
2.50322e-09
2.01862e-09
2.17422e-09
1.94228e-09
1.85797e-09
1.85291e-09
1.55675e-09
1.74988e-09
1.273e-09
1.6326e-09
1.00937e-09
1.50059e-09
7.68716e-10
1.35343e-09
5.54097e-10
1.19085e-09
3.68843e-10