/*--------------------------------*- C++ -*----------------------------------*\
  =========                 |
  \\      /  F ield         | OpenFOAM: The Open Source CFD Toolbox
   \\    /   O peration     | Website:  https://openfoam.org
    \\  /    A nd           | Version:  12
     \\/     M anipulation  |
\*---------------------------------------------------------------------------*/
FoamFile
{
    format      ascii;
    class       volScalarField;
    location    "4.5";
    object      epsilon;
}
// * * * * * * * * * * * * * * * * * * * * * * * * * * * * * * * * * * * * * //

dimensions      [0 2 -3 0 0 0 0];

internalField   nonuniform List<scalar> 
5625
(
1.12919e-10
2.13225e-10
4.5185e-10
7.36537e-10
1.05703e-09
1.40559e-09
1.77653e-09
2.16548e-09
2.56884e-09
2.98347e-09
3.40658e-09
3.83559e-09
4.2681e-09
4.70183e-09
5.13462e-09
5.56439e-09
5.98916e-09
6.40704e-09
6.81618e-09
7.21485e-09
7.60137e-09
7.97414e-09
8.33165e-09
8.67246e-09
8.99523e-09
9.29868e-09
9.58165e-09
9.84303e-09
1.00819e-08
1.02972e-08
1.04883e-08
1.06544e-08
1.07949e-08
1.09094e-08
1.09974e-08
1.10586e-08
1.10928e-08
1.11e-08
1.10802e-08
1.10334e-08
1.09598e-08
1.08599e-08
1.07339e-08
1.05825e-08
1.04062e-08
1.02057e-08
9.98174e-09
9.7353e-09
9.46729e-09
9.17877e-09
8.87087e-09
8.54478e-09
8.20179e-09
7.84325e-09
7.47059e-09
7.0853e-09
6.68894e-09
6.28314e-09
5.86958e-09
5.45003e-09
5.0263e-09
4.60029e-09
4.17398e-09
3.74942e-09
3.32878e-09
2.91435e-09
2.50858e-09
2.11415e-09
1.73404e-09
1.37172e-09
1.03141e-09
7.18603e-10
4.4081e-10
2.08002e-10
1.10149e-10
7.63778e-10
4.14305e-10
4.0266e-10
4.80654e-10
6.00801e-10
7.46126e-10
9.08469e-10
1.08312e-09
1.26698e-09
1.45777e-09
1.65367e-09
1.85316e-09
2.05489e-09
2.25765e-09
2.46032e-09
2.66185e-09
2.86124e-09
3.05756e-09
3.24991e-09
3.43744e-09
3.61935e-09
3.79485e-09
3.96323e-09
4.12379e-09
4.27589e-09
4.41892e-09
4.55233e-09
4.67558e-09
4.78822e-09
4.8898e-09
4.97996e-09
5.05834e-09
5.12467e-09
5.17871e-09
5.22026e-09
5.24919e-09
5.26539e-09
5.26883e-09
5.2595e-09
5.23747e-09
5.20283e-09
5.15572e-09
5.09635e-09
5.02495e-09
4.94181e-09
4.84726e-09
4.74167e-09
4.62547e-09
4.49911e-09
4.36308e-09
4.21794e-09
4.06424e-09
3.90261e-09
3.73369e-09
3.55817e-09
3.37676e-09
3.19023e-09
2.99935e-09
2.80495e-09
2.60789e-09
2.40908e-09
2.20947e-09
2.01006e-09
1.81192e-09
1.61621e-09
1.42423e-09
1.23743e-09
1.05755e-09
8.86788e-10
7.28157e-10
5.86222e-10
4.6892e-10
3.92791e-10
4.04136e-10
7.45037e-10
1.69807e-09
8.30189e-10
6.39113e-10
6.02555e-10
6.30967e-10
6.95127e-10
7.81878e-10
8.84064e-10
9.97281e-10
1.11855e-09
1.24572e-09
1.37712e-09
1.51139e-09
1.6474e-09
1.78414e-09
1.92073e-09
2.05635e-09
2.19026e-09
2.32177e-09
2.45022e-09
2.57502e-09
2.69558e-09
2.81138e-09
2.92191e-09
3.0267e-09
3.12531e-09
3.21734e-09
3.30242e-09
3.3802e-09
3.45039e-09
3.5127e-09
3.5669e-09
3.61278e-09
3.65017e-09
3.67893e-09
3.69897e-09
3.71021e-09
3.71262e-09
3.70621e-09
3.691e-09
3.66706e-09
3.63451e-09
3.59347e-09
3.54411e-09
3.48664e-09
3.4213e-09
3.34834e-09
3.26806e-09
3.1808e-09
3.08689e-09
2.98674e-09
2.88076e-09
2.76938e-09
2.65308e-09
2.53236e-09
2.40775e-09
2.27982e-09
2.14914e-09
2.01637e-09
1.88216e-09
1.74724e-09
1.61239e-09
1.47847e-09
1.34643e-09
1.21738e-09
1.09262e-09
9.73762e-10
8.62897e-10
7.62911e-10
6.78084e-10
6.15379e-10
5.87614e-10
6.23271e-10
8.09668e-10
1.65619e-09
2.80896e-09
1.34426e-09
9.73079e-10
8.37562e-10
7.95335e-10
8.0218e-10
8.39123e-10
8.96241e-10
9.67616e-10
1.04937e-09
1.13877e-09
1.2338e-09
1.33286e-09
1.43469e-09
1.53821e-09
1.64249e-09
1.74674e-09
1.85023e-09
1.9523e-09
2.05236e-09
2.14985e-09
2.24426e-09
2.33513e-09
2.42202e-09
2.50452e-09
2.58225e-09
2.65487e-09
2.72207e-09
2.78356e-09
2.83908e-09
2.8884e-09
2.93131e-09
2.96766e-09
2.99728e-09
3.02008e-09
3.03595e-09
3.04485e-09
3.04674e-09
3.04163e-09
3.02954e-09
3.01053e-09
2.98468e-09
2.9521e-09
2.91293e-09
2.86735e-09
2.81553e-09
2.75771e-09
2.69414e-09
2.62507e-09
2.55082e-09
2.47172e-09
2.3881e-09
2.30036e-09
2.20891e-09
2.11417e-09
2.01661e-09
1.91675e-09
1.81512e-09
1.7123e-09
1.60893e-09
1.50572e-09
1.40345e-09
1.30302e-09
1.20544e-09
1.11198e-09
1.02415e-09
9.43927e-10
8.73955e-10
8.18005e-10
7.8184e-10
7.75122e-10
8.16332e-10
9.48564e-10
1.3106e-09
2.73887e-09
4.04678e-09
1.92273e-09
1.36164e-09
1.12944e-09
1.02327e-09
9.8141e-10
9.78104e-10
1.00027e-09
1.04032e-09
1.09339e-09
1.15613e-09
1.22611e-09
1.30146e-09
1.38072e-09
1.46266e-09
1.5463e-09
1.63074e-09
1.71524e-09
1.79911e-09
1.88177e-09
1.96265e-09
2.04126e-09
2.11715e-09
2.18989e-09
2.25911e-09
2.32444e-09
2.38558e-09
2.44221e-09
2.49409e-09
2.54097e-09
2.58264e-09
2.61891e-09
2.64964e-09
2.67468e-09
2.69394e-09
2.70732e-09
2.71479e-09
2.71631e-09
2.71188e-09
2.70153e-09
2.68529e-09
2.66326e-09
2.63552e-09
2.6022e-09
2.56346e-09
2.51947e-09
2.47042e-09
2.41655e-09
2.35811e-09
2.29536e-09
2.22863e-09
2.15822e-09
2.08451e-09
2.00788e-09
1.92874e-09
1.84755e-09
1.76481e-09
1.68106e-09
1.59688e-09
1.51294e-09
1.42999e-09
1.34885e-09
1.27052e-09
1.19617e-09
1.12723e-09
1.0655e-09
1.01335e-09
9.74031e-10
9.5228e-10
9.55483e-10
9.96368e-10
1.10002e-09
1.32656e-09
1.87363e-09
3.94388e-09
5.38024e-09
2.5482e-09
1.78708e-09
1.45687e-09
1.28892e-09
1.20216e-09
1.16323e-09
1.1555e-09
1.16951e-09
1.19932e-09
1.24091e-09
1.2914e-09
1.34863e-09
1.41092e-09
1.4769e-09
1.54545e-09
1.61561e-09
1.68657e-09
1.75761e-09
1.82809e-09
1.89745e-09
1.96517e-09
2.0308e-09
2.0939e-09
2.1541e-09
2.21106e-09
2.26444e-09
2.31398e-09
2.3594e-09
2.40048e-09
2.43702e-09
2.46884e-09
2.49578e-09
2.51773e-09
2.53457e-09
2.54623e-09
2.55266e-09
2.55384e-09
2.54976e-09
2.54044e-09
2.52593e-09
2.5063e-09
2.48164e-09
2.45207e-09
2.41774e-09
2.37881e-09
2.33548e-09
2.28797e-09
2.23651e-09
2.18137e-09
2.12286e-09
2.06129e-09
1.99702e-09
1.93044e-09
1.86196e-09
1.79206e-09
1.72124e-09
1.65005e-09
1.57913e-09
1.50918e-09
1.44099e-09
1.3755e-09
1.3138e-09
1.25722e-09
1.20738e-09
1.1664e-09
1.13707e-09
1.12328e-09
1.13082e-09
1.16889e-09
1.25368e-09
1.41762e-09
1.73964e-09
2.4813e-09
5.23968e-09
6.78636e-09
3.2089e-09
2.23914e-09
1.80881e-09
1.57956e-09
1.4497e-09
1.37766e-09
1.34296e-09
1.33407e-09
1.34387e-09
1.36761e-09
1.40194e-09
1.44437e-09
1.493e-09
1.54628e-09
1.60297e-09
1.66203e-09
1.72257e-09
1.78381e-09
1.84509e-09
1.90579e-09
1.96539e-09
2.02341e-09
2.0794e-09
2.13299e-09
2.18381e-09
2.23154e-09
2.2759e-09
2.31663e-09
2.3535e-09
2.38629e-09
2.41485e-09
2.43902e-09
2.45866e-09
2.47369e-09
2.48403e-09
2.48962e-09
2.49044e-09
2.48649e-09
2.47778e-09
2.46437e-09
2.44632e-09
2.42372e-09
2.39669e-09
2.36538e-09
2.32995e-09
2.29059e-09
2.24752e-09
2.20098e-09
2.15124e-09
2.0986e-09
2.04339e-09
1.98597e-09
1.92674e-09
1.86612e-09
1.80461e-09
1.74273e-09
1.68109e-09
1.62033e-09
1.56123e-09
1.50466e-09
1.45163e-09
1.40336e-09
1.36132e-09
1.32738e-09
1.30395e-09
1.29428e-09
1.30298e-09
1.33697e-09
1.40745e-09
1.53434e-09
1.75801e-09
2.17737e-09
3.12152e-09
6.60258e-09
8.24678e-09
3.89578e-09
2.71062e-09
2.17815e-09
1.88753e-09
1.71549e-09
1.61186e-09
1.55202e-09
1.52228e-09
1.51423e-09
1.52234e-09
1.54274e-09
1.5726e-09
1.60976e-09
1.65251e-09
1.69949e-09
1.74953e-09
1.80168e-09
1.85511e-09
1.90909e-09
1.96298e-09
2.01622e-09
2.06831e-09
2.11879e-09
2.16726e-09
2.21336e-09
2.25674e-09
2.29713e-09
2.33425e-09
2.36786e-09
2.39778e-09
2.42381e-09
2.4458e-09
2.46363e-09
2.4772e-09
2.48644e-09
2.49128e-09
2.49171e-09
2.48772e-09
2.47934e-09
2.46661e-09
2.44959e-09
2.42839e-09
2.40312e-09
2.37393e-09
2.34098e-09
2.30447e-09
2.26462e-09
2.22168e-09
2.17592e-09
2.12765e-09
2.07721e-09
2.02497e-09
1.97135e-09
1.9168e-09
1.86182e-09
1.80699e-09
1.75292e-09
1.70033e-09
1.65004e-09
1.60299e-09
1.5603e-09
1.5233e-09
1.49365e-09
1.47344e-09
1.46541e-09
1.47331e-09
1.50251e-09
1.56115e-09
1.66253e-09
1.83054e-09
2.11387e-09
2.63224e-09
3.78472e-09
8.0131e-09
9.74607e-09
4.60136e-09
3.19587e-09
2.55971e-09
2.20754e-09
1.99387e-09
1.85963e-09
1.77593e-09
1.72677e-09
1.70241e-09
1.69647e-09
1.70456e-09
1.72346e-09
1.75075e-09
1.78456e-09
1.82335e-09
1.86587e-09
1.91109e-09
1.9581e-09
2.00613e-09
2.0545e-09
2.10261e-09
2.14995e-09
2.19602e-09
2.24041e-09
2.28274e-09
2.32267e-09
2.35989e-09
2.39413e-09
2.42515e-09
2.45274e-09
2.47672e-09
2.49694e-09
2.51326e-09
2.52559e-09
2.53385e-09
2.53799e-09
2.53798e-09
2.53382e-09
2.52553e-09
2.51317e-09
2.49679e-09
2.47651e-09
2.45244e-09
2.42473e-09
2.39355e-09
2.35911e-09
2.32162e-09
2.28136e-09
2.23859e-09
2.19364e-09
2.14686e-09
2.09864e-09
2.04941e-09
1.99965e-09
1.94989e-09
1.90073e-09
1.85283e-09
1.80696e-09
1.76399e-09
1.72495e-09
1.69106e-09
1.66378e-09
1.64495e-09
1.63689e-09
1.64272e-09
1.66669e-09
1.71497e-09
1.79699e-09
1.92825e-09
2.13672e-09
2.47966e-09
3.09811e-09
4.46273e-09
9.45432e-09
1.12709e-08
5.31922e-09
3.69021e-09
2.94936e-09
2.53556e-09
2.2807e-09
2.11659e-09
2.00997e-09
1.94246e-09
1.90294e-09
1.88417e-09
1.88117e-09
1.89033e-09
1.90899e-09
1.93504e-09
1.96682e-09
2.00297e-09
2.04235e-09
2.084e-09
2.12709e-09
2.17091e-09
2.21482e-09
2.25826e-09
2.30074e-09
2.34181e-09
2.38108e-09
2.41818e-09
2.45282e-09
2.4847e-09
2.51358e-09
2.53925e-09
2.56152e-09
2.58023e-09
2.59524e-09
2.60647e-09
2.61383e-09
2.61727e-09
2.61676e-09
2.61231e-09
2.60394e-09
2.59169e-09
2.57565e-09
2.55592e-09
2.53262e-09
2.50591e-09
2.47596e-09
2.44298e-09
2.40722e-09
2.36892e-09
2.32839e-09
2.28597e-09
2.24201e-09
2.19692e-09
2.15116e-09
2.10523e-09
2.05968e-09
2.01515e-09
1.97235e-09
1.93209e-09
1.89531e-09
1.86313e-09
1.83685e-09
1.81809e-09
1.80887e-09
1.81177e-09
1.83026e-09
1.86915e-09
1.93542e-09
2.03983e-09
2.20013e-09
2.44847e-09
2.85079e-09
3.5697e-09
5.14826e-09
1.0911e-08
1.28094e-08
6.04375e-09
4.18958e-09
3.34366e-09
2.86836e-09
2.57274e-09
2.37938e-09
2.2506e-09
2.16561e-09
2.11184e-09
2.08119e-09
2.06806e-09
2.06848e-09
2.07946e-09
2.0987e-09
2.1244e-09
2.15507e-09
2.18948e-09
2.22661e-09
2.26556e-09
2.30558e-09
2.346e-09
2.38622e-09
2.42572e-09
2.46405e-09
2.50078e-09
2.53556e-09
2.56805e-09
2.59796e-09
2.62504e-09
2.64907e-09
2.66986e-09
2.68725e-09
2.70109e-09
2.7113e-09
2.71779e-09
2.72052e-09
2.71945e-09
2.71459e-09
2.70597e-09
2.69364e-09
2.67768e-09
2.65819e-09
2.63531e-09
2.6092e-09
2.58005e-09
2.54806e-09
2.51349e-09
2.47662e-09
2.43774e-09
2.3972e-09
2.35539e-09
2.31274e-09
2.26971e-09
2.22683e-09
2.18469e-09
2.14397e-09
2.10541e-09
2.06987e-09
2.03838e-09
2.01211e-09
1.9925e-09
1.9813e-09
1.98071e-09
1.99359e-09
2.02378e-09
2.07665e-09
2.16001e-09
2.28596e-09
2.47454e-09
2.76208e-09
3.22322e-09
4.04224e-09
5.83463e-09
1.23692e-08
1.43512e-08
6.76997e-09
4.69045e-09
3.73963e-09
3.20321e-09
2.86733e-09
2.64533e-09
2.49506e-09
2.3933e-09
2.32605e-09
2.28429e-09
2.26184e-09
2.25429e-09
2.25838e-09
2.2716e-09
2.29196e-09
2.31788e-09
2.34802e-09
2.38129e-09
2.41675e-09
2.45357e-09
2.49106e-09
2.52859e-09
2.56562e-09
2.60166e-09
2.63628e-09
2.6691e-09
2.69977e-09
2.72801e-09
2.75354e-09
2.77615e-09
2.79563e-09
2.81182e-09
2.82458e-09
2.83382e-09
2.83945e-09
2.84143e-09
2.83973e-09
2.83435e-09
2.82533e-09
2.81272e-09
2.79661e-09
2.77711e-09
2.75435e-09
2.72852e-09
2.69979e-09
2.6684e-09
2.6346e-09
2.59867e-09
2.56094e-09
2.52178e-09
2.48157e-09
2.44076e-09
2.39985e-09
2.3594e-09
2.32001e-09
2.2824e-09
2.24737e-09
2.21583e-09
2.18886e-09
2.16774e-09
2.15401e-09
2.14955e-09
2.15678e-09
2.17882e-09
2.2199e-09
2.28593e-09
2.38557e-09
2.53227e-09
2.74832e-09
3.07424e-09
3.59333e-09
4.51132e-09
6.51561e-09
1.38157e-08
1.58869e-08
7.49348e-09
5.18971e-09
4.1347e-09
3.53778e-09
3.16224e-09
2.91222e-09
2.74108e-09
2.6232e-09
2.54313e-09
2.49092e-09
2.45981e-09
2.44496e-09
2.44281e-09
2.45063e-09
2.46628e-09
2.48804e-09
2.5145e-09
2.54446e-09
2.57694e-09
2.61106e-09
2.64608e-09
2.68135e-09
2.71629e-09
2.75041e-09
2.78324e-09
2.81439e-09
2.84351e-09
2.87029e-09
2.89447e-09
2.9158e-09
2.93409e-09
2.94917e-09
2.96091e-09
2.96919e-09
2.97394e-09
2.97512e-09
2.9727e-09
2.96669e-09
2.95712e-09
2.94406e-09
2.9276e-09
2.90785e-09
2.88496e-09
2.8591e-09
2.83048e-09
2.79934e-09
2.76593e-09
2.73056e-09
2.69357e-09
2.65532e-09
2.61624e-09
2.57679e-09
2.53749e-09
2.49891e-09
2.46172e-09
2.42664e-09
2.39453e-09
2.36636e-09
2.34328e-09
2.32665e-09
2.31811e-09
2.31971e-09
2.33405e-09
2.36454e-09
2.41577e-09
2.4942e-09
2.60936e-09
2.77599e-09
3.01864e-09
3.38194e-09
3.9577e-09
4.97279e-09
7.1853e-09
1.5238e-08
1.74083e-08
8.21035e-09
5.6846e-09
4.52662e-09
3.87006e-09
3.45558e-09
3.17817e-09
2.9868e-09
2.85339e-09
2.76108e-09
2.69901e-09
2.65981e-09
2.63822e-09
2.63038e-09
2.63334e-09
2.64479e-09
2.6629e-09
2.68613e-09
2.71324e-09
2.74316e-09
2.77497e-09
2.8079e-09
2.84125e-09
2.87443e-09
2.9069e-09
2.9382e-09
2.96791e-09
2.99567e-09
3.02117e-09
3.04412e-09
3.06428e-09
3.08146e-09
3.09548e-09
3.1062e-09
3.11352e-09
3.11736e-09
3.11767e-09
3.11445e-09
3.10768e-09
3.09743e-09
3.08374e-09
3.06673e-09
3.04651e-09
3.02324e-09
2.99711e-09
2.96831e-09
2.9371e-09
2.90377e-09
2.8686e-09
2.83197e-09
2.79426e-09
2.7559e-09
2.71737e-09
2.67923e-09
2.64206e-09
2.60657e-09
2.57353e-09
2.54382e-09
2.51848e-09
2.49873e-09
2.486e-09
2.48207e-09
2.48912e-09
2.50994e-09
2.54822e-09
2.60891e-09
2.69904e-09
2.82894e-09
3.01465e-09
3.28292e-09
3.68238e-09
4.31317e-09
5.42273e-09
7.83808e-09
1.66243e-08
1.89083e-08
8.91718e-09
6.17273e-09
4.91343e-09
4.19831e-09
3.74571e-09
3.44162e-09
3.23062e-09
3.08227e-09
2.97827e-09
2.90686e-09
2.86006e-09
2.83222e-09
2.81915e-09
2.81771e-09
2.82539e-09
2.84025e-09
2.86066e-09
2.88528e-09
2.91299e-09
2.94283e-09
2.97396e-09
3.00567e-09
3.03732e-09
3.06837e-09
3.09833e-09
3.12677e-09
3.15332e-09
3.17765e-09
3.19946e-09
3.21853e-09
3.23463e-09
3.2476e-09
3.2573e-09
3.26362e-09
3.26648e-09
3.26585e-09
3.26171e-09
3.25407e-09
3.24297e-09
3.2285e-09
3.21075e-09
3.18986e-09
3.16599e-09
3.13932e-09
3.11009e-09
3.07854e-09
3.04497e-09
3.0097e-09
2.9731e-09
2.93557e-09
2.89757e-09
2.85959e-09
2.82221e-09
2.78605e-09
2.75184e-09
2.72038e-09
2.69261e-09
2.66963e-09
2.6527e-09
2.64337e-09
2.64351e-09
2.65545e-09
2.68218e-09
2.72763e-09
2.79713e-09
2.89824e-09
3.04208e-09
3.24596e-09
3.53874e-09
3.97293e-09
4.65671e-09
5.8574e-09
8.46857e-09
1.79633e-08
2.03804e-08
9.611e-09
6.65203e-09
5.29345e-09
4.52105e-09
4.03127e-09
3.70123e-09
3.47124e-09
3.3085e-09
3.19331e-09
3.11304e-09
3.05911e-09
3.02543e-09
3.00755e-09
3.00207e-09
3.00636e-09
3.01831e-09
3.03622e-09
3.05866e-09
3.08444e-09
3.11255e-09
3.14212e-09
3.1724e-09
3.20272e-09
3.23252e-09
3.26129e-09
3.28858e-09
3.314e-09
3.33723e-09
3.35796e-09
3.37595e-09
3.39098e-09
3.40289e-09
3.41152e-09
3.41678e-09
3.41859e-09
3.41691e-09
3.41174e-09
3.40308e-09
3.391e-09
3.37557e-09
3.3569e-09
3.33513e-09
3.31043e-09
3.28301e-09
3.25309e-09
3.22094e-09
3.18687e-09
3.15121e-09
3.11434e-09
3.07668e-09
3.0387e-09
3.00093e-09
2.96396e-09
2.92844e-09
2.89512e-09
2.86486e-09
2.83862e-09
2.81756e-09
2.80302e-09
2.79662e-09
2.80034e-09
2.81665e-09
2.84873e-09
2.90076e-09
2.97842e-09
3.08978e-09
3.24673e-09
3.46779e-09
3.78382e-09
4.25109e-09
4.98542e-09
6.27318e-09
9.0716e-09
1.92438e-08
2.18196e-08
1.02893e-08
7.12077e-09
5.66528e-09
4.83704e-09
4.3111e-09
3.9559e-09
3.70755e-09
3.53097e-09
3.4051e-09
3.3164e-09
3.25573e-09
3.2166e-09
3.19425e-09
3.18507e-09
3.18627e-09
3.1956e-09
3.21127e-09
3.23177e-09
3.25585e-09
3.28244e-09
3.31063e-09
3.33963e-09
3.36877e-09
3.39743e-09
3.42509e-09
3.4513e-09
3.47566e-09
3.49782e-09
3.51747e-09
3.53438e-09
3.54831e-09
3.5591e-09
3.5666e-09
3.57071e-09
3.57136e-09
3.56852e-09
3.56218e-09
3.55236e-09
3.53912e-09
3.52255e-09
3.50277e-09
3.47992e-09
3.45419e-09
3.42578e-09
3.39494e-09
3.36194e-09
3.32711e-09
3.29079e-09
3.25338e-09
3.2153e-09
3.17706e-09
3.13919e-09
3.10231e-09
3.06709e-09
3.03433e-09
3.00489e-09
2.97982e-09
2.96029e-09
2.94773e-09
2.94383e-09
2.95067e-09
2.97086e-09
3.00775e-09
3.06577e-09
3.15093e-09
3.27179e-09
3.44096e-09
3.6781e-09
4.01601e-09
4.51445e-09
5.29653e-09
6.66661e-09
9.64216e-09
2.04554e-08
2.32215e-08
1.09502e-08
7.57755e-09
6.02777e-09
5.14528e-09
4.58426e-09
4.20472e-09
3.93868e-09
3.7488e-09
3.61269e-09
3.51599e-09
3.44895e-09
3.4047e-09
3.37818e-09
3.36559e-09
3.36394e-09
3.3709e-09
3.38454e-09
3.40329e-09
3.42584e-09
3.45106e-09
3.47801e-09
3.50585e-09
3.53388e-09
3.56147e-09
3.58809e-09
3.61325e-09
3.63655e-09
3.65763e-09
3.67618e-09
3.69195e-09
3.70472e-09
3.71431e-09
3.72058e-09
3.72343e-09
3.7228e-09
3.71866e-09
3.711e-09
3.69985e-09
3.68528e-09
3.66738e-09
3.64629e-09
3.62216e-09
3.59517e-09
3.56555e-09
3.53356e-09
3.49948e-09
3.46364e-09
3.42641e-09
3.38819e-09
3.34943e-09
3.31065e-09
3.27239e-09
3.23531e-09
3.2001e-09
3.16757e-09
3.13864e-09
3.11438e-09
3.09602e-09
3.08505e-09
3.08324e-09
3.09276e-09
3.11635e-09
3.15753e-09
3.22095e-09
3.31295e-09
3.44251e-09
3.62295e-09
3.875e-09
4.23324e-09
4.76073e-09
5.58738e-09
7.03436e-09
1.01755e-08
2.15879e-08
2.45828e-08
1.1592e-08
8.02127e-09
6.38003e-09
5.44499e-09
4.85004e-09
4.44699e-09
4.16391e-09
3.96127e-09
3.81538e-09
3.71105e-09
3.63798e-09
3.58891e-09
3.55849e-09
3.54272e-09
3.53845e-09
3.54322e-09
3.555e-09
3.57216e-09
3.5933e-09
3.61726e-09
3.64304e-09
3.66979e-09
3.69677e-09
3.72332e-09
3.74889e-09
3.77299e-09
3.7952e-09
3.81516e-09
3.83254e-09
3.8471e-09
3.8586e-09
3.86688e-09
3.87179e-09
3.87325e-09
3.87118e-09
3.86557e-09
3.85641e-09
3.84375e-09
3.82765e-09
3.80823e-09
3.78562e-09
3.75999e-09
3.73153e-09
3.70048e-09
3.66711e-09
3.63171e-09
3.59463e-09
3.55624e-09
3.51697e-09
3.47728e-09
3.43769e-09
3.39878e-09
3.36122e-09
3.32573e-09
3.29314e-09
3.26441e-09
3.24064e-09
3.22312e-09
3.21338e-09
3.21327e-09
3.22504e-09
3.25157e-09
3.29651e-09
3.36472e-09
3.46285e-09
3.6003e-09
3.79099e-09
4.05666e-09
4.43355e-09
4.98774e-09
5.8554e-09
7.37322e-09
1.06669e-08
2.26315e-08
2.59013e-08
1.22137e-08
8.45118e-09
6.72146e-09
5.73561e-09
5.1079e-09
4.68221e-09
4.38273e-09
4.16785e-09
4.01262e-09
3.90102e-09
3.82223e-09
3.7686e-09
3.73452e-09
3.71577e-09
3.70905e-09
3.71178e-09
3.72184e-09
3.7375e-09
3.75733e-09
3.78009e-09
3.80476e-09
3.83045e-09
3.85637e-09
3.88187e-09
3.90637e-09
3.92936e-09
3.95041e-09
3.96915e-09
3.98527e-09
3.99849e-09
4.0086e-09
4.01542e-09
4.01882e-09
4.0187e-09
4.01502e-09
4.00774e-09
3.99689e-09
3.98251e-09
3.96468e-09
3.94352e-09
3.91917e-09
3.89181e-09
3.86165e-09
3.82894e-09
3.79395e-09
3.757e-09
3.71844e-09
3.67866e-09
3.63809e-09
3.59722e-09
3.55658e-09
3.51677e-09
3.47847e-09
3.44243e-09
3.40951e-09
3.3807e-09
3.35711e-09
3.3401e-09
3.33124e-09
3.33244e-09
3.34605e-09
3.37504e-09
3.42321e-09
3.4956e-09
3.59913e-09
3.74359e-09
3.94346e-09
4.22137e-09
4.61507e-09
5.19338e-09
6.09816e-09
7.68012e-09
1.11119e-08
2.35766e-08
2.71757e-08
1.28146e-08
8.86684e-09
7.05168e-09
6.01681e-09
5.35753e-09
4.91004e-09
4.59481e-09
4.3682e-09
4.20402e-09
4.08549e-09
4.00126e-09
3.94331e-09
3.90577e-09
3.88421e-09
3.87519e-09
3.876e-09
3.88442e-09
3.89867e-09
3.91723e-09
3.93883e-09
3.9624e-09
3.987e-09
4.01184e-09
4.03624e-09
4.05959e-09
4.08139e-09
4.10117e-09
4.11858e-09
4.13329e-09
4.14502e-09
4.15356e-09
4.15875e-09
4.16044e-09
4.15855e-09
4.15304e-09
4.14388e-09
4.13111e-09
4.11477e-09
4.09497e-09
4.07183e-09
4.0455e-09
4.01618e-09
3.98409e-09
3.94947e-09
3.91263e-09
3.87389e-09
3.83361e-09
3.79219e-09
3.75009e-09
3.7078e-09
3.66587e-09
3.62492e-09
3.58564e-09
3.5488e-09
3.51528e-09
3.4861e-09
3.46241e-09
3.44559e-09
3.43727e-09
3.43941e-09
3.45444e-09
3.48542e-09
3.53627e-09
3.61221e-09
3.72039e-09
3.87092e-09
4.07882e-09
4.36749e-09
4.77602e-09
5.37567e-09
6.3133e-09
7.95211e-09
1.15064e-08
2.44144e-08
2.84057e-08
1.33947e-08
9.26815e-09
7.37059e-09
6.28848e-09
5.5988e-09
5.13034e-09
4.79999e-09
4.56212e-09
4.38938e-09
4.26423e-09
4.17482e-09
4.11276e-09
4.07193e-09
4.0477e-09
4.03649e-09
4.03546e-09
4.04232e-09
4.05519e-09
4.0725e-09
4.09293e-09
4.11537e-09
4.13885e-09
4.16255e-09
4.18575e-09
4.20786e-09
4.22832e-09
4.24671e-09
4.26262e-09
4.27574e-09
4.28579e-09
4.29257e-09
4.29589e-09
4.29565e-09
4.29175e-09
4.28416e-09
4.27288e-09
4.25793e-09
4.23939e-09
4.21736e-09
4.19197e-09
4.16341e-09
4.13186e-09
4.09757e-09
4.0608e-09
4.02185e-09
3.98107e-09
3.93883e-09
3.89554e-09
3.85167e-09
3.80773e-09
3.76427e-09
3.72194e-09
3.68143e-09
3.64355e-09
3.60918e-09
3.57935e-09
3.55528e-09
3.53835e-09
3.53023e-09
3.53294e-09
3.54897e-09
3.58145e-09
3.63443e-09
3.71326e-09
3.82529e-09
3.98094e-09
4.19564e-09
4.4935e-09
4.91473e-09
5.5327e-09
6.49863e-09
8.18639e-09
1.18462e-08
2.51361e-08
2.9592e-08
1.39542e-08
9.6553e-09
7.67833e-09
6.55072e-09
5.83177e-09
5.34315e-09
4.99826e-09
4.74959e-09
4.56864e-09
4.43716e-09
4.34278e-09
4.2768e-09
4.23283e-09
4.20605e-09
4.19274e-09
4.18994e-09
4.19527e-09
4.20677e-09
4.22282e-09
4.24205e-09
4.2633e-09
4.28558e-09
4.30803e-09
4.32993e-09
4.35064e-09
4.36962e-09
4.38642e-09
4.40064e-09
4.41196e-09
4.4201e-09
4.42486e-09
4.42608e-09
4.42363e-09
4.41745e-09
4.40751e-09
4.39381e-09
4.3764e-09
4.35536e-09
4.33081e-09
4.3029e-09
4.27181e-09
4.23776e-09
4.20099e-09
4.1618e-09
4.12048e-09
4.0774e-09
4.03295e-09
3.98754e-09
3.94166e-09
3.89582e-09
3.85061e-09
3.80665e-09
3.76469e-09
3.72551e-09
3.69004e-09
3.65932e-09
3.63457e-09
3.61723e-09
3.60898e-09
3.61189e-09
3.6285e-09
3.662e-09
3.71653e-09
3.79757e-09
3.91264e-09
4.07238e-09
4.29259e-09
4.59795e-09
5.02963e-09
5.66273e-09
6.65205e-09
8.38035e-09
1.21275e-08
2.57338e-08
3.07361e-08
1.44939e-08
1.00288e-08
7.97528e-09
6.80382e-09
6.05668e-09
5.54865e-09
5.18978e-09
4.93072e-09
4.7419e-09
4.60433e-09
4.5052e-09
4.43545e-09
4.38846e-09
4.35922e-09
4.34387e-09
4.33934e-09
4.34315e-09
4.35328e-09
4.36803e-09
4.386e-09
4.40599e-09
4.42696e-09
4.44803e-09
4.46847e-09
4.48761e-09
4.50491e-09
4.51991e-09
4.5322e-09
4.54146e-09
4.54743e-09
4.54989e-09
4.5487e-09
4.54375e-09
4.53498e-09
4.52236e-09
4.50592e-09
4.48573e-09
4.46186e-09
4.43447e-09
4.40372e-09
4.36979e-09
4.33293e-09
4.2934e-09
4.25148e-09
4.20752e-09
4.16187e-09
4.11494e-09
4.06716e-09
4.01902e-09
3.97104e-09
3.92383e-09
3.87802e-09
3.83436e-09
3.79365e-09
3.75683e-09
3.72496e-09
3.69927e-09
3.6812e-09
3.6725e-09
3.67523e-09
3.69199e-09
3.72602e-09
3.78152e-09
3.86406e-09
3.9813e-09
4.14407e-09
4.36845e-09
4.67954e-09
5.11928e-09
5.76412e-09
6.77164e-09
8.53156e-09
1.23469e-08
2.61999e-08
3.18406e-08
1.50149e-08
1.03894e-08
8.26205e-09
7.04828e-09
6.27395e-09
5.7472e-09
5.37485e-09
5.10579e-09
4.90937e-09
4.76595e-09
4.66224e-09
4.58887e-09
4.53895e-09
4.50733e-09
4.48999e-09
4.48374e-09
4.48603e-09
4.49475e-09
4.50815e-09
4.52478e-09
4.54339e-09
4.56291e-09
4.58245e-09
4.60124e-09
4.61861e-09
4.634e-09
4.64694e-09
4.65702e-09
4.66394e-09
4.66742e-09
4.66727e-09
4.66334e-09
4.65553e-09
4.64381e-09
4.62816e-09
4.60862e-09
4.58528e-09
4.55824e-09
4.52765e-09
4.4937e-09
4.4566e-09
4.41659e-09
4.37396e-09
4.32902e-09
4.28211e-09
4.2336e-09
4.18391e-09
4.13349e-09
4.08283e-09
4.03247e-09
3.98302e-09
3.93512e-09
3.88952e-09
3.84705e-09
3.80863e-09
3.77535e-09
3.74844e-09
3.72936e-09
3.71987e-09
3.72205e-09
3.73852e-09
3.77257e-09
3.82844e-09
3.91177e-09
4.03028e-09
4.19497e-09
4.4221e-09
4.73709e-09
5.18238e-09
5.83539e-09
6.85567e-09
8.6378e-09
1.25011e-08
2.65277e-08
3.29088e-08
1.55188e-08
1.07383e-08
8.53944e-09
7.28476e-09
6.48415e-09
5.93929e-09
5.55391e-09
5.27518e-09
5.07143e-09
4.92235e-09
4.81421e-09
4.73732e-09
4.68458e-09
4.65062e-09
4.63131e-09
4.62336e-09
4.6241e-09
4.63137e-09
4.64335e-09
4.65853e-09
4.67562e-09
4.69355e-09
4.71137e-09
4.7283e-09
4.74365e-09
4.75686e-09
4.76745e-09
4.77502e-09
4.77925e-09
4.7799e-09
4.77676e-09
4.76971e-09
4.75866e-09
4.74359e-09
4.72451e-09
4.70147e-09
4.67457e-09
4.64395e-09
4.60977e-09
4.57224e-09
4.53158e-09
4.48807e-09
4.442e-09
4.39369e-09
4.34351e-09
4.29183e-09
4.23909e-09
4.18575e-09
4.13231e-09
4.07931e-09
4.02737e-09
3.97714e-09
3.92937e-09
3.88489e-09
3.84463e-09
3.80968e-09
3.78129e-09
3.7609e-09
3.75028e-09
3.75154e-09
3.7673e-09
3.80085e-09
3.85647e-09
3.93984e-09
4.05872e-09
4.22417e-09
4.45258e-09
4.76954e-09
5.21778e-09
5.87525e-09
6.90259e-09
8.69713e-09
1.25873e-08
2.6711e-08
3.39447e-08
1.60075e-08
1.10766e-08
8.80847e-09
7.5141e-09
6.68798e-09
6.12555e-09
5.72752e-09
5.43941e-09
5.22854e-09
5.07397e-09
4.96153e-09
4.88122e-09
4.82572e-09
4.78948e-09
4.76822e-09
4.75856e-09
4.75772e-09
4.76346e-09
4.77393e-09
4.78754e-09
4.80298e-09
4.81913e-09
4.83501e-09
4.84984e-09
4.8629e-09
4.87363e-09
4.88154e-09
4.88624e-09
4.88742e-09
4.88483e-09
4.87829e-09
4.86769e-09
4.85297e-09
4.8341e-09
4.81114e-09
4.78415e-09
4.75325e-09
4.71861e-09
4.68041e-09
4.63887e-09
4.59425e-09
4.54684e-09
4.49694e-09
4.44491e-09
4.39111e-09
4.33594e-09
4.27984e-09
4.22328e-09
4.16678e-09
4.11088e-09
4.05619e-09
4.00339e-09
3.95321e-09
3.90649e-09
3.86415e-09
3.82729e-09
3.79713e-09
3.77514e-09
3.76308e-09
3.76304e-09
3.77763e-09
3.81018e-09
3.86493e-09
3.94757e-09
4.06588e-09
4.23092e-09
4.4591e-09
4.77604e-09
5.22453e-09
5.8826e-09
6.91113e-09
8.70791e-09
1.26031e-08
2.67448e-08
3.4953e-08
1.64832e-08
1.14058e-08
9.07029e-09
7.73726e-09
6.88627e-09
6.30671e-09
5.89635e-09
5.59908e-09
5.38127e-09
5.22134e-09
5.10472e-09
5.02108e-09
4.96287e-09
4.92439e-09
4.90119e-09
4.8898e-09
4.88734e-09
4.8915e-09
4.90035e-09
4.91227e-09
4.92588e-09
4.94004e-09
4.95376e-09
4.96621e-09
4.97668e-09
4.98459e-09
4.98945e-09
4.99089e-09
4.98859e-09
4.98232e-09
4.97192e-09
4.9573e-09
4.9384e-09
4.91525e-09
4.88791e-09
4.85647e-09
4.82108e-09
4.78193e-09
4.73923e-09
4.69323e-09
4.6442e-09
4.59246e-09
4.53833e-09
4.48218e-09
4.4244e-09
4.36539e-09
4.3056e-09
4.24553e-09
4.18568e-09
4.1266e-09
4.06892e-09
4.0133e-09
3.96048e-09
3.91127e-09
3.86663e-09
3.8276e-09
3.79542e-09
3.77155e-09
3.75772e-09
3.75601e-09
3.76902e-09
3.80004e-09
3.8533e-09
3.93445e-09
4.05125e-09
4.21468e-09
4.44109e-09
4.75598e-09
5.20194e-09
5.85667e-09
6.88033e-09
8.66893e-09
1.25467e-08
2.66254e-08
3.59389e-08
1.69484e-08
1.17278e-08
9.32619e-09
7.9553e-09
7.07994e-09
6.48359e-09
6.06113e-09
5.75489e-09
5.53028e-09
5.36512e-09
5.2444e-09
5.1575e-09
5.09664e-09
5.05594e-09
5.03083e-09
5.01769e-09
5.01358e-09
5.01607e-09
5.0232e-09
5.03327e-09
5.04488e-09
5.05683e-09
5.06812e-09
5.07789e-09
5.08542e-09
5.09013e-09
5.09154e-09
5.08927e-09
5.08303e-09
5.07259e-09
5.05782e-09
5.03864e-09
5.01504e-09
4.98705e-09
4.95478e-09
4.91834e-09
4.87792e-09
4.83373e-09
4.78602e-09
4.73505e-09
4.68114e-09
4.6246e-09
4.56581e-09
4.50512e-09
4.44296e-09
4.37975e-09
4.31595e-09
4.25204e-09
4.18855e-09
4.12604e-09
4.06511e-09
4.00643e-09
3.95072e-09
3.89882e-09
3.85163e-09
3.8102e-09
3.77576e-09
3.74972e-09
3.7338e-09
3.73006e-09
3.74105e-09
3.77002e-09
3.82117e-09
3.90006e-09
4.01437e-09
4.17498e-09
4.39805e-09
4.70881e-09
5.14943e-09
5.7968e-09
6.80941e-09
8.5792e-09
1.24166e-08
2.63495e-08
3.6908e-08
1.74055e-08
1.20441e-08
9.57755e-09
8.16936e-09
7.26998e-09
6.65706e-09
6.22268e-09
5.9076e-09
5.6763e-09
5.506e-09
5.38126e-09
5.29117e-09
5.22772e-09
5.18484e-09
5.15782e-09
5.14292e-09
5.13711e-09
5.13787e-09
5.14316e-09
5.15123e-09
5.16063e-09
5.17014e-09
5.17871e-09
5.18546e-09
5.18968e-09
5.19078e-09
5.18829e-09
5.18183e-09
5.17111e-09
5.15595e-09
5.13624e-09
5.11192e-09
5.08301e-09
5.04959e-09
5.01178e-09
4.96975e-09
4.92371e-09
4.87391e-09
4.82062e-09
4.76415e-09
4.70482e-09
4.643e-09
4.57907e-09
4.51343e-09
4.4465e-09
4.37871e-09
4.31055e-09
4.24249e-09
4.17507e-09
4.10884e-09
4.0444e-09
3.98243e-09
3.92362e-09
3.86879e-09
3.81884e-09
3.77479e-09
3.73783e-09
3.70936e-09
3.69105e-09
3.68493e-09
3.69349e-09
3.71992e-09
3.76833e-09
3.84421e-09
3.95508e-09
4.11165e-09
4.32981e-09
4.63437e-09
5.06681e-09
5.70276e-09
6.6981e-09
8.43835e-09
1.22124e-08
2.59161e-08
3.7866e-08
1.78574e-08
1.23566e-08
9.82577e-09
8.38061e-09
7.45741e-09
6.82806e-09
6.38184e-09
6.058e-09
5.82009e-09
5.64472e-09
5.51604e-09
5.42283e-09
5.35685e-09
5.31183e-09
5.28293e-09
5.26627e-09
5.25872e-09
5.25768e-09
5.26101e-09
5.26692e-09
5.27391e-09
5.2807e-09
5.28623e-09
5.2896e-09
5.2901e-09
5.28714e-09
5.28023e-09
5.26902e-09
5.25326e-09
5.23278e-09
5.20749e-09
5.17738e-09
5.14252e-09
5.103e-09
5.059e-09
5.01072e-09
4.95842e-09
4.90238e-09
4.84292e-09
4.78036e-09
4.71508e-09
4.64747e-09
4.57794e-09
4.50689e-09
4.43476e-09
4.36202e-09
4.28914e-09
4.21662e-09
4.14497e-09
4.07477e-09
4.00659e-09
3.9411e-09
3.87898e-09
3.82103e-09
3.76812e-09
3.72124e-09
3.68155e-09
3.65041e-09
3.62944e-09
3.62062e-09
3.62635e-09
3.64976e-09
3.69485e-09
3.76698e-09
3.87348e-09
4.02481e-09
4.2365e-09
4.5328e-09
4.95424e-09
5.57472e-09
6.5466e-09
8.24661e-09
1.19343e-08
2.53256e-08
3.88185e-08
1.83066e-08
1.26672e-08
1.00723e-08
8.59024e-09
7.64325e-09
6.99748e-09
6.53947e-09
6.2069e-09
5.96244e-09
5.78207e-09
5.64952e-09
5.55327e-09
5.48483e-09
5.43774e-09
5.407e-09
5.38858e-09
5.37926e-09
5.37635e-09
5.3776e-09
5.38118e-09
5.38551e-09
5.38931e-09
5.39144e-09
5.39104e-09
5.38736e-09
5.37981e-09
5.36792e-09
5.35137e-09
5.32992e-09
5.30344e-09
5.27188e-09
5.23528e-09
5.19374e-09
5.14741e-09
5.0965e-09
5.04127e-09
4.98203e-09
4.91908e-09
4.8528e-09
4.78357e-09
4.71178e-09
4.63785e-09
4.5622e-09
4.48529e-09
4.40756e-09
4.32949e-09
4.25156e-09
4.17426e-09
4.09812e-09
4.0237e-09
3.95157e-09
3.88236e-09
3.81676e-09
3.75551e-09
3.69947e-09
3.6496e-09
3.607e-09
3.57298e-09
3.5491e-09
3.53728e-09
3.53984e-09
3.55978e-09
3.601e-09
3.66866e-09
3.76989e-09
3.91483e-09
4.11854e-09
4.40456e-09
4.81222e-09
5.41327e-09
6.35557e-09
8.00481e-09
1.15835e-08
2.45807e-08
3.97712e-08
1.87558e-08
1.29776e-08
1.03184e-08
8.79935e-09
7.82846e-09
7.16622e-09
6.69637e-09
6.3551e-09
6.10412e-09
5.91882e-09
5.78249e-09
5.68329e-09
5.61248e-09
5.5634e-09
5.53087e-09
5.51073e-09
5.49961e-09
5.49475e-09
5.49381e-09
5.49486e-09
5.4963e-09
5.49676e-09
5.49514e-09
5.49051e-09
5.48213e-09
5.46941e-09
5.45192e-09
5.42935e-09
5.4015e-09
5.36829e-09
5.3297e-09
5.28582e-09
5.23681e-09
5.18288e-09
5.1243e-09
5.06137e-09
4.99444e-09
4.9239e-09
4.85016e-09
4.77362e-09
4.69473e-09
4.61393e-09
4.53169e-09
4.44847e-09
4.36473e-09
4.28097e-09
4.19767e-09
4.11532e-09
4.03446e-09
3.95561e-09
3.87934e-09
3.80626e-09
3.73703e-09
3.67237e-09
3.61308e-09
3.56007e-09
3.51442e-09
3.47736e-09
3.45037e-09
3.43532e-09
3.43439e-09
3.45047e-09
3.48729e-09
3.54984e-09
3.64496e-09
3.78241e-09
3.97669e-09