/*--------------------------------*- C++ -*----------------------------------*\
  =========                 |
  \\      /  F ield         | OpenFOAM: The Open Source CFD Toolbox
   \\    /   O peration     | Website:  https://openfoam.org
    \\  /    A nd           | Version:  12
     \\/     M anipulation  |
\*---------------------------------------------------------------------------*/
FoamFile
{
    format      ascii;
    class       volScalarField;
    location    "4.5";
    object      nut;
}
// * * * * * * * * * * * * * * * * * * * * * * * * * * * * * * * * * * * * * //

dimensions      [0 2 -1 0 0 0 0];

internalField   nonuniform List<scalar> 
5625
(
4.8663e-19
1.47024e-17
3.11562e-17
5.0786e-17
7.2885e-17
9.69187e-17
1.22496e-16
1.49315e-16
1.77127e-16
2.05717e-16
2.34892e-16
2.64473e-16
2.94296e-16
3.24203e-16
3.54044e-16
3.83678e-16
4.12968e-16
4.41781e-16
4.69992e-16
4.97482e-16
5.24133e-16
5.49836e-16
5.74488e-16
5.97988e-16
6.20243e-16
6.41167e-16
6.60678e-16
6.78701e-16
6.95169e-16
7.10018e-16
7.23194e-16
7.34647e-16
7.44338e-16
7.5223e-16
7.58297e-16
7.62518e-16
7.64879e-16
7.65374e-16
7.64004e-16
7.60777e-16
7.55707e-16
7.48816e-16
7.40131e-16
7.29689e-16
7.17531e-16
7.03705e-16
6.88265e-16
6.71273e-16
6.52793e-16
6.32899e-16
6.11668e-16
5.89183e-16
5.65533e-16
5.40811e-16
5.15116e-16
4.88549e-16
4.61219e-16
4.33238e-16
4.04722e-16
3.75793e-16
3.46576e-16
3.17201e-16
2.87806e-16
2.58532e-16
2.29527e-16
2.00952e-16
1.72973e-16
1.45776e-16
1.19567e-16
9.45838e-17
7.11186e-17
4.95495e-17
3.03949e-17
1.43422e-17
4.74689e-19
3.29152e-18
4.80796e-16
2.56764e-15
6.00337e-15
1.00919e-14
1.45072e-14
1.91324e-14
2.39177e-14
2.88315e-14
3.38469e-14
3.89388e-14
4.40823e-14
4.92532e-14
5.44276e-14
5.95821e-14
6.4694e-14
6.97411e-14
7.4702e-14
7.95557e-14
8.42824e-14
8.88628e-14
9.32784e-14
9.75117e-14
1.01546e-13
1.05365e-13
1.08956e-13
1.12303e-13
1.15394e-13
1.18217e-13
1.20763e-13
1.23021e-13
1.24984e-13
1.26645e-13
1.27997e-13
1.29035e-13
1.29758e-13
1.30161e-13
1.30244e-13
1.30008e-13
1.29453e-13
1.28583e-13
1.274e-13
1.2591e-13
1.24119e-13
1.22033e-13
1.19662e-13
1.17014e-13
1.14099e-13
1.10929e-13
1.07517e-13
1.03874e-13
1.00016e-13
9.59574e-14
9.17136e-14
8.73014e-14
8.27379e-14
7.80412e-14
7.323e-14
6.83235e-14
6.33416e-14
5.8305e-14
5.32347e-14
4.81522e-14
4.30797e-14
3.80398e-14
3.30554e-14
2.81499e-14
2.33474e-14
1.8673e-14
1.41569e-14
9.84735e-15
5.85744e-15
2.50506e-15
4.69041e-16
3.21076e-18
7.3179e-18
1.20387e-15
8.22348e-15
2.45823e-14
4.96764e-14
8.09074e-14
1.15933e-13
1.53238e-13
1.9194e-13
2.31515e-13
2.71624e-13
3.12021e-13
3.52502e-13
3.92886e-13
4.33005e-13
4.72697e-13
5.11804e-13
5.50174e-13
5.87659e-13
6.24114e-13
6.59399e-13
6.93382e-13
7.25933e-13
7.5693e-13
7.86257e-13
8.13806e-13
8.39475e-13
8.6317e-13
8.84806e-13
9.04303e-13
9.21593e-13
9.36615e-13
9.49316e-13
9.59653e-13
9.67592e-13
9.73106e-13
9.7618e-13
9.76806e-13
9.74986e-13
9.7073e-13
9.64057e-13
9.54995e-13
9.43583e-13
9.29864e-13
9.13893e-13
8.95731e-13
8.75447e-13
8.53119e-13
8.2883e-13
8.02672e-13
7.74742e-13
7.45144e-13
7.13989e-13
6.81393e-13
6.47475e-13
6.12363e-13
5.76185e-13
5.39078e-13
5.01177e-13
4.62626e-13
4.23568e-13
3.84152e-13
3.4453e-13
3.04862e-13
2.65316e-13
2.26086e-13
1.87404e-13
1.49596e-13
1.13165e-13
7.89688e-14
4.84814e-14
2.39878e-14
8.02318e-15
1.17432e-15
7.13738e-18
1.21053e-17
2.04116e-15
1.48909e-14
4.89589e-14
1.09503e-13
1.95408e-13
3.01849e-13
4.23257e-13
5.54881e-13
6.93163e-13
8.35567e-13
9.80288e-13
1.126e-12
1.2717e-12
1.41653e-12
1.55981e-12
1.70089e-12
1.83919e-12
1.97416e-12
2.10531e-12
2.23212e-12
2.35414e-12
2.47092e-12
2.58203e-12
2.68709e-12
2.78571e-12
2.87755e-12
2.96228e-12
3.0396e-12
3.10925e-12
3.17099e-12
3.22461e-12
3.26993e-12
3.30681e-12
3.33511e-12
3.35477e-12
3.36572e-12
3.36794e-12
3.36144e-12
3.34625e-12
3.32245e-12
3.29014e-12
3.24943e-12
3.2005e-12
3.14353e-12
3.07874e-12
3.00635e-12
2.92665e-12
2.83991e-12
2.74646e-12
2.64664e-12
2.54079e-12
2.42929e-12
2.31255e-12
2.19098e-12
2.06501e-12
1.93509e-12
1.80168e-12
1.66529e-12
1.52642e-12
1.38562e-12
1.24348e-12
1.10067e-12
9.57987e-13
8.16386e-13
6.77136e-13
5.41976e-13
4.13362e-13
2.94754e-13
1.90782e-13
1.06885e-13
4.77743e-14
1.45257e-14
1.99055e-15
1.18032e-17
1.74397e-17
2.96544e-15
2.21543e-14
7.5742e-14
1.77919e-13
3.34524e-13
5.43296e-13
7.96837e-13
1.08583e-12
1.40121e-12
1.73519e-12
2.08146e-12
2.43503e-12
2.79201e-12
3.14927e-12
3.50427e-12
3.85487e-12
4.19923e-12
4.53572e-12
4.86288e-12
5.17934e-12
5.48387e-12
5.77532e-12
6.05259e-12
6.31469e-12
6.56067e-12
6.78967e-12
7.0009e-12
7.19363e-12
7.36719e-12
7.52102e-12
7.6546e-12
7.7675e-12
7.85936e-12
7.92989e-12
7.9789e-12
8.00625e-12
8.01189e-12
7.99586e-12
7.95823e-12
7.89918e-12
7.81896e-12
7.71788e-12
7.59634e-12
7.45479e-12
7.29376e-12
7.11382e-12
6.91563e-12
6.6999e-12
6.4674e-12
6.21896e-12
5.95545e-12
5.67781e-12
5.38704e-12
5.08418e-12
4.77036e-12
4.44675e-12
4.11464e-12
3.77542e-12
3.43062e-12
3.08197e-12
2.73151e-12
2.38165e-12
2.03537e-12
1.69645e-12
1.36969e-12
1.0612e-12
7.78593e-13
5.30708e-13
3.26655e-13
1.73658e-13
7.38916e-14
2.16029e-14
2.8906e-15
1.69963e-17
2.31863e-17
3.95734e-15
2.98829e-14
1.04069e-13
2.50646e-13
4.85195e-13
8.12561e-13
1.22823e-12
1.7215e-12
2.27879e-12
2.8861e-12
3.53046e-12
4.20053e-12
4.88669e-12
5.58093e-12
6.27655e-12
6.96793e-12
7.65028e-12
8.31947e-12
8.97189e-12
9.60432e-12
1.02139e-11
1.07979e-11
1.13541e-11
1.18801e-11
1.23741e-11
1.28342e-11
1.32587e-11
1.36461e-11
1.39951e-11
1.43044e-11
1.45732e-11
1.48004e-11
1.49853e-11
1.51275e-11
1.52264e-11
1.52819e-11
1.52937e-11
1.52621e-11
1.51871e-11
1.50692e-11
1.49087e-11
1.47064e-11
1.4463e-11
1.41795e-11
1.38569e-11
1.34963e-11
1.30992e-11
1.26669e-11
1.22011e-11
1.17034e-11
1.11756e-11
1.06198e-11
1.00381e-11
9.43279e-12
8.80637e-12
8.16161e-12
7.50155e-12
6.8296e-12
6.1497e-12
5.4664e-12
4.78506e-12
4.11211e-12
3.45529e-12
2.82392e-12
2.22905e-12
1.68336e-12
1.20053e-12
7.93841e-13
4.73738e-13
2.44567e-13
1.01477e-13
2.91212e-14
3.8548e-15
2.25806e-17
2.9246e-17
5.00131e-15
3.79778e-14
1.33567e-13
3.26163e-13
6.42138e-13
1.09584e-12
1.68921e-12
2.414e-12
3.25518e-12
4.19417e-12
5.21147e-12
6.28829e-12
7.40746e-12
8.55375e-12
9.7139e-12
1.08764e-11
1.20313e-11
1.31701e-11
1.42851e-11
1.53697e-11
1.64181e-11
1.74249e-11
1.83854e-11
1.92954e-11
2.0151e-11
2.09487e-11
2.16854e-11
2.23583e-11
2.29648e-11
2.35029e-11
2.39706e-11
2.43664e-11
2.46889e-11
2.4937e-11
2.51102e-11
2.52078e-11
2.52298e-11
2.51762e-11
2.50473e-11
2.48437e-11
2.45663e-11
2.42163e-11
2.3795e-11
2.33042e-11
2.27455e-11
2.21213e-11
2.14339e-11
2.06859e-11
1.98802e-11
1.902e-11
1.81088e-11
1.71503e-11
1.61486e-11
1.51084e-11
1.40347e-11
1.2933e-11
1.18097e-11
1.06719e-11
9.52788e-12
8.38718e-12
7.26087e-12
6.16181e-12
5.10484e-12
4.10672e-12
3.18584e-12
2.36129e-12
1.65126e-12
1.07043e-12
6.26728e-13
3.1806e-13
1.3014e-13
3.69769e-14
4.86706e-15
2.8454e-17
3.55397e-17
6.08444e-15
4.63519e-14
1.63955e-13
4.03662e-13
8.02959e-13
1.38669e-12
2.1652e-12
3.13545e-12
4.28384e-12
5.58977e-12
7.02883e-12
8.57538e-12
1.02043e-11
1.18922e-11
1.36174e-11
1.53608e-11
1.71052e-11
1.88356e-11
2.05385e-11
2.2202e-11
2.38158e-11
2.53702e-11
2.68571e-11
2.82687e-11
2.95984e-11
3.08401e-11
3.19884e-11
3.30386e-11
3.39863e-11
3.48279e-11
3.55601e-11
3.61803e-11
3.66864e-11
3.70765e-11
3.73494e-11
3.75043e-11
3.75409e-11
3.74594e-11
3.72602e-11
3.69442e-11
3.6513e-11
3.59683e-11
3.53125e-11
3.45482e-11
3.36785e-11
3.27069e-11
3.16375e-11
3.04746e-11
2.92232e-11
2.78887e-11
2.64769e-11
2.49946e-11
2.3449e-11
2.18481e-11
2.02009e-11
1.85175e-11
1.68092e-11
1.50889e-11
1.33712e-11
1.16726e-11
1.00118e-11
8.40978e-12
6.88956e-12
5.47579e-12
4.19363e-12
3.06701e-12
2.11604e-12
1.35386e-12
7.83121e-13
3.93269e-13
1.59575e-13
4.50763e-14
5.91363e-15
3.45327e-17
4.2001e-17
7.19565e-15
5.49271e-14
1.9498e-13
4.8253e-13
9.66206e-13
1.68164e-12
2.64848e-12
3.87038e-12
5.33726e-12
7.0286e-12
8.91702e-12
1.09714e-11
1.31594e-11
1.54492e-11
1.78106e-11
2.02154e-11
2.26382e-11
2.50556e-11
2.74469e-11
2.97934e-11
3.20782e-11
3.42865e-11
3.64047e-11
3.84207e-11
4.03239e-11
4.21044e-11
4.37538e-11
4.52643e-11
4.66294e-11
4.7843e-11
4.89002e-11
4.97968e-11
5.05293e-11
5.1095e-11
5.14919e-11
5.17187e-11
5.17748e-11
5.16605e-11
5.13763e-11
5.09238e-11
5.03051e-11
4.9523e-11
4.85809e-11
4.74829e-11
4.62338e-11
4.48391e-11
4.33049e-11
4.16382e-11
3.98466e-11
3.79387e-11
3.5924e-11
3.3813e-11
3.16173e-11
2.93498e-11
2.70251e-11
2.46591e-11
2.227e-11
1.98778e-11
1.7505e-11
1.51766e-11
1.29202e-11
1.07653e-11
8.74331e-12
6.88611e-12
5.22424e-12
3.78449e-12
2.58673e-12
1.6404e-12
9.41302e-13
4.69502e-13
1.89498e-13
5.33325e-14
6.98233e-15
4.07437e-17
4.85721e-17
8.32526e-15
6.36329e-14
2.26412e-13
5.62226e-13
1.13075e-12
1.9784e-12
3.13437e-12
4.60973e-12
6.39907e-12
8.48344e-12
1.0834e-11
1.34157e-11
1.61899e-11
1.91171e-11
2.21583e-11
2.52766e-11
2.8437e-11
3.16075e-11
3.47587e-11
3.78637e-11
4.08985e-11
4.38411e-11
4.66717e-11
4.93727e-11
5.1928e-11
5.43235e-11
5.65463e-11
5.85852e-11
6.04302e-11
6.20728e-11
6.35054e-11
6.47218e-11
6.5717e-11
6.64868e-11
6.70282e-11
6.73394e-11
6.74194e-11
6.72685e-11
6.68875e-11
6.62783e-11
6.54441e-11
6.43889e-11
6.31176e-11
6.16361e-11
5.99513e-11
5.80711e-11
5.60046e-11
5.37619e-11
5.13542e-11
4.87943e-11
4.6096e-11
4.32748e-11
4.03479e-11
3.73344e-11
3.42555e-11
3.11344e-11
2.79973e-11
2.48726e-11
2.17918e-11
1.8789e-11
1.59008e-11
1.31655e-11
1.06223e-11
8.30895e-12
6.26013e-12
4.50381e-12
3.05805e-12
1.92739e-12
1.09994e-12
5.46117e-13
2.19639e-13
6.16647e-14
8.06209e-15
4.70214e-17
5.52024e-17
9.46465e-15
7.2406e-14
2.58037e-13
6.42247e-13
1.29561e-12
2.27515e-12
3.61954e-12
5.34752e-12
7.45886e-12
9.93707e-12
1.2753e-11
1.58685e-11
1.92399e-11
2.28207e-11
2.65639e-11
3.04235e-11
3.43555e-11
3.83183e-11
4.22735e-11
4.61855e-11
5.00218e-11
5.37526e-11
5.73512e-11
6.07931e-11
6.40563e-11
6.71211e-11
6.99697e-11
7.25867e-11
7.4958e-11
7.70717e-11
7.89175e-11
8.04865e-11
8.17716e-11
8.27671e-11
8.34688e-11
8.3874e-11
8.39812e-11
8.37908e-11
8.33037e-11
8.25226e-11
8.14518e-11
8.00965e-11
7.84635e-11
7.6561e-11
7.43984e-11
7.19865e-11
6.9338e-11
6.64666e-11
6.33882e-11
6.012e-11
5.66813e-11
5.30937e-11
4.93808e-11
4.55686e-11
4.1686e-11
3.77647e-11
3.38392e-11
2.99474e-11
2.61299e-11
2.24302e-11
1.88939e-11
1.55674e-11
1.24968e-11
9.72499e-12
7.28932e-12
5.2179e-12
3.52599e-12
2.21256e-12
1.25782e-12
6.22498e-13
2.4974e-13
6.99966e-14
9.14264e-15
5.33054e-17
6.18468e-17
1.06062e-14
8.11892e-14
2.89659e-13
7.22132e-13
1.45988e-12
2.57029e-12
4.10132e-12
6.07928e-12
8.50932e-12
1.13778e-11
1.46559e-11
1.83032e-11
2.22717e-11
2.65088e-11
3.096e-11
3.55706e-11
4.02876e-11
4.50603e-11
4.98407e-11
5.45843e-11
5.92497e-11
6.37989e-11
6.81972e-11
7.24129e-11
7.64175e-11
8.01849e-11
8.36921e-11
8.69184e-11
8.98455e-11
9.24575e-11
9.47407e-11
9.66835e-11
9.82763e-11
9.95116e-11
1.00384e-10
1.00889e-10
1.01025e-10
1.00793e-10
1.00193e-10
9.92295e-11
9.79073e-11
9.62336e-11
9.42172e-11
9.18687e-11
8.92004e-11
8.62268e-11
8.29641e-11
7.94307e-11
7.56472e-11
7.16363e-11
6.74236e-11
6.30368e-11
5.85069e-11
5.38677e-11
4.91561e-11
4.44127e-11
3.96811e-11
3.50084e-11
3.04448e-11
2.60428e-11
2.18566e-11
1.79402e-11
1.43456e-11
1.11201e-11
8.30272e-12
5.92106e-12
3.98704e-12
2.49384e-12
1.41374e-12
6.98043e-13
2.79549e-13
7.82558e-14
1.02143e-14
5.9539e-17
6.8465e-17
1.1743e-14
8.9931e-14
3.21102e-13
8.01456e-13
1.62275e-12
2.86241e-12
4.57741e-12
6.80142e-12
9.54487e-12
1.27972e-11
1.653e-11
2.07013e-11
2.52593e-11
3.01459e-11
3.52994e-11
4.06573e-11
4.61579e-11
5.17412e-11
5.73502e-11
6.2931e-11
6.84334e-11
7.38109e-11
7.90207e-11
8.40233e-11
8.87832e-11
9.32679e-11
9.74483e-11
1.01298e-10
1.04795e-10
1.07919e-10
1.10651e-10
1.12978e-10
1.14887e-10
1.16368e-10
1.17415e-10
1.18022e-10
1.18188e-10
1.17911e-10
1.17194e-10
1.16042e-10
1.14459e-10
1.12457e-10
1.10045e-10
1.07236e-10
1.04048e-10
1.00497e-10
9.66036e-11
9.2392e-11
8.78875e-11
8.3119e-11
7.81181e-11
7.29199e-11
6.75625e-11
6.20881e-11
5.6542e-11
5.09736e-11
4.54359e-11
3.99851e-11
3.46807e-11
2.95839e-11
2.47568e-11
2.02604e-11
1.61522e-11
1.24827e-11
9.29262e-12
6.60821e-12
4.43794e-12
2.7692e-12
1.56657e-12
7.7217e-13
3.08827e-13
8.63731e-14
1.1268e-14
6.56686e-17
7.50217e-17
1.2869e-14
9.85856e-14
3.52205e-13
8.79836e-13
1.78345e-12
3.15024e-12
5.04579e-12
7.51085e-12
1.0561e-11
1.41884e-11
1.83657e-11
2.30493e-11
2.81839e-11
3.37064e-11
3.95487e-11
4.56406e-11
5.19121e-11
5.82945e-11
6.47217e-11
7.11309e-11
7.7463e-11
8.36628e-11
8.96794e-11
9.54657e-11
1.00979e-10
1.06179e-10
1.11033e-10
1.15507e-10
1.19573e-10
1.23208e-10
1.2639e-10
1.29101e-10
1.31327e-10
1.33054e-10
1.34275e-10
1.34983e-10
1.35175e-10
1.34852e-10
1.34015e-10
1.32669e-10
1.30823e-10
1.28487e-10
1.25675e-10
1.22403e-10
1.1869e-10
1.14558e-10
1.10032e-10
1.05141e-10
9.9915e-11
9.43897e-11
8.86032e-11
8.25978e-11
7.64193e-11
7.01178e-11
6.37474e-11
5.73663e-11
5.10363e-11
4.48229e-11
3.87941e-11
3.30194e-11
2.75686e-11
2.25089e-11
1.79024e-11
1.3803e-11
1.0252e-11
7.27459e-12
4.87555e-12
3.03669e-12
1.71517e-12
8.44308e-13
3.3734e-13
9.42821e-14
1.22949e-14
7.16431e-17
8.14857e-17
1.39789e-14
1.07113e-13
3.82828e-13
9.56929e-13
1.94132e-12
3.43261e-12
5.50466e-12
8.20492e-12
1.15538e-11
1.55463e-11
2.01555e-11
2.53368e-11
3.10316e-11
3.71719e-11
4.36836e-11
5.04893e-11
5.75111e-11
6.46719e-11
7.1897e-11
7.91146e-11
8.62572e-11
9.32612e-11
1.00067e-10
1.06621e-10
1.12872e-10
1.18775e-10
1.24288e-10
1.29373e-10
1.33999e-10
1.38136e-10
1.41758e-10
1.44845e-10
1.47378e-10
1.49345e-10
1.50733e-10
1.51537e-10
1.51752e-10
1.51379e-10
1.50419e-10
1.48879e-10
1.46769e-10
1.44101e-10
1.40891e-10
1.37159e-10
1.32927e-10
1.28221e-10
1.23071e-10
1.1751e-10
1.11575e-10
1.05306e-10
9.87501e-11
9.19552e-11
8.4975e-11
7.78678e-11
7.06957e-11
6.35257e-11
5.64282e-11
4.94772e-11
4.27491e-11
3.63213e-11
3.02701e-11
2.46689e-11
1.95839e-11
1.50717e-11
1.11744e-11
7.91561e-12
5.29681e-12
3.29439e-12
1.85843e-12
9.13904e-13
3.64861e-13
1.01919e-13
1.32867e-14
7.74132e-17
8.783e-17
1.50681e-14
1.15478e-13
4.12849e-13
1.03244e-12
2.09579e-12
3.70854e-12
5.95247e-12
8.88134e-12
1.252e-11
1.68662e-11
2.18935e-11
2.75558e-11
3.37916e-11
4.05283e-11
4.7686e-11
5.51805e-11
6.29263e-11
7.08383e-11
7.88333e-11
8.68314e-11
9.47564e-11
1.02537e-10
1.10105e-10
1.174e-10
1.24364e-10
1.30944e-10
1.37093e-10
1.42768e-10
1.47932e-10
1.52551e-10
1.56596e-10
1.60043e-10
1.62871e-10
1.65064e-10
1.6661e-10
1.675e-10
1.67731e-10
1.67304e-10
1.66219e-10
1.64485e-10
1.62113e-10
1.59118e-10
1.55518e-10
1.51335e-10
1.46596e-10
1.41331e-10
1.35574e-10
1.29363e-10
1.2274e-10
1.15754e-10
1.08454e-10
1.00898e-10
9.31462e-11
8.52646e-11
7.73235e-11
6.93976e-11
6.15659e-11
5.39103e-11
4.6515e-11
3.94645e-11
3.28418e-11
2.67251e-11
2.1185e-11
1.62802e-11
1.20534e-11
8.5268e-12
5.69872e-12
3.5404e-12
1.99527e-12
9.80416e-13
3.91174e-13
1.09222e-13
1.42352e-14
8.29318e-17
9.40321e-17
1.61327e-14
1.23651e-13
4.42163e-13
1.10611e-12
2.24634e-12
3.97717e-12
6.38788e-12
9.53819e-12
1.34571e-11
1.81446e-11
2.35747e-11
2.96999e-11
3.64557e-11
4.37651e-11
5.15424e-11
5.96971e-11
6.81364e-11
7.67673e-11
8.5499e-11
9.42432e-11
1.02916e-10
1.11438e-10
1.19734e-10
1.27735e-10
1.35377e-10
1.42602e-10
1.49356e-10
1.55591e-10
1.61265e-10
1.6634e-10
1.70783e-10
1.74568e-10
1.7767e-10
1.80072e-10
1.8176e-10
1.82726e-10
1.82964e-10
1.82476e-10
1.81264e-10
1.79337e-10
1.76707e-10
1.73392e-10
1.69413e-10
1.64794e-10
1.59566e-10
1.53762e-10
1.47422e-10
1.40588e-10
1.33308e-10
1.25635e-10
1.17627e-10
1.09347e-10
1.00862e-10
9.22461e-11
8.35762e-11
7.49352e-11
6.64096e-11
5.80888e-11
5.00641e-11
4.24267e-11
3.52653e-11
2.86633e-11
2.26945e-11
1.742e-11
1.28827e-11
9.10379e-12
6.07833e-12
3.77288e-12
2.12465e-12
1.04332e-12
4.16065e-13
1.16132e-13
1.51326e-14
8.81533e-17
1.00074e-16
1.71696e-14
1.31608e-13
4.70688e-13
1.17774e-12
2.39258e-12
4.23783e-12
6.80985e-12
1.01739e-11
1.43629e-11
1.93787e-11
2.51956e-11
3.17645e-11
3.90178e-11
4.68743e-11
5.52428e-11
6.40266e-11
7.31257e-11
8.244e-11
9.18708e-11
1.01322e-10
1.10703e-10
1.19926e-10
1.28909e-10
1.37576e-10
1.45857e-10
1.53687e-10
1.61007e-10
1.67765e-10
1.73914e-10
1.79411e-10
1.84222e-10
1.88316e-10
1.91667e-10
1.94256e-10
1.96069e-10
1.97094e-10
1.97329e-10
1.96773e-10
1.95431e-10
1.93311e-10
1.90429e-10
1.86803e-10
1.82457e-10
1.7742e-10
1.71724e-10
1.65408e-10
1.58514e-10
1.5109e-10
1.43189e-10
1.34869e-10
1.26195e-10
1.17234e-10
1.08062e-10
9.87572e-11
8.94057e-11
8.00965e-11
7.09231e-11
6.19818e-11
5.33705e-11
4.51864e-11
3.75235e-11
3.04695e-11
2.41017e-11
1.84828e-11
1.36564e-11
9.64228e-12
6.43275e-12
3.99002e-12
2.24553e-12
1.10211e-12
4.39331e-13
1.2259e-13
1.59715e-14
9.30338e-17
1.0594e-16
1.81764e-14
1.39331e-13
4.98358e-13
1.24717e-12
2.5342e-12
4.48998e-12
7.21757e-12
1.07874e-11
1.52359e-11
2.05664e-11
2.67533e-11
3.37459e-11
4.14735e-11
4.98503e-11
5.87802e-11
6.81599e-11
7.78831e-11
8.78424e-11
9.79319e-11
1.08048e-10
1.18093e-10
1.27972e-10
1.37596e-10
1.46883e-10
1.55757e-10
1.64147e-10
1.7199e-10
1.79228e-10
1.85811e-10
1.91693e-10
1.96835e-10
2.01205e-10
2.04776e-10
2.07526e-10
2.0944e-10
2.10508e-10
2.10725e-10
2.10093e-10
2.08614e-10
2.06303e-10
2.03173e-10
1.99247e-10
1.9455e-10
1.89114e-10
1.82976e-10
1.76176e-10
1.68762e-10
1.60786e-10
1.52305e-10
1.43383e-10
1.34089e-10
1.24498e-10
1.14689e-10
1.04748e-10
9.47678e-11
8.48426e-11
7.50727e-11
6.55606e-11
5.64099e-11
4.77233e-11
3.95997e-11
3.21305e-11
2.5396e-11
1.94607e-11
1.43685e-11
1.0138e-11
6.75915e-12
4.19004e-12
2.3569e-12
1.15628e-12
4.60771e-13
1.28542e-13
1.67445e-14
9.7531e-17
1.11622e-16
1.91513e-14
1.46808e-13
5.25129e-13
1.3143e-12
2.671e-12
4.73328e-12
7.61051e-12
1.13779e-11
1.60749e-11
2.17064e-11
2.82463e-11
3.56421e-11
4.38199e-11
5.26897e-11
6.21499e-11
7.20914e-11
8.24012e-11
9.29652e-11
1.0367e-10
1.14407e-10
1.25069e-10
1.35555e-10
1.45771e-10
1.55629e-10
1.65045e-10
1.73946e-10
1.82262e-10
1.89933e-10
1.96904e-10
2.03127e-10
2.0856e-10
2.13169e-10
2.16925e-10
2.19806e-10
2.21796e-10
2.22885e-10
2.23068e-10
2.22347e-10
2.20728e-10
2.18223e-10
2.14852e-10
2.10636e-10
2.05604e-10
1.99792e-10
1.93238e-10
1.85986e-10
1.78089e-10
1.69602e-10
1.60587e-10
1.51112e-10
1.4125e-10
1.31082e-10
1.20693e-10
1.10173e-10
9.96211e-11
8.91371e-11
7.88266e-11
6.87975e-11
5.91588e-11
5.00178e-11
4.14776e-11
3.3633e-11
2.65671e-11
2.03457e-11
1.50131e-11
1.05869e-11
7.05478e-12
4.37124e-12
2.45781e-12
1.20536e-12
4.80195e-13
1.33934e-13
1.74447e-14
1.01604e-16
1.17114e-16
2.00935e-14
1.5403e-13
5.50978e-13
1.37907e-12
2.80287e-12
4.96756e-12
7.98844e-12
1.19451e-11
1.68797e-11
2.27982e-11
2.96739e-11
3.74522e-11
4.6056e-11
5.53908e-11
6.53498e-11
7.58179e-11
8.66758e-11
9.78028e-11
1.09079e-10
1.20388e-10
1.31618e-10
1.4266e-10
1.53416e-10
1.6379e-10
1.73695e-10
1.83053e-10
1.9179e-10
1.99842e-10
2.07151e-10
2.13666e-10
2.19345e-10
2.24151e-10
2.28054e-10
2.31033e-10
2.33069e-10
2.34154e-10
2.34285e-10
2.33462e-10
2.31694e-10
2.28995e-10
2.25386e-10
2.20891e-10
2.15542e-10
2.09376e-10
2.02434e-10
1.94766e-10
1.86425e-10
1.77471e-10
1.6797e-10
1.57994e-10
1.47621e-10
1.36935e-10
1.26025e-10
1.14989e-10
1.03927e-10
9.29452e-11
8.21541e-11
7.16662e-11
6.15946e-11
5.20508e-11
4.31415e-11
3.49645e-11
2.7605e-11
2.11302e-11
1.55846e-11
1.0985e-11
7.31695e-12
4.53194e-12
2.5473e-12
1.24888e-12
4.9742e-13
1.38714e-13
1.80653e-14
1.05215e-16
1.22415e-16
2.10028e-14
1.60998e-13
5.75899e-13
1.44147e-12
2.9298e-12
5.19283e-12
8.35139e-12
1.24891e-11
1.76504e-11
2.3842e-11
3.10364e-11
3.91766e-11
4.81822e-11
5.7954e-11
6.83798e-11
7.93389e-11
9.07057e-11
1.02353e-10
1.14154e-10
1.25987e-10
1.37733e-10
1.49278e-10
1.60518e-10
1.71352e-10
1.81689e-10
1.91446e-10
2.00547e-10
2.08923e-10
2.16516e-10
2.23272e-10
2.29147e-10
2.34104e-10
2.38113e-10
2.41151e-10
2.43201e-10
2.44256e-10
2.44311e-10
2.43371e-10
2.41445e-10
2.3855e-10
2.34706e-10
2.29943e-10
2.24293e-10
2.17796e-10
2.10497e-10
2.02448e-10
1.93704e-10
1.84331e-10
1.74396e-10
1.63975e-10
1.53149e-10
1.42007e-10
1.30642e-10
1.19154e-10
1.07648e-10
9.62337e-11
8.50261e-11
7.4141e-11
6.36954e-11
5.38039e-11
4.45762e-11
3.61126e-11
2.85e-11
2.18068e-11
1.60775e-11
1.13283e-11
7.5431e-12
4.67056e-12
2.62448e-12
1.28642e-12
5.12269e-13
1.42834e-13
1.86001e-14
1.08325e-16
1.27527e-16
2.18796e-14
1.67715e-13
5.9991e-13
1.50154e-12
3.05189e-12
5.40928e-12
8.69969e-12
1.30103e-11
1.83877e-11
2.48389e-11
3.23351e-11
4.0817e-11
5.02002e-11
6.03811e-11
7.1242e-11
8.26563e-11
9.44921e-11
1.06616e-10
1.18896e-10
1.31202e-10
1.4341e-10
1.55403e-10
1.67068e-10
1.78303e-10
1.89011e-10
1.99107e-10
2.08511e-10
2.17153e-10
2.24971e-10
2.31912e-10
2.3793e-10
2.42989e-10
2.47057e-10
2.50113e-10
2.52141e-10
2.53134e-10
2.5309e-10
2.52015e-10
2.4992e-10
2.46823e-10
2.42749e-10
2.37726e-10
2.31792e-10
2.24989e-10
2.17363e-10
2.0897e-10
1.99868e-10
1.90124e-10
1.79809e-10
1.69001e-10
1.57786e-10
1.46253e-10
1.345e-10
1.22629e-10
1.10748e-10
9.8971e-11
8.74145e-11
7.61977e-11
6.54402e-11
5.52594e-11
4.5767e-11
3.70653e-11
2.92427e-11
2.23682e-11
1.64865e-11
1.16133e-11
7.73074e-12
4.78556e-12
2.68851e-12
1.31754e-12
5.24578e-13
1.46248e-13
1.90431e-14
1.10901e-16
1.32458e-16
2.27251e-14
1.74189e-13
6.23044e-13
1.55938e-12
3.16933e-12
5.61727e-12
9.03394e-12
1.35098e-11
1.90931e-11
2.57907e-11
3.35725e-11
4.23762e-11
5.21135e-11
6.26759e-11
7.39403e-11
8.57739e-11
9.8039e-11
1.10596e-10
1.23306e-10
1.36034e-10
1.4865e-10
1.61032e-10
1.73063e-10
1.84636e-10
1.95653e-10
2.06023e-10
2.15666e-10
2.2451e-10
2.32492e-10
2.39558e-10
2.45663e-10
2.50769e-10
2.54847e-10
2.57877e-10
2.59843e-10
2.60741e-10
2.60572e-10
2.59341e-10
2.57064e-10
2.5376e-10
2.49455e-10
2.44183e-10
2.37982e-10
2.30896e-10
2.22975e-10
2.14276e-10
2.0486e-10
1.94796e-10
1.84157e-10
1.73024e-10
1.61484e-10
1.49629e-10
1.37559e-10
1.25377e-10
1.13195e-10
1.01127e-10
8.92926e-11
7.78128e-11
6.6809e-11
5.64003e-11
4.66999e-11
3.78115e-11
2.98242e-11
2.28076e-11
1.68066e-11
1.18362e-11
7.87757e-12
4.87553e-12
2.73857e-12
1.34187e-12
5.34192e-13
1.48913e-13
1.93887e-14
1.12909e-16
1.37218e-16
2.35412e-14
1.80437e-13
6.45355e-13
1.61513e-12
3.28242e-12
5.81733e-12
9.35501e-12
1.39889e-11
1.97683e-11
2.66999e-11
3.47517e-11
4.38581e-11
5.39267e-11
6.48437e-11
7.64803e-11
8.86978e-11
1.01352e-10
1.14297e-10
1.27389e-10
1.40486e-10
1.53455e-10
1.66166e-10
1.78501e-10
1.90349e-10
2.01607e-10
2.12185e-10
2.22e-10
2.30979e-10
2.3906e-10
2.46187e-10
2.52318e-10
2.57414e-10
2.6145e-10
2.64405e-10
2.66267e-10
2.67034e-10
2.66709e-10
2.653e-10
2.62825e-10
2.59306e-10
2.54773e-10
2.4926e-10
2.42808e-10
2.35463e-10
2.27279e-10
2.18313e-10
2.08629e-10
1.98297e-10
1.87393e-10
1.75998e-10
1.64201e-10
1.52095e-10
1.39781e-10
1.27364e-10
1.14957e-10
1.02674e-10
9.06358e-11
7.89648e-11
6.77832e-11
5.72109e-11
4.73619e-11
3.83404e-11
3.02361e-11
2.31188e-11
1.70332e-11
1.1994e-11
7.98142e-12
4.93913e-12
2.77394e-12
1.35904e-12
5.4097e-13
1.50789e-13
1.96318e-14
1.14322e-16
1.41821e-16
2.43304e-14
1.86476e-13
6.66912e-13
1.66895e-12
3.39154e-12
6.01013e-12
9.66402e-12
1.44491e-11
2.04157e-11
2.75697e-11
3.58767e-11
4.52678e-11
5.56455e-11
6.6891e-11
7.88693e-11
9.14354e-11
1.04439e-10
1.17728e-10
1.31152e-10
1.44566e-10
1.57828e-10
1.70808e-10
1.83383e-10
1.95438e-10
2.0687e-10
2.17586e-10
2.27502e-10
2.36546e-10
2.44656e-10
2.51779e-10
2.5787e-10
2.62897e-10
2.66834e-10
2.69662e-10
2.71375e-10
2.71973e-10
2.7146e-10
2.69849e-10
2.67159e-10
2.63417e-10
2.58654e-10
2.52907e-10
2.4622e-10
2.38642e-10
2.30226e-10
2.21033e-10
2.11129e-10
2.00583e-10
1.89474e-10
1.77882e-10
1.65898e-10
1.53615e-10
1.41133e-10
1.2856e-10
1.16005e-10
1.03586e-10
9.14212e-11
7.96338e-11
6.83457e-11
5.76767e-11
4.77409e-11
3.86425e-11
3.04709e-11
2.32959e-11
1.71621e-11
1.20836e-11
8.04036e-12
4.97518e-12
2.79395e-12
1.36873e-12
5.44787e-13
1.51843e-13
1.97679e-14
1.15112e-16
1.46286e-16
2.50956e-14
1.92331e-13
6.87803e-13
1.72109e-12
3.49713e-12
6.19651e-12
9.96231e-12
1.48927e-11
2.10383e-11
2.84039e-11
3.69524e-11
4.66109e-11
5.72769e-11
6.88255e-11
8.11156e-11
9.39956e-11
1.07309e-10
1.20897e-10
1.34604e-10
1.48279e-10
1.61778e-10
1.74964e-10
1.87711e-10
1.99905e-10
2.11438e-10
2.22219e-10
2.32164e-10
2.412e-10
2.49267e-10
2.56314e-10
2.623e-10
2.67193e-10
2.70972e-10
2.73619e-10
2.75136e-10
2.75522e-10
2.74788e-10
2.72948e-10
2.70025e-10
2.6605e-10
2.61055e-10
2.55083e-10
2.48177e-10
2.40389e-10
2.31775e-10
2.22396e-10
2.12319e-10
2.01615e-10
1.90361e-10
1.78641e-10
1.66541e-10
1.54156e-10
1.41586e-10
1.28936e-10
1.16316e-10
1.03841e-10
9.16292e-11
7.98025e-11
6.84815e-11
5.77852e-11
4.78266e-11
3.87092e-11
3.05219e-11
2.3334e-11
1.71895e-11
1.21026e-11
8.0527e-12
4.98264e-12
2.79803e-12
1.37067e-12
5.45535e-13
1.52044e-13
1.97934e-14
1.15258e-16
1.50631e-16
2.58404e-14
1.98028e-13
7.08126e-13
1.77178e-12
3.59972e-12
6.37742e-12
1.02514e-11
1.53217e-11
2.16391e-11
2.92067e-11
3.79842e-11
4.78941e-11
5.88283e-11
7.06558e-11
8.32286e-11
9.63883e-11
1.09972e-10
1.23814e-10
1.37754e-10
1.51635e-10
1.65309e-10
1.78637e-10
1.91489e-10
2.03749e-10
2.15311e-10
2.26081e-10
2.35978e-10
2.4493e-10
2.52879e-10
2.59777e-10
2.65587e-10
2.7028e-10
2.73838e-10
2.76249e-10
2.77519e-10
2.77652e-10
2.76659e-10
2.74563e-10
2.71388e-10
2.67168e-10
2.61941e-10
2.55748e-10
2.48639e-10
2.40667e-10
2.31888e-10
2.22365e-10
2.12165e-10
2.01359e-10
1.90025e-10
1.78243e-10
1.66102e-10
1.53693e-10
1.41115e-10
1.28471e-10
1.15868e-10
1.03421e-10
9.12442e-11
7.94574e-11
6.81792e-11
5.75266e-11
4.7611e-11
3.85343e-11
3.03842e-11
2.32291e-11
1.71127e-11
1.20489e-11
8.01719e-12
4.96077e-12
2.78578e-12
1.36466e-12
5.43136e-13
1.51372e-13
1.97053e-14
1.14743e-16
1.5488e-16
2.65686e-14
2.03598e-13
7.27991e-13
1.82131e-12
3.6999e-12
6.55389e-12
1.05331e-11
1.57389e-11
2.22219e-11
2.99829e-11
3.8978e-11
4.91244e-11
6.0308e-11
7.23909e-11
8.5218e-11
9.86237e-11
1.12438e-10
1.2649e-10
1.40612e-10
1.54643e-10
1.68431e-10
1.81833e-10
1.9472e-10
2.06973e-10
2.18487e-10
2.29168e-10
2.38938e-10
2.47727e-10
2.5548e-10
2.62154e-10
2.67714e-10
2.72139e-10
2.75409e-10
2.77528e-10
2.785e-10
2.78334e-10
2.77047e-10
2.74664e-10
2.71217e-10
2.66742e-10
2.6128e-10
2.54876e-10
2.47582e-10
2.39451e-10
2.30541e-10
2.20917e-10
2.10644e-10
1.99794e-10
1.88442e-10
1.7667e-10
1.64561e-10
1.52207e-10
1.39703e-10
1.27148e-10
1.14648e-10
1.02312e-10
9.02533e-11
7.85869e-11
6.74285e-11
5.68923e-11
4.70868e-11
3.81116e-11
3.00529e-11
2.29778e-11
1.69291e-11
1.19207e-11
7.93262e-12
4.90882e-12
2.75678e-12
1.35052e-12
5.37519e-13
1.49807e-13
1.95014e-14
1.13554e-16
1.59056e-16
2.72843e-14
2.09073e-13
7.47515e-13
1.86998e-12
3.79829e-12
6.72705e-12
1.0809e-11
1.61468e-11
2.27901e-11
3.07372e-11
3.99397e-11
5.0309e-11
6.17243e-11
7.40401e-11
8.70937e-11
1.00712e-10
1.14717e-10
1.28933e-10
1.43185e-10
1.57309e-10
1.71148e-10
1.84557e-10
1.97407e-10
2.09577e-10
2.20963e-10
2.31476e-10
2.41036e-10
2.49581e-10
2.57058e-10
2.63429e-10
2.68666e-10
2.72751e-10
2.75669e-10
2.77438e-10
2.78058e-10
2.77547e-10
2.75929e-10
2.73233e-10
2.69495e-10
2.64755e-10
2.59057e-10
2.52451e-10
2.44987e-10
2.36723e-10
2.27718e-10
2.18034e-10
2.07739e-10
1.96903e-10
1.856e-10
1.73907e-10
1.61907e-10
1.49688e-10
1.37339e-10
1.24959e-10
1.12647e-10
1.00508e-10
8.86503e-11
7.71856e-11
6.62248e-11
5.5878e-11
4.62504e-11
3.74385e-11
2.95259e-11
2.25782e-11
1.66374e-11
1.17172e-11
7.79846e-12
4.8265e-12
2.71088e-12
1.32816e-12
5.28655e-13
1.47342e-13
1.91806e-14
1.11686e-16
1.63185e-16
2.79919e-14
2.14486e-13
7.66821e-13
1.9181e-12
3.89554e-12
6.89805e-12
1.10811e-11
1.65482e-11
2.33477e-11
3.14746e-11
4.08754e-11
5.14551e-11
6.30852e-11
7.56122e-11
8.88651e-11
1.02663e-10
1.1682e-10
1.31153e-10
1.45483e-10
1.5964e-10
1.73465e-10
1.86813e-10
1.9955e-10
2.11559e-10
2.22738e-10
2.32998e-10
2.42266e-10
2.50483e-10
2.57603e-10
2.63593e-10
2.68431e-10
2.721e-10
2.74606e-10
2.75963e-10
2.7618e-10
2.75281e-10
2.73296e-10
2.70259e-10
2.66211e-10
2.61196e-10
2.55263e-10
2.48461e-10
2.40847e-10
2.32477e-10
2.23412e-10
2.13715e-10
2.0345e-10
1.92687e-10
1.81497e-10
1.69956e-10
1.58141e-10
1.46135e-10
1.34026e-10
1.21904e-10
1.09865e-10
9.80077e-11
8.64356e-11
7.52538e-11
6.45683e-11
5.44841e-11
4.51021e-11
3.65149e-11
2.88032e-11
2.20305e-11
1.62377e-11
1.14385e-11
7.61472e-12
4.71382e-12
2.6481e-12
1.29761e-12
5.16552e-13
1.43979e-13
1.87435e-14
1.09142e-16
1.6729e-16
2.86956e-14
2.19871e-13
7.8603e-13
1.96599e-12
3.99228e-12
7.06803e-12
1.13512e-11
1.69458e-11
2.38983e-11
3.21998e-11
4.1791e-11
5.25695e-11
6.43985e-11
7.71154e-11
9.05405e-11
1.04484e-10
1.18752e-10
1.33156e-10
1.4751e-10
1.61641e-10
1.75386e-10
1.88599e-10
2.01149e-10
2.12917e-10
2.23805e-10
2.33728e-10
2.42619e-10
2.50425e-10
2.57105e-10
2.62634e-10
2.66995e-10
2.70177e-10
2.7221e-10
2.73096e-10
2.72859e-10
2.71529e-10
2.69142e-10
2.65738e-10
2.61364e-10
2.56067e-10
2.49899e-10
2.42914e-10
2.3517e-10
2.26724e-10
2.17637e-10
2.07971e-10
1.9779e-10
1.8716e-10
1.7615e-10
1.6483e-10
1.53276e-10
1.41564e-10
1.29775e-10
1.17995e-10
1.06313e-10
9.48221e-11
8.36176e-11
7.27986e-11
6.2465e-11
5.27153e-11
4.36456e-11
3.53439e-11
2.78871e-11
2.13363e-11
1.57311e-11
1.10853e-11
7.382e-12
4.57115e-12
2.56865e-12
1.25896e-12
5.01257e-13
1.39732e-13
1.81918e-14
1.05931e-16
1.71395e-16
2.93994e-14
2.25258e-13
8.05259e-13
2.01394e-12
4.08913e-12
7.23809e-12
1.16211e-11
1.73421e-11
2.44453e-11
3.29172e-11
4.26917e-11
5.36582e-11
6.56705e-11
7.85564e-11
9.21264e-11
1.06182e-10
1.20521e-10
1.34947e-10
1.4927e-10
1.63312e-10
1.7691e-10
1.89916e-10
2.02198e-10
2.13644e-10
2.24157e-10
2.33659e-10
2.42088e-10
2.49397e-10
2.55555e-10
2.60543e-10
2.64346e-10
2.66986e-10
2.68476e-10
2.68836e-10
2.68097e-10
2.66295e-10
2.63475e-10
2.59682e-10
2.54967e-10
2.49384e-10
2.42987e-10
2.35834e-10
2.27983e-10
2.19493e-10
2.10423e-10
2.00836e-10
1.90792e-10
1.80355e-10
1.6959e-10
1.58563e-10
1.47343e-10
1.36002e-10
1.24614e-10
1.13258e-10
1.02015e-10
9.09711e-11
8.02141e-11
6.98354e-11
5.99276e-11
5.05823e-11
4.18897e-11
3.39323e-11
2.67829e-11
2.04995e-11
1.51206e-11