/*--------------------------------*- C++ -*----------------------------------*\
  =========                 |
  \\      /  F ield         | OpenFOAM: The Open Source CFD Toolbox
   \\    /   O peration     | Website:  https://openfoam.org
    \\  /    A nd           | Version:  12
     \\/     M anipulation  |
\*---------------------------------------------------------------------------*/
FoamFile
{
    format      ascii;
    class       volScalarField;
    location    "4.5";
    object      p;
}
// * * * * * * * * * * * * * * * * * * * * * * * * * * * * * * * * * * * * * //

dimensions      [0 2 -2 0 0 0 0];

internalField   nonuniform List<scalar> 
5625
(
-6.60931e-09
2.53887e-07
1.33379e-06
3.22054e-06
5.65322e-06
8.4015e-06
1.12833e-05
1.4146e-05
1.68591e-05
1.93137e-05
2.14204e-05
2.31068e-05
2.4316e-05
2.50039e-05
2.51379e-05
2.46951e-05
2.36614e-05
2.20299e-05
1.98006e-05
1.69788e-05
1.35748e-05
9.60347e-06
5.08332e-06
3.6226e-08
-5.513e-06
-1.1537e-05
-1.80061e-05
-2.48888e-05
-3.21518e-05
-3.97603e-05
-4.76782e-05
-5.58685e-05
-6.42931e-05
-7.29131e-05
-8.1689e-05
-9.05809e-05
-9.95484e-05
-0.000108551
-0.000117548
-0.000126498
-0.000135361
-0.000144097
-0.000152665
-0.000161026
-0.000169141
-0.000176972
-0.000184481
-0.000191634
-0.000198395
-0.000204731
-0.000210611
-0.000216007
-0.00022089
-0.000225238
-0.00022903
-0.000232248
-0.000234879
-0.000236915
-0.000238351
-0.00023919
-0.000239441
-0.000239121
-0.000238255
-0.000236879
-0.000235039
-0.000232794
-0.000230221
-0.000227409
-0.000224471
-0.000221537
-0.00021876
-0.000216322
-0.000214449
-0.000213396
-0.000213158
-3.56807e-06
-2.8612e-06
-1.62996e-06
6.28791e-08
2.08159e-06
4.28816e-06
6.55834e-06
8.7813e-06
1.08594e-05
1.27079e-05
1.42551e-05
1.54409e-05
1.62164e-05
1.65426e-05
1.63893e-05
1.57348e-05
1.45642e-05
1.28695e-05
1.0648e-05
7.90264e-06
4.64057e-06
8.73214e-07
-3.38443e-06
-8.11411e-06
-1.32947e-05
-1.89027e-05
-2.4912e-05
-3.1295e-05
-3.80219e-05
-4.50617e-05
-5.23821e-05
-5.99494e-05
-6.77291e-05
-7.56861e-05
-8.37842e-05
-9.19871e-05
-0.000100258
-0.00010856
-0.000116855
-0.000125107
-0.000133278
-0.000141331
-0.000149231
-0.000156942
-0.000164427
-0.000171654
-0.000178588
-0.000185198
-0.000191453
-0.000197323
-0.000202783
-0.000207806
-0.00021237
-0.000216455
-0.000220044
-0.000223123
-0.000225682
-0.000227716
-0.000229223
-0.000230208
-0.000230681
-0.00023066
-0.000230167
-0.000229236
-0.000227907
-0.000226232
-0.000224273
-0.000222102
-0.000219807
-0.000217486
-0.00021525
-0.000213222
-0.000211543
-0.000210347
-0.000209676
-9.5195e-06
-8.03695e-06
-6.17339e-06
-4.19314e-06
-2.14005e-06
-6.25003e-08
1.9698e-06
3.88525e-06
5.61806e-06
7.10918e-06
8.30644e-06
9.16472e-06
9.64601e-06
9.71917e-06
9.35962e-06
8.54895e-06
7.27448e-06
5.52883e-06
3.30947e-06
6.18286e-07
-2.53877e-06
-6.15212e-06
-1.02089e-05
-1.46931e-05
-1.95863e-05
-2.48675e-05
-3.05136e-05
-3.64997e-05
-4.27989e-05
-4.93833e-05
-5.62233e-05
-6.32885e-05
-7.05472e-05
-7.79673e-05
-8.55157e-05
-9.31591e-05
-0.000100864
-0.000108595
-0.00011632
-0.000124003
-0.000131611
-0.000139111
-0.000146468
-0.000153651
-0.000160627
-0.000167366
-0.000173836
-0.00018001
-0.00018586
-0.000191359
-0.000196485
-0.000201213
-0.000205526
-0.000209405
-0.000212836
-0.000215807
-0.00021831
-0.000220341
-0.0002219
-0.000222991
-0.000223623
-0.000223811
-0.000223574
-0.000222941
-0.000221943
-0.00022062
-0.00021902
-0.000217196
-0.000215208
-0.000213123
-0.000211014
-0.000208951
-0.000206984
-0.000205159
-0.000203728
-1.64143e-05
-1.4044e-05
-1.13427e-05
-8.79991e-06
-6.40069e-06
-4.12842e-06
-2.01544e-06
-1.06103e-07
1.55791e-06
2.93847e-06
4.00088e-06
4.71422e-06
5.05192e-06
4.9919e-06
4.51665e-06
3.61314e-06
2.27268e-06
4.9065e-07
-1.73361e-06
-4.39719e-06
-7.49372e-06
-1.10138e-05
-1.49451e-05
-1.92726e-05
-2.3979e-05
-2.90449e-05
-3.44487e-05
-4.01673e-05
-4.61759e-05
-5.24484e-05
-5.89574e-05
-6.56746e-05
-7.25706e-05
-7.96156e-05
-8.67787e-05
-9.40289e-05
-0.000101335
-0.000108665
-0.000115987
-0.000123269
-0.000130481
-0.00013759
-0.000144567
-0.000151379
-0.000157999
-0.000164398
-0.000170547
-0.000176419
-0.000181991
-0.000187237
-0.000192136
-0.000196667
-0.000200812
-0.000204555
-0.000207883
-0.000210784
-0.000213251
-0.000215278
-0.000216866
-0.000218015
-0.000218733
-0.000219031
-0.000218922
-0.000218426
-0.000217567
-0.000216373
-0.000214877
-0.000213115
-0.000211127
-0.000208956
-0.000206647
-0.000204234
-0.000201704
-0.000199045
-0.000196728
-2.30054e-05
-1.97683e-05
-1.62012e-05
-1.30125e-05
-1.01476e-05
-7.54161e-06
-5.20102e-06
-3.1511e-06
-1.41561e-06
-1.61468e-08
1.02706e-06
1.69547e-06
1.97299e-06
1.84627e-06
1.30502e-06
3.42032e-07
-1.04671e-06
-2.86219e-06
-5.10231e-06
-7.76215e-06
-1.0834e-05
-1.43076e-05
-1.81703e-05
-2.24072e-05
-2.70012e-05
-3.19336e-05
-3.71837e-05
-4.27295e-05
-4.85474e-05
-5.46127e-05
-6.08994e-05
-6.73809e-05
-7.40294e-05
-8.08168e-05
-8.7714e-05
-9.46919e-05
-0.000101721
-0.000108771
-0.000115813
-0.000122816
-0.000129751
-0.000136589
-0.000143301
-0.000149858
-0.000156233
-0.000162398
-0.000168328
-0.000173997
-0.000179382
-0.00018446
-0.000189211
-0.000193614
-0.000197653
-0.000201312
-0.000204577
-0.000207438
-0.000209885
-0.000211913
-0.000213519
-0.000214701
-0.000215464
-0.000215812
-0.000215755
-0.000215304
-0.000214476
-0.000213287
-0.000211758
-0.000209911
-0.000207769
-0.000205357
-0.000202703
-0.000199814
-0.000196629
-0.000193097
-0.000189909
-2.84736e-05
-2.44409e-05
-2.00539e-05
-1.62173e-05
-1.28497e-05
-9.85117e-06
-7.21103e-06
-4.94217e-06
-3.05581e-06
-1.56126e-06
-4.67527e-07
2.16935e-07
4.84888e-07
3.30732e-07
-2.49157e-07
-1.25631e-06
-2.69001e-06
-4.54727e-06
-6.82283e-06
-9.50921e-06
-1.25967e-05
-1.60737e-05
-1.99264e-05
-2.41393e-05
-2.86951e-05
-3.3575e-05
-3.87586e-05
-4.42243e-05
-4.99491e-05
-5.59092e-05
-6.20796e-05
-6.84346e-05
-7.49476e-05
-8.15917e-05
-8.83392e-05
-9.51622e-05
-0.000102032
-0.000108922
-0.000115801
-0.000122643
-0.000129419
-0.000136101
-0.000142662
-0.000149074
-0.00015531
-0.000161347
-0.000167157
-0.000172718
-0.000178006
-0.000183
-0.000187679
-0.000192025
-0.000196019
-0.000199647
-0.000202893
-0.000205747
-0.000208198
-0.000210238
-0.000211861
-0.000213065
-0.000213848
-0.00021421
-0.000214156
-0.000213691
-0.000212823
-0.00021156
-0.000209913
-0.000207892
-0.000205509
-0.000202777
-0.00019971
-0.0001963
-0.00019245
-0.000188082
-0.000184085
-3.22598e-05
-2.75172e-05
-2.23848e-05
-1.79389e-05
-1.40799e-05
-1.06817e-05
-7.72245e-06
-5.20717e-06
-3.13856e-06
-1.51708e-06
-3.43196e-07
3.82548e-07
6.60171e-07
4.90671e-07
-1.23719e-07
-1.17932e-06
-2.67091e-06
-4.5916e-06
-6.93281e-06
-9.68428e-06
-1.28341e-05
-1.63686e-05
-2.02727e-05
-2.45297e-05
-2.91217e-05
-3.40293e-05
-3.92318e-05
-4.47076e-05
-5.0434e-05
-5.63874e-05
-6.25432e-05
-6.88764e-05
-7.53612e-05
-8.19712e-05
-8.86798e-05
-9.54599e-05
-0.000102284
-0.000109126
-0.000115956
-0.00012275
-0.000129477
-0.000136113
-0.000142631
-0.000149003
-0.000155206
-0.000161213
-0.000167
-0.000172544
-0.000177822
-0.000182814
-0.000187497
-0.000191854
-0.000195867
-0.000199518
-0.000202794
-0.00020568
-0.000208166
-0.00021024
-0.000211894
-0.000213123
-0.00021392
-0.000214283
-0.00021421
-0.000213701
-0.000212756
-0.000211379
-0.00020957
-0.000207334
-0.000204672
-0.00020159
-0.000198093
-0.000194163
-0.000189677
-0.000184538
-0.000179811
-3.39597e-05
-2.8591e-05
-2.27947e-05
-1.77971e-05
-1.34846e-05
-9.71123e-06
-6.44737e-06
-3.6933e-06
-1.44586e-06
3.00968e-07
1.55311e-06
2.31628e-06
2.59635e-06
2.39985e-06
1.73408e-06
6.07363e-07
-9.70941e-07
-2.99021e-06
-5.43865e-06
-8.30311e-06
-1.15693e-05
-1.52215e-05
-1.92429e-05
-2.36154e-05
-2.832e-05
-3.33364e-05
-3.86435e-05
-4.42191e-05
-5.00403e-05
-5.60834e-05
-6.23241e-05
-6.87374e-05
-7.5298e-05
-8.19798e-05
-8.87567e-05
-9.56022e-05
-0.00010249
-0.000109392
-0.000116283
-0.000123136
-0.000129924
-0.00013662
-0.0001432
-0.000149636
-0.000155904
-0.000161979
-0.000167837
-0.000173455
-0.00017881
-0.00018388
-0.000188645
-0.000193085
-0.000197182
-0.000200917
-0.000204275
-0.000207241
-0.0002098
-0.000211941
-0.000213653
-0.000214924
-0.000215749
-0.000216118
-0.000216025
-0.000215467
-0.000214438
-0.000212936
-0.000210956
-0.000208494
-0.000205549
-0.000202118
-0.000198204
-0.00019378
-0.000188704
-0.000182865
-0.000177481
-3.32579e-05
-2.73399e-05
-2.09601e-05
-1.54759e-05
-1.07626e-05
-6.65773e-06
-3.12634e-06
-1.65459e-07
2.23224e-06
4.07762e-06
5.38161e-06
6.1549e-06
6.40821e-06
6.15274e-06
5.40017e-06
4.16297e-06
2.45427e-06
2.88169e-07
-2.32043e-06
-5.35558e-06
-8.80051e-06
-1.26374e-05
-1.68475e-05
-2.14113e-05
-2.63082e-05
-3.1517e-05
-3.70157e-05
-4.27814e-05
-4.87908e-05
-5.50198e-05
-6.14439e-05
-6.8038e-05
-7.47767e-05
-8.16343e-05
-8.85846e-05
-9.56015e-05
-0.000102659
-0.000109729
-0.000116787
-0.000123806
-0.000130759
-0.000137621
-0.000144365
-0.000150966
-0.000157399
-0.000163639
-0.000169662
-0.000175445
-0.000180964
-0.000186197
-0.000191123
-0.000195722
-0.000199973
-0.000203857
-0.000207358
-0.000210458
-0.00021314
-0.000215392
-0.000217198
-0.000218546
-0.000219425
-0.000219823
-0.000219731
-0.00021914
-0.00021804
-0.000216424
-0.000214284
-0.000211612
-0.000208399
-0.000204642
-0.00020034
-0.000195461
-0.000189846
-0.000183372
-0.000177398
-2.98839e-05
-2.34869e-05
-1.66007e-05
-1.06984e-05
-5.6457e-06
-1.2659e-06
2.48036e-06
5.59841e-06
8.09888e-06
9.99651e-06
1.13064e-05
1.20433e-05
1.22222e-05
1.18584e-05
1.09673e-05
9.56524e-06
7.66878e-06
5.29526e-06
2.46259e-06
-8.10606e-07
-4.50507e-06
-8.60081e-06
-1.30772e-05
-1.79129e-05
-2.30861e-05
-2.85742e-05
-3.43541e-05
-4.04021e-05
-4.66942e-05
-5.32057e-05
-5.99118e-05
-6.6787e-05
-7.38058e-05
-8.09422e-05
-8.81701e-05
-9.54632e-05
-0.000102795
-0.00011014
-0.00011747
-0.00012476
-0.000131984
-0.000139114
-0.000146126
-0.000152994
-0.000159691
-0.000166194
-0.000172478
-0.000178518
-0.000184291
-0.000189774
-0.000194945
-0.000199781
-0.000204263
-0.000208368
-0.000212079
-0.000215376
-0.000218242
-0.000220658
-0.00022261
-0.000224081
-0.000225056
-0.000225522
-0.000225466
-0.000224874
-0.000223734
-0.000222034
-0.000219764
-0.000216911
-0.000213463
-0.000209414
-0.000204762
-0.000199472
-0.000193369
-0.000186322
-0.000179814
-2.35839e-05
-1.67736e-05
-9.45645e-06
-3.20755e-06
2.11637e-06
6.70467e-06
1.06008e-05
1.38123e-05
1.63527e-05
1.82402e-05
1.94936e-05
2.01315e-05
2.01724e-05
1.96354e-05
1.85396e-05
1.69046e-05
1.47504e-05
1.20973e-05
8.96609e-06
5.37806e-06
1.3549e-06
-3.08128e-06
-7.90786e-06
-1.31018e-05
-1.86397e-05
-2.44977e-05
-3.06514e-05
-3.70764e-05
-4.37476e-05
-5.06398e-05
-5.77274e-05
-6.49847e-05
-7.23856e-05
-7.9904e-05
-8.75134e-05
-9.51875e-05
-0.0001029
-0.000110623
-0.000118332
-0.000125998
-0.000133597
-0.000141101
-0.000148484
-0.00015572
-0.000162784
-0.000169649
-0.000176291
-0.000182685
-0.000188806
-0.00019463
-0.000200133
-0.000205294
-0.000210088
-0.000214494
-0.000218492
-0.000222059
-0.000225176
-0.000227823
-0.000229982
-0.000231633
-0.000232761
-0.000233347
-0.000233375
-0.00023283
-0.000231695
-0.000229956
-0.000227598
-0.000224606
-0.000220966
-0.00021667
-0.000211713
-0.000206058
-0.000199517
-0.000191951
-0.000184956
-1.41013e-05
-6.94283e-06
7.28403e-07
7.24793e-06
1.27675e-05
1.74883e-05
2.1458e-05
2.46864e-05
2.71902e-05
2.89908e-05
3.01107e-05
3.0572e-05
3.0397e-05
2.96079e-05
2.82276e-05
2.6279e-05
2.3785e-05
2.07691e-05
1.72548e-05
1.32659e-05
8.82658e-06
3.961e-06
-1.30623e-06
-6.95037e-06
-1.29464e-05
-1.92691e-05
-2.5893e-05
-3.27924e-05
-3.99416e-05
-4.73145e-05
-5.48849e-05
-6.26265e-05
-7.05127e-05
-7.85171e-05
-8.66127e-05
-9.4773e-05
-0.000102971
-0.00011118
-0.000119372
-0.000127522
-0.000135602
-0.000143585
-0.000151444
-0.000159154
-0.000166687
-0.000174018
-0.000181119
-0.000187966
-0.000194533
-0.000200794
-0.000206725
-0.000212301
-0.000217498
-0.000222293
-0.00022666
-0.000230579
-0.000234027
-0.00023698
-0.000239419
-0.000241323
-0.00024267
-0.000243441
-0.000243616
-0.000243176
-0.000242104
-0.000240381
-0.000237989
-0.000234912
-0.000231132
-0.000226638
-0.000221427
-0.000215456
-0.000208527
-0.00020049
-0.000193051
-1.16437e-06
6.27381e-06
1.42168e-05
2.09235e-05
2.65539e-05
3.13205e-05
3.52754e-05
3.84313e-05
4.08082e-05
4.24312e-05
4.33264e-05
4.35196e-05
4.30365e-05
4.19033e-05
4.01459e-05
3.77905e-05
3.48634e-05
3.13907e-05
2.73988e-05
2.29141e-05
1.79629e-05
1.25716e-05
6.76664e-06
5.74566e-07
-5.97811e-06
-1.28648e-05
-2.00589e-05
-2.75338e-05
-3.52626e-05
-4.32187e-05
-5.1375e-05
-5.97048e-05
-6.8181e-05
-7.67765e-05
-8.54643e-05
-9.42171e-05
-0.000103008
-0.000111809
-0.000120594
-0.000129334
-0.000138003
-0.000146573
-0.000155017
-0.000163307
-0.000171417
-0.000179319
-0.000186986
-0.000194391
-0.000201507
-0.000208308
-0.000214767
-0.000220858
-0.000226555
-0.000231832
-0.000236664
-0.000241026
-0.000244893
-0.00024824
-0.000251043
-0.00025328
-0.000254925
-0.000255957
-0.000256353
-0.000256092
-0.000255151
-0.000253511
-0.00025115
-0.000248048
-0.000244187
-0.000239553
-0.000234142
-0.000227907
-0.000220639
-0.000212179
-0.000204334
1.55231e-05
2.31646e-05
3.12869e-05
3.80861e-05
4.37304e-05
4.84431e-05
5.22811e-05
5.5261e-05
5.74063e-05
5.87464e-05
5.93111e-05
5.91303e-05
5.82336e-05
5.66505e-05
5.44107e-05
5.15436e-05
4.80785e-05
4.40447e-05
3.94712e-05
3.43867e-05
2.88199e-05
2.27993e-05
1.63532e-05
9.5097e-06
2.29679e-06
-5.25765e-06
-1.31259e-05
-2.12803e-05
-2.96934e-05
-3.83375e-05
-4.71852e-05
-5.6209e-05
-6.53815e-05
-7.46752e-05
-8.40625e-05
-9.35159e-05
-0.000103008
-0.00011251
-0.000121996
-0.000131438
-0.000140806
-0.000150074
-0.000159213
-0.000168196
-0.000176993
-0.000185577
-0.00019392
-0.000201993
-0.000209768
-0.000217218
-0.000224313
-0.000231026
-0.000237329
-0.000243194
-0.000248593
-0.000253499
-0.000257884
-0.000261722
-0.000264985
-0.000267647
-0.000269682
-0.000271064
-0.000271766
-0.000271766
-0.000271037
-0.000269556
-0.0002673
-0.000264245
-0.000260371
-0.000255661
-0.000250109
-0.000243667
-0.000236111
-0.000227275
-0.000219062
3.62875e-05
4.40431e-05
5.22369e-05
5.90187e-05
6.45644e-05
6.91075e-05
7.27106e-05
7.53946e-05
7.71877e-05
7.81237e-05
7.8237e-05
7.75616e-05
7.61312e-05
7.39792e-05
7.11388e-05
6.7643e-05
6.35242e-05
5.88147e-05
5.35459e-05
4.77493e-05
4.14556e-05
3.46954e-05
2.74985e-05
1.98948e-05
1.19134e-05
3.58347e-06
-5.06637e-06
-1.40076e-05
-2.32119e-05
-3.26512e-05
-4.22977e-05
-5.21232e-05
-6.21001e-05
-7.22004e-05
-8.23965e-05
-9.26603e-05
-0.000102964
-0.00011328
-0.000123579
-0.000133833
-0.000144013
-0.000154093
-0.000164042
-0.000173831
-0.000183432
-0.000192814
-0.000201949
-0.000210807
-0.000219358
-0.000227573
-0.00023542
-0.000242871
-0.000249895
-0.000256462
-0.000262541
-0.000268103
-0.000273118
-0.000277555
-0.000281385
-0.000284579
-0.000287105
-0.000288937
-0.000290044
-0.000290399
-0.000289974
-0.000288742
-0.000286675
-0.000283749
-0.000279937
-0.000275223
-0.000269598
-0.000263009
-0.000255221
-0.000246061
-0.000237518
6.14886e-05
6.92513e-05
7.73883e-05
8.40227e-05
8.93378e-05
9.35764e-05
9.68075e-05
9.90574e-05
0.00010036
0.000100753
0.000100277
9.89711e-05
9.68721e-05
9.40181e-05
9.04462e-05
8.61928e-05
8.12937e-05
7.57838e-05
6.96974e-05
6.30684e-05
5.59294e-05
4.83129e-05
4.02504e-05
3.1773e-05
2.2911e-05
1.36946e-05
4.15303e-06
-5.68444e-06
-1.57891e-05
-2.61325e-05
-3.66863e-05
-4.74223e-05
-5.83127e-05
-6.93293e-05
-8.04442e-05
-9.16293e-05
-0.000102857
-0.000114097
-0.000125324
-0.000136506
-0.000147616
-0.000158624
-0.000169501
-0.000180217
-0.000190741
-0.000201044
-0.000211094
-0.00022086
-0.000230311
-0.000239415
-0.00024814
-0.000256454
-0.000264324
-0.000271718
-0.000278602
-0.000284944
-0.000290711
-0.00029587
-0.000300387
-0.00030423
-0.000307366
-0.000309762
-0.000311385
-0.000312204
-0.000312188
-0.000311305
-0.000309525
-0.00030682
-0.000303159
-0.000298523
-0.000292901
-0.000286234
-0.000278277
-0.000268848
-0.000260019
9.15208e-05
9.91604e-05
0.000107085
0.000113417
0.000118346
0.000122122
0.000124822
0.000126478
0.00012713
0.000126824
0.000125603
0.000123513
0.000120595
0.000116891
0.000112444
0.000107292
0.000101475
9.5031e-05
8.79964e-05
8.04073e-05
7.22985e-05
6.37039e-05
5.46565e-05
4.51884e-05
3.53309e-05
2.51146e-05
1.45694e-05
3.72496e-06
-7.38994e-06
-1.87467e-05
-3.03169e-05
-4.20726e-05
-5.39858e-05
-6.60286e-05
-7.81731e-05
-9.03911e-05
-0.000102655
-0.000114935
-0.000127204
-0.000139432
-0.00015159
-0.000163647
-0.000175575
-0.000187342
-0.000198916
-0.000210267
-0.000221361
-0.000232166
-0.00024265
-0.000252777
-0.000262515
-0.000271827
-0.00028068
-0.000289038
-0.000296865
-0.000304125
-0.000310781
-0.000316798
-0.000322137
-0.000326763
-0.000330639
-0.000333729
-0.000335995
-0.000337402
-0.000337915
-0.000337498
-0.000336117
-0.000333738
-0.000330329
-0.000325866
-0.000320334
-0.00031367
-0.000305617
-0.000295984
-0.000286919
0.000126812
0.000134168
0.000141693
0.000147537
0.000151894
0.000155022
0.000157005
0.000157883
0.000157703
0.000156518
0.000154377
0.000151331
0.000147427
0.000142713
0.000137232
0.000131029
0.000124147
0.000116625
0.000108504
9.9821e-05
9.06126e-05
8.09139e-05
7.07591e-05
6.0181e-05
4.92113e-05
3.7881e-05
2.62202e-05
1.42581e-05
2.02355e-06
-1.04552e-05
-2.31501e-05
-3.60337e-05
-4.90783e-05
-6.22564e-05
-7.55406e-05
-8.89031e-05
-0.000102316
-0.000115751
-0.000129179
-0.000142572
-0.000155899
-0.00016913
-0.000182234
-0.000195181
-0.000207937
-0.00022047
-0.000232745
-0.000244729
-0.000256387
-0.000267681
-0.000278577
-0.000289036
-0.000299022
-0.000308494
-0.000317415
-0.000325744
-0.000333442
-0.000340468
-0.000346781
-0.000352341
-0.000357107
-0.000361037
-0.000364091
-0.000366227
-0.000367406
-0.000367589
-0.000366734
-0.000364806
-0.000361765
-0.000357584
-0.000352244
-0.000345676
-0.000337612
-0.000327854
-0.000318614
0.000167818
0.000174696
0.000181592
0.000186724
0.000190291
0.000192553
0.000193603
0.000193491
0.000192272
0.000190005
0.000186747
0.000182555
0.000177481
0.000171577
0.000164892
0.000157475
0.000149369
0.000140619
0.000131266
0.00012135
0.000110908
9.99769e-05
8.85906e-05
7.67824e-05
6.45842e-05
5.20265e-05
3.91391e-05
2.59506e-05
1.24892e-05
-1.21779e-06
-1.51432e-05
-2.92604e-05
-4.35426e-05
-5.79632e-05
-7.24955e-05
-8.71126e-05
-0.000101787
-0.000116491
-0.000131196
-0.000145873
-0.000160492
-0.000175024
-0.000189436
-0.000203696
-0.00021777
-0.000231626
-0.000245227
-0.000258538
-0.000271521
-0.000284138
-0.000296349
-0.000308116
-0.000319396
-0.000330149
-0.00034033
-0.000349897
-0.000358806
-0.000367012
-0.000374469
-0.000381133
-0.000386956
-0.000391894
-0.000395899
-0.000398926
-0.000400929
-0.000401864
-0.000401684
-0.000400347
-0.000397811
-0.000394039
-0.00038901
-0.000382649
-0.000374676
-0.000364885
-0.000355544
0.00021502
0.00022118
0.000227171
0.000231324
0.000233842
0.000234983
0.00023485
0.000233504
0.000231009
0.000227431
0.000222836
0.000217286
0.000210839
0.000203553
0.00019548
0.000186672
0.000177177
0.00016704
0.000156306
0.000145013
0.000133202
0.000120909
0.000108167
9.50102e-05
8.14692e-05
6.75737e-05
5.33524e-05
3.88327e-05
2.40413e-05
9.0042e-06
-6.25308e-06
-2.17053e-05
-3.73272e-05
-5.30936e-05
-6.89792e-05
-8.49581e-05
-0.000101004
-0.00011709
-0.000133188
-0.000149271
-0.000165307
-0.000181267
-0.00019712
-0.000212831
-0.000228368
-0.000243694
-0.000258774
-0.000273568
-0.000288038
-0.000302144
-0.000315842
-0.00032909
-0.000341844
-0.000354058
-0.000365685
-0.000376677
-0.000386985
-0.000396561
-0.000405353
-0.000413311
-0.000420382
-0.000426516
-0.00043166
-0.000435762
-0.000438769
-0.000440632
-0.000441298
-0.000440717
-0.00043884
-0.000435628
-0.00043105
-0.000425026
-0.000417265
-0.000407552
-0.000398199
0.000268912
0.000274065
0.000278816
0.000281673
0.000282836
0.000282559
0.000280954
0.000278095
0.000274054
0.000268909
0.000262732
0.000255591
0.000247551
0.000238673
0.000229015
0.000218631
0.000207572
0.000195886
0.000183615
0.000170803
0.000157487
0.000143703
0.000129485
0.000114864
9.98713e-05
8.45332e-05
6.88769e-05
5.29278e-05
3.67102e-05
2.02481e-05
3.5645e-06
-1.33174e-05
-3.03747e-05
-4.75843e-05
-6.49227e-05
-8.2366e-05
-9.98895e-05
-0.000117468
-0.000135074
-0.000152681
-0.000170259
-0.000187778
-0.000205207
-0.000222513
-0.000239659
-0.000256611
-0.000273329
-0.000289775
-0.000305905
-0.000321678
-0.000337048
-0.000351968
-0.000366391
-0.000380265
-0.000393541
-0.000406166
-0.000418085
-0.000429243
-0.000439584
-0.000449051
-0.000457586
-0.00046513
-0.000471625
-0.000477011
-0.00048123
-0.000484223
-0.000485931
-0.000486296
-0.000485263
-0.000482783
-0.000478821
-0.000473286
-0.00046588
-0.000456381
-0.000447123
0.000329994
0.000333789
0.000336901
0.000338084
0.000337533
0.000335493
0.000332084
0.000327393
0.000321505
0.000314505
0.000306474
0.000297487
0.000287615
0.000276922
0.000265471
0.000253318
0.000240516
0.000227112
0.000213151
0.000198676
0.000183722
0.000168324
0.000152515
0.000136324
0.000119778
0.000102901
8.57187e-05
6.82519e-05
5.05223e-05
3.25504e-05
1.43564e-05
-4.04005e-06
-2.2619e-05
-4.13601e-05
-6.02429e-05
-7.92458e-05
-9.83466e-05
-0.000117522
-0.000136746
-0.000155994
-0.000175237
-0.000194446
-0.00021359
-0.000232634
-0.000251544
-0.000270283
-0.000288809
-0.000307083
-0.000325059
-0.000342692
-0.000359933
-0.000376732
-0.000393037
-0.000408793
-0.000423944
-0.000438431
-0.000452195
-0.000465174
-0.000477306
-0.000488525
-0.000498767
-0.000507966
-0.000516055
-0.000522967
-0.000528634
-0.000532989
-0.000535966
-0.000537498
-0.00053752
-0.000535976
-0.000532821
-0.000527957
-0.000521076
-0.000511952
-0.000502918
0.000398746
0.000400764
0.000401761
0.000400828
0.000398147
0.000393945
0.000388352
0.000381469
0.000373394
0.000364221
0.000354039
0.00034293
0.000330968
0.000318224
0.000304762
0.00029064
0.000275911
0.000260623
0.000244821
0.000228544
0.000211827
0.000194702
0.000177197
0.000159339
0.000141151
0.000122654
0.000103867
8.4809e-05
6.54958e-05
4.5944e-05
2.61693e-05
6.18734e-06
-1.39862e-05
-3.43349e-05
-5.48419e-05
-7.54892e-05
-9.62576e-05
-0.000117126
-0.000138073
-0.000159074
-0.000180102
-0.000201129
-0.000222125
-0.000243056
-0.000263887
-0.000284578
-0.000305091
-0.00032538
-0.000345399
-0.000365099
-0.000384428
-0.000403333
-0.000421754
-0.000439634
-0.00045691
-0.000473517
-0.000489389
-0.000504457
-0.000518651
-0.000531897
-0.000544124
-0.000555255
-0.000565215
-0.000573928
-0.000581317
-0.000587303
-0.000591812
-0.000594765
-0.00059609
-0.000595719
-0.000593597
-0.000589617
-0.000583463
-0.000574905
-0.000566253
0.000475617
0.000475359
0.000473682
0.000470113
0.000464819
0.000457997
0.000449788
0.000440308
0.000429668
0.000417972
0.000405315
0.000391785
0.000377462
0.000362419
0.000346721
0.000330428
0.000313591
0.000296257
0.000278469
0.000260262
0.000241667
0.000222713
0.000203424
0.00018382
0.000163919
0.000143737
0.000123288
0.000102583
8.16341e-05
6.04513e-05
3.90447e-05
1.74244e-05
-4.39916e-06
-2.64146e-05
-4.861e-05
-7.09717e-05
-9.34847e-05
-0.000116132
-0.000138895
-0.000161751
-0.000184678
-0.000207648
-0.000230632
-0.000253597
-0.000276508
-0.000299326
-0.000322009
-0.00034451
-0.000366782
-0.000388772
-0.000410424
-0.000431679
-0.000452475
-0.000472746
-0.000492424
-0.000511438
-0.000529712
-0.00054717
-0.000563733
-0.00057932
-0.000593846
-0.000607226
-0.000619376
-0.000630207
-0.00063963
-0.000647558
-0.000653902
-0.000658575
-0.00066149
-0.000662569
-0.000661745
-0.000658899
-0.000653712
-0.000645948
-0.000637864
0.000560992
0.000557871
0.000552858
0.00054605
0.000537586
0.000527624
0.000516311
0.000503783
0.00049016
0.000475558
0.000460077
0.00044381
0.000426841
0.000409243
0.000391082
0.000372416
0.000353295
0.000333762
0.000313854
0.000293603
0.000273034
0.00025217
0.000231027
0.00020962
0.000187959
0.000166052
0.000143905
0.000121524
9.8912e-05
7.60719e-05
5.30065e-05
2.97188e-05
6.21254e-06
-1.75067e-05
-4.14335e-05
-6.55603e-05
-8.98772e-05
-0.000114372
-0.00013903
-0.000163834
-0.000188763
-0.000213792
-0.000238895
-0.00026404
-0.000289191
-0.00031431
-0.000339354
-0.000364275
-0.000389022
-0.000413539
-0.000437766
-0.000461639
-0.000485091
-0.000508048
-0.000530436
-0.000552175
-0.000573181
-0.000593369
-0.000612648
-0.000630928
-0.000648112
-0.000664105
-0.000678807
-0.000692119
-0.000703939
-0.000714167
-0.0007227
-0.000729437
-0.000734278
-0.000737132
-0.000737915
-0.000736499
-0.00073256
-0.000725862
-0.000718568
0.000655147
0.000648475
0.00063936
0.000628617
0.000616349
0.000602658
0.000587696
0.000571617
0.000554555
0.000536632
0.000517954
0.000498618
0.000478706
0.000458294
0.000437444
0.000416211
0.00039464
0.000372768
0.000350626
0.000328238
0.000305622
0.000282791
0.000259753
0.000236513
0.000213073
0.000189432
0.000165585
0.000141529
0.000117258
9.27651e-05
6.80449e-05
4.309e-05
1.78953e-05
-7.53557e-06
-3.32099e-05
-5.91272e-05
-8.52838e-05
-0.000111674
-0.000138287
-0.000165112
-0.000192132
-0.000219326
-0.000246669
-0.000274132
-0.000301681
-0.000329278
-0.000356878
-0.000384432
-0.000411886
-0.000439182
-0.000466256
-0.000493036
-0.00051945
-0.000545418
-0.000570856
-0.000595675
-0.000619782
-0.00064308
-0.000665467
-0.000686841
-0.000707091
-0.000726109
-0.000743782
-0.000759993
-0.000774628
-0.000787568
-0.000798699
-0.000807901
-0.000815059
-0.000820064
-0.000822819
-0.00082318
-0.000820822
-0.00081551
-0.000809268
0.00075822
0.000747195
0.000733091
0.000717617
0.000700825
0.000682743
0.000663526
0.000643345
0.000622348
0.000600659
0.000578391
0.000555639
0.000532485
0.000509
0.000485243
0.00046126
0.00043709
0.000412762
0.000388295
0.000363705
0.000338998
0.000314175
0.000289235
0.000264169
0.000238969
0.00021362
0.000188107
0.000162415
0.000136527
0.000110425
8.40906e-05
5.7499e-05
3.06548e-05
3.54466e-06
-2.38614e-05
-5.1564e-05
-7.95662e-05
-0.00010787
-0.000136473
-0.00016537
-0.000194549
-0.000223994
-0.000253685
-0.000283595
-0.000313692
-0.000343938
-0.000374289
-0.000404695
-0.000435099
-0.000465439
-0.000495647
-0.000525646
-0.000555356
-0.000584689
-0.000613551
-0.000641844
-0.000669463
-0.000696299
-0.000722236
-0.000747157
-0.000770938
-0.000793452
-0.000814571
-0.000834163
-0.000852092
-0.000868225
-0.000882425
-0.000894558
-0.000904487
-0.000912086
-0.000917236
-0.000919779
-0.000919394
-0.000915847
-0.00091097
0.000870143
0.000853841
0.000833731
0.00081262
0.000790494
0.000767284
0.000743144
0.000718262
0.000692794
0.000666871
0.000640602
0.00061408
0.000587384
0.000560576
0.000533706
0.000506811
0.000479918
0.000453043
0.000426193
0.000399369
0.000372565
0.000345767
0.000318957
0.000292116
0.000265217
0.000238233
0.000211135
0.000183892
0.000156474
0.000128849
0.000100987
7.28586e-05
4.4442e-05
1.57053e-05
-1.33736e-05
-4.28123e-05
-7.26259e-05
-0.000102826
-0.000133418
-0.000164405
-0.000195783
-0.000227542
-0.000259666
-0.000292132
-0.000324913
-0.000357971
-0.000391264
-0.00042474
-0.000458341
-0.000492001
-0.000525647
-0.000559196
-0.000592561
-0.000625644
-0.000658342
-0.000690545
-0.000722133
-0.000752985
-0.000782969
-0.00081195
-0.000839787
-0.000866336
-0.000891447
-0.000914969
-0.000936746
-0.000956622
-0.00097444
-0.000990043
-0.00100327
-0.00101398
-0.00102202
-0.00102722
-0.00102927
-0.00102793
-0.00102479
0.000990581
0.000967943
0.000940671
0.000912901
0.000884538
0.000855387
0.000825593
0.000795363
0.000764858
0.000734208
0.000703517
0.000672871
0.00064234
0.000611973
0.000581806
0.000551863
0.000522154
0.000492678
0.000463427
0.000434382
0.000405519
0.000376808
0.000348213
0.000319695
0.000291212
0.000262719
0.000234169
0.000205515
0.000176711
0.000147708
0.000118461
8.89269e-05
5.90628e-05
2.8829e-05
-1.81053e-06
-3.28878e-05
-6.44306e-05
-9.64617e-05
-0.000128999
-0.000162053
-0.000195631
-0.000229729
-0.00026434
-0.000299447
-0.000335024
-0.00037104
-0.000407453
-0.000444211
-0.000481255
-0.000518515
-0.000555915
-0.000593364
-0.000630768
-0.000668018
-0.000705
-0.00074159
-0.000777655
-0.000813055
-0.000847642
-0.000881262
-0.000913752
-0.000944946
-0.000974673
-0.00100276
-0.00102902
-0.00105327
-0.00107534
-0.00109504
-0.00111219
-0.0011266
-0.00113812
-0.00114653
-0.00115155
-0.00115295
-0.00115197
0.00111885
0.00108868
0.00105293
0.00101736
0.000981764
0.000945782
0.000909548
0.000873279
0.000837142
0.000801257
0.00076572
0.000730603
0.000695957
0.000661818
0.000628201
0.000595109
0.000562531
0.000530445
0.00049882
0.000467617
0.000436788
0.000406281
0.000376041
0.000346005
0.000316112
0.000286295
0.000256489
0.000226627
0.000196642
0.000166468
0.000136042
0.000105302
7.41879e-05
4.2644e-05
1.06179e-05
-2.19381e-05
-5.50669e-05
-8.88055e-05
-0.000123185
-0.000158229
-0.000193955
-0.000230372
-0.00026748
-0.00030527
-0.000343724
-0.000382813
-0.0004225
-0.000462736
-0.000503459
-0.000544598
-0.000586071
-0.000627783
-0.000669628
-0.00071149
-0.00075324
-0.000794739
-0.000835839
-0.000876379
-0.000916191
-0.000955099
-0.000992916
-0.00102945
-0.0010645
-0.00109787
-0.00112935
-0.00115872
-0.00118577
-0.00121029
-0.00123206
-0.00125089
-0.00126655
-0.00127884
-0.00128746
-0.00129221
-0.00129391
0.00125382
0.00121476
0.00116909
0.00112445
0.00108052
0.00103675
0.000993231
0.000950197
0.00090781
0.000866176
0.000825372
0.000785449
0.000746437
0.000708343
0.000671159
0.00063486
0.000599408
0.000564754
0.000530839
0.000497596
0.000464953
0.000432831
0.000401148
0.000369819
0.000338756
0.00030787
0.000277073
0.000246274
0.000215387
0.000184323
0.000152998
0.000121328
8.92359e-05
5.66445e-05
2.34828e-05
-1.03154e-05
-4.48111e-05
-8.00584e-05
-0.000116105
-0.00015299
-0.000190746
-0.000229394
-0.000268947
-0.000309407
-0.000350765
-0.000393001
-0.000436079
-0.000479956
-0.000524572
-0.000569853
-0.000615714
-0.000662053
-0.000708757
-0.000755697
-0.000802731
-0.000849703
-0.000896445
-0.000942777
-0.000988505
-0.00103343
-0.00107733
-0.00111999
-0.00116118
-0.00120066
-0.00123818
-0.00127351
-0.00130639
-0.00133658
-0.00136382
-0.00138786
-0.00140847
-0.00142539
-0.00143836
-0.00144719
-0.00145216
0.0013938
0.00134436
0.00128713
0.00123206
0.00117861
0.00112601
0.00107432
0.00102377
0.0009745
0.000926603
0.000880126
0.000835088