/*--------------------------------*- C++ -*----------------------------------*\
  =========                 |
  \\      /  F ield         | OpenFOAM: The Open Source CFD Toolbox
   \\    /   O peration     | Website:  https://openfoam.org
    \\  /    A nd           | Version:  12
     \\/     M anipulation  |
\*---------------------------------------------------------------------------*/
FoamFile
{
    format      ascii;
    class       surfaceScalarField;
    location    "4.5";
    object      phi;
}
// * * * * * * * * * * * * * * * * * * * * * * * * * * * * * * * * * * * * * //

dimensions      [0 3 -1 0 0 0 0];

internalField   nonuniform List<scalar> 
11100
(
-1.36351e-11
1.37202e-11
-2.98963e-11
1.62648e-11
-3.47221e-11
4.82974e-12
-2.09765e-11
-1.37433e-11
1.46698e-11
-3.56433e-11
7.32737e-11
-5.86017e-11
1.54479e-10
-8.12026e-11
2.57055e-10
-1.02574e-10
3.79254e-10
-1.22197e-10
5.19042e-10
-1.39786e-10
6.74244e-10
-1.552e-10
8.42641e-10
-1.68395e-10
1.02203e-09
-1.79387e-10
1.21026e-09
-1.88229e-10
1.40526e-09
-1.94998e-10
1.60505e-09
-1.99786e-10
1.80774e-09
-2.02692e-10
2.01157e-09
-2.03821e-10
2.21484e-09
-2.03276e-10
2.41601e-09
-2.01163e-10
2.61359e-09
-1.97584e-10
2.80624e-09
-1.9264e-10
2.99267e-09
-1.86429e-10
3.17172e-09
-1.79047e-10
3.3423e-09
-1.70585e-10
3.50344e-09
-1.61134e-10
3.65422e-09
-1.5078e-10
3.79383e-09
-1.39606e-10
3.92153e-09
-1.27694e-10
4.03665e-09
-1.15122e-10
4.13863e-09
-1.01967e-10
4.22693e-09
-8.83049e-11
4.30115e-09
-7.42077e-11
4.3609e-09
-5.97477e-11
4.4059e-09
-4.49958e-11
4.43592e-09
-3.00225e-11
4.45083e-09
-1.48975e-11
4.45052e-09
3.09405e-13
4.435e-09
1.55282e-11
4.40431e-09
3.06886e-11
4.3586e-09
4.57193e-11
4.29805e-09
6.05482e-11
4.22296e-09
7.51017e-11
4.13365e-09
8.93049e-11
4.03058e-09
1.03081e-10
3.91423e-09
1.16352e-10
3.7852e-09
1.29038e-10
3.64415e-09
1.41055e-10
3.49183e-09
1.52318e-10
3.32909e-09
1.62741e-10
3.15686e-09
1.72234e-10
2.97616e-09
1.80705e-10
2.78811e-09
1.8806e-10
2.59391e-09
1.94203e-10
2.39487e-09
1.99035e-10
2.19242e-09
2.02456e-10
1.98806e-09
2.04364e-10
1.78341e-09
2.04658e-10
1.58017e-09
2.03235e-10
1.38018e-09
1.99996e-10
1.18534e-09
1.94842e-10
9.97662e-10
1.87682e-10
8.19228e-10
1.78436e-10
6.5219e-10
1.6704e-10
4.98737e-10
1.53455e-10
3.61054e-10
1.37684e-10
2.41261e-10
1.19794e-10
1.41315e-10
9.99475e-11
6.28585e-11
7.84577e-11
6.98952e-12
5.58696e-11
-2.60931e-11
3.30833e-11
-3.76298e-11
1.15368e-11
-3.11285e-11
-6.50128e-12
-1.39224e-11
-1.72063e-11
-1.39227e-11
7.58035e-14
1.36455e-11
2.00587e-11
-3.71755e-12
7.47568e-11
-4.98673e-11
1.73375e-10
-1.12361e-10
3.20796e-10
-1.83064e-10
5.18748e-10
-2.56553e-10
7.66684e-10
-3.29138e-10
1.06244e-09
-3.9833e-10
1.40274e-09
-4.62492e-10
1.78354e-09
-5.20588e-10
2.20035e-09
-5.72006e-10
2.64838e-09
-6.16429e-10
3.12274e-09
-6.53747e-10
3.61851e-09
-6.83997e-10
4.13083e-09
-7.07316e-10
4.65496e-09
-7.23911e-10
5.1863e-09
-7.34039e-10
5.72047e-09
-7.37987e-10
6.25326e-09
-7.36063e-10
6.78068e-09
-7.28585e-10
7.29898e-09
-7.1588e-10
7.80462e-09
-6.98275e-10
8.29428e-09
-6.76096e-10
8.7649e-09
-6.49664e-10
9.21362e-09
-6.19297e-10
9.63779e-09
-5.85306e-10
1.0035e-08
-5.47996e-10
1.04031e-08
-5.07664e-10
1.074e-08
-4.64601e-10
1.10439e-08
-4.19093e-10
1.13134e-08
-3.71419e-10
1.1547e-08
-3.21854e-10
1.17434e-08
-2.70666e-10
1.19018e-08
-2.18123e-10
1.20213e-08
-1.64487e-10
1.21013e-08
-1.10021e-10
1.21414e-08
-5.4984e-11
1.21413e-08
3.62747e-13
1.21011e-08
5.57578e-11
1.20208e-08
1.10938e-10
1.19009e-08
1.65638e-10
1.17419e-08
2.19588e-10
1.15445e-08
2.72515e-10
1.13096e-08
3.24142e-10
1.10385e-08
3.74185e-10
1.07325e-08
4.22355e-10
1.03932e-08
4.68357e-10
1.00224e-08
5.11891e-10
9.62207e-09
5.52649e-10
9.19449e-09
5.90317e-10
8.74215e-09
6.24577e-10
8.26776e-09
6.55104e-10
7.77425e-09
6.81569e-10
7.26482e-09
7.0364e-10
6.74287e-09
7.20984e-10
6.21206e-09
7.33267e-10
5.67627e-09
7.40159e-10
5.13959e-09
7.41337e-10
4.60634e-09
7.3649e-10
4.08101e-09
7.25324e-10
3.56828e-09
7.07573e-10
3.07296e-09
6.8301e-10
2.59993e-09
6.51462e-10
2.15414e-09
6.12834e-10
1.74046e-09
5.67141e-10
1.36359e-09
5.14551e-10
1.02794e-09
4.55444e-10
7.37387e-10
3.90505e-10
4.95002e-10
3.20844e-10
3.02698e-10
2.48174e-10
1.60724e-10
1.75059e-10
6.70135e-11
1.05248e-10
1.63153e-11
4.41973e-11
-1.00639e-12
1.15462e-13
-1.49293e-11
2.35961e-11
-9.9506e-12
1.02802e-10
-8.29247e-11
2.447e-10
-1.91767e-10
4.54026e-10
-3.21689e-10
7.33124e-10
-4.62163e-10
1.08212e-09
-6.05548e-10
1.49925e-09
-7.46277e-10
1.98126e-09
-8.80342e-10
2.5237e-09
-1.00493e-09
3.12122e-09
-1.11811e-09
3.76788e-09
-1.21867e-09
4.45731e-09
-1.30586e-09
5.1829e-09
-1.37933e-09
5.93791e-09
-1.43902e-09
6.71565e-09
-1.48505e-09
7.50947e-09
-1.51773e-09
8.31289e-09
-1.53747e-09
9.11964e-09
-1.54474e-09
9.92368e-09
-1.5401e-09
1.07192e-08
-1.52413e-09
1.15008e-08
-1.49744e-09
1.22632e-08
-1.46066e-09
1.30015e-08
-1.41441e-09
1.37112e-08
-1.35934e-09
1.43879e-08
-1.29608e-09
1.50279e-08
-1.22525e-09
1.56273e-08
-1.14746e-09
1.6183e-08
-1.06333e-09
1.66919e-08
-9.7346e-10
1.71512e-08
-8.78431e-10
1.75586e-08
-7.78827e-10
1.7912e-08
-6.7522e-10
1.82095e-08
-5.68175e-10
1.84496e-08
-4.58252e-10
1.86311e-08
-3.46005e-10
1.87531e-08
-2.31987e-10
1.88148e-08
-1.16749e-10
1.8816e-08
-8.41573e-13
1.87566e-08
1.15181e-10
1.86368e-08
2.3076e-10
1.84571e-08
3.45335e-10
1.82183e-08
4.58334e-10
1.79217e-08
5.69182e-10
1.75685e-08
6.7729e-10
1.71606e-08
7.82064e-10
1.67001e-08
8.82897e-10
1.61893e-08
9.79172e-10
1.56309e-08
1.07026e-09
1.5028e-08
1.15553e-09
1.4384e-08
1.23432e-09
1.37026e-08
1.30599e-09
1.29878e-08
1.36987e-09
1.22441e-08
1.4253e-09
1.14761e-08
1.47162e-09
1.0689e-08
1.50816e-09
9.88795e-09
1.53427e-09
9.07879e-09
1.54932e-09
8.26743e-09
1.5527e-09
7.46009e-09
1.54383e-09
6.6632e-09
1.52221e-09
5.88339e-09
1.48739e-09
5.1274e-09
1.439e-09
4.40203e-09
1.37683e-09
3.71405e-09
1.30082e-09
3.07006e-09
1.21113e-09
2.47638e-09
1.10824e-09
1.93884e-09
9.92984e-10
1.4626e-09
8.66746e-10
1.05187e-09
7.31576e-10
7.0961e-10
5.9043e-10
4.37213e-10
4.47456e-10
2.34116e-10
3.08344e-10
9.74772e-11
1.80837e-10
2.20745e-11
7.55186e-11
7.14563e-12
4.7388e-11
-5.73385e-11
1.87977e-10
-2.23516e-10
4.20928e-10
-4.2472e-10
7.45237e-10
-6.46001e-10
1.15906e-09
-8.75984e-10
1.65945e-09
-1.10595e-09
2.24237e-09
-1.3292e-09
2.90274e-09
-1.54071e-09
3.63458e-09
-1.73677e-09
4.4312e-09
-1.91474e-09
5.28535e-09
-2.07282e-09
6.18937e-09
-2.20988e-09
7.13537e-09
-2.32534e-09
8.11533e-09
-2.41898e-09
9.1212e-09
-2.49093e-09
1.0145e-08
-2.54155e-09
1.11789e-08
-2.5714e-09
1.22154e-08
-2.58118e-09
1.3247e-08
-2.57168e-09
1.42666e-08
-2.54377e-09
1.52675e-08
-2.49838e-09
1.62434e-08
-2.43649e-09
1.7188e-08
-2.35908e-09
1.80958e-08
-2.26714e-09
1.89614e-08
-2.16168e-09
1.97799e-08
-2.04371e-09
2.05466e-08
-1.91422e-09
2.12575e-08
-1.77419e-09
2.19086e-08
-1.62461e-09
2.24966e-08
-1.46643e-09
2.30184e-08
-1.30061e-09
2.34713e-08
-1.1281e-09
2.38529e-08
-9.49833e-10
2.41614e-08
-7.66732e-10
2.43951e-08
-5.79722e-10
2.45528e-08
-3.89724e-10
2.46337e-08
-1.97656e-10
2.46373e-08
-4.44123e-12
2.45635e-08
1.88996e-10
2.44125e-08
3.81722e-10
2.41851e-08
5.72797e-10
2.38821e-08
7.61267e-10
2.35051e-08
9.4617e-10
2.30559e-08
1.12653e-09
2.25366e-08
1.30134e-09
2.19499e-08
1.46961e-09
2.12987e-08
1.63031e-09
2.05866e-08
1.7824e-09
1.98173e-08
1.92484e-09
1.8995e-08
2.05655e-09
1.81246e-08
2.17646e-09
1.72109e-08
2.28352e-09
1.62596e-08
2.37663e-09
1.52765e-08
2.45474e-09
1.42678e-08
2.51679e-09
1.32403e-08
2.56176e-09
1.2201e-08
2.58867e-09
1.11571e-08
2.59658e-09
1.01163e-08
2.58463e-09
9.08642e-09
2.55208e-09
8.07552e-09
2.49828e-09
7.09175e-09
2.42276e-09
6.1433e-09
2.32527e-09
5.2383e-09
2.20582e-09
4.38467e-09
2.06475e-09
3.59007e-09
1.90284e-09
2.86165e-09
1.7214e-09
2.20595e-09
1.52245e-09
1.6287e-09
1.30882e-09
1.13466e-09
1.08447e-09
7.27471e-10
8.54644e-10
4.09569e-10
6.26247e-10
1.82208e-10
4.08198e-10
4.56914e-11
2.12035e-10
5.28379e-11
6.8782e-11
-1.2612e-10
2.66273e-10
-4.21008e-10
5.85149e-10
-7.43597e-10
1.01897e-09
-1.07982e-09
1.56146e-09
-1.41848e-09
2.20614e-09
-1.75063e-09
2.94611e-09
-2.06918e-09
3.77401e-09
-2.36861e-09
4.68198e-09
-2.64474e-09
5.66171e-09
-2.89448e-09
6.70458e-09
-3.11569e-09
7.80169e-09
-3.30699e-09
8.94398e-09
-3.46763e-09
1.01223e-08
-3.59734e-09
1.13277e-08
-3.69626e-09
1.2551e-08
-3.76486e-09
1.37834e-08
-3.80387e-09
1.50165e-08
-3.8142e-09
1.62417e-08
-3.79693e-09
1.74512e-08
-3.75325e-09
1.86372e-08
-3.68442e-09
1.97925e-08
-3.59179e-09
2.09102e-08
-3.47673e-09
2.19837e-08
-3.34063e-09
2.30069e-08
-3.18492e-09
2.39742e-08
-3.01101e-09
2.48803e-08
-2.82033e-09
2.57204e-08
-2.61428e-09
2.649e-08
-2.39426e-09
2.71853e-08
-2.16167e-09
2.78025e-08
-1.91788e-09
2.83387e-08
-1.66425e-09
2.8791e-08
-1.40216e-09
2.91572e-08
-1.13294e-09
2.94354e-08
-8.57943e-10
2.96242e-08
-5.78513e-10
2.97225e-08
-2.95996e-10
2.97298e-08
-1.17383e-11
2.96459e-08
2.72901e-10
2.94711e-08
5.56557e-10
2.9206e-08
8.37847e-10
2.88519e-08
1.11538e-09
2.84103e-08
1.38773e-09
2.78834e-08
1.65348e-09
2.72735e-08
1.91116e-09
2.65838e-08
2.15931e-09
2.58177e-08
2.39643e-09
2.49791e-08
2.62101e-09
2.40724e-08
2.83152e-09
2.31025e-08
3.02642e-09
2.20748e-08
3.20418e-09
2.09951e-08
3.36323e-09
1.98697e-08
3.50205e-09
1.87053e-08
3.61911e-09
1.75091e-08
3.71294e-09
1.62888e-08
3.78208e-09
1.50523e-08
3.82516e-09
1.3808e-08
3.8409e-09
1.25645e-08
3.82811e-09
1.13308e-08
3.78579e-09
1.0116e-08
3.71308e-09
8.92935e-09
3.60938e-09
7.78025e-09
3.47437e-09
6.67798e-09
3.30809e-09
5.63172e-09
3.111e-09
4.65043e-09
2.88413e-09
3.74271e-09
2.62912e-09
2.91675e-09
2.34841e-09
2.18018e-09
2.04538e-09
1.54008e-09
1.72457e-09
1.00291e-09
1.39181e-09
5.74619e-10
1.05454e-09
2.60813e-10
7.22004e-10
6.71441e-11
4.05704e-10
1.19983e-10
8.73705e-11
-2.1349e-10
3.35454e-10
-6.69091e-10
7.3191e-10
-1.14005e-09
1.26569e-09
-1.6136e-09
1.92647e-09
-2.07926e-09
2.70428e-09
-2.52844e-09
3.58928e-09
-2.95418e-09
4.5716e-09
-3.35093e-09
5.64129e-09
-3.71443e-09
6.7883e-09
-4.04149e-09
8.00248e-09
-4.32987e-09
9.27364e-09
-4.57815e-09
1.05916e-08
-4.78556e-09
1.19461e-08
-4.9519e-09
1.33273e-08
-5.07744e-09
1.47253e-08
-5.16281e-09
1.61304e-08
-5.20897e-09
1.75333e-08
-5.2171e-09
1.89249e-08
-5.18859e-09
2.02967e-08
-5.12498e-09
2.16402e-08
-5.02792e-09
2.29475e-08
-4.89913e-09
2.42112e-08
-4.74042e-09
2.54242e-08
-4.5536e-09
2.65798e-08
-4.34054e-09
2.76719e-08
-4.1031e-09
2.86947e-08
-3.84315e-09
2.9643e-08
-3.56255e-09
3.05119e-08
-3.26315e-09
3.1297e-08
-2.94681e-09
3.19945e-08
-2.61535e-09
3.26008e-08
-2.2706e-09
3.3113e-08
-1.91438e-09
3.35286e-08
-1.54848e-09
3.38453e-08
-1.17471e-09
3.40617e-08
-7.94882e-10
3.41765e-08
-4.10794e-10
3.4189e-08
-2.42645e-11
3.40991e-08
3.6288e-10
3.39068e-08
7.48797e-10
3.3613e-08
1.13163e-09
3.32189e-08
1.50948e-09
3.27262e-08
1.88046e-09
3.21371e-08
2.24262e-09
3.14542e-08
2.594e-09
3.06809e-08
2.93263e-09
2.98208e-08
3.25648e-09
2.88783e-08
3.56353e-09
2.78581e-08
3.85172e-09
2.67655e-08
4.11899e-09
2.56064e-08
4.36327e-09
2.43872e-08
4.5825e-09
2.31146e-08
4.77462e-09
2.17961e-08
4.93763e-09
2.04395e-08
5.06954e-09
1.90531e-08
5.16847e-09
1.76456e-08
5.2326e-09
1.62263e-08
5.26025e-09
1.48045e-08
5.24988e-09
1.33901e-08
5.20017e-09
1.19932e-08
5.11e-09
1.0624e-08
4.97857e-09
9.29293e-09
4.80544e-09
8.01044e-09
4.59057e-09
6.78698e-09
4.33447e-09
5.6329e-09
4.0382e-09
4.55843e-09
3.70358e-09
3.57358e-09
3.33325e-09
2.68815e-09
2.93081e-09
1.91172e-09
2.50099e-09
1.25373e-09
2.0498e-09
7.23585e-10
1.58468e-09
3.30926e-10
1.11466e-09
8.59517e-11
6.50677e-10
2.05935e-10
1.03418e-10
-3.16908e-10
3.95847e-10
-9.61519e-10
8.61058e-10
-1.60526e-09
1.48421e-09
-2.23675e-09
2.25145e-09
-2.84649e-09
3.14961e-09
-3.4266e-09
4.16604e-09
-3.9706e-09
5.28839e-09
-4.47328e-09
6.50459e-09
-4.93063e-09
7.80275e-09
-5.33965e-09
9.17117e-09
-5.69829e-09
1.05983e-08
-6.00529e-09
1.20728e-08
-6.26008e-09
1.35836e-08
-6.46266e-09
1.51197e-08
-6.61355e-09
1.66706e-08
-6.71368e-09
1.82259e-08
-6.7643e-09
1.97758e-08
-6.76695e-09
2.13106e-08
-6.72339e-09
2.28211e-08
-6.63555e-09
2.42987e-08
-6.50549e-09
2.5735e-08
-6.33539e-09
2.7122e-08
-6.12747e-09
2.84524e-08
-5.88402e-09
2.97193e-08
-5.60736e-09
3.0916e-08
-5.29982e-09
3.20366e-08
-4.96373e-09
3.30754e-08
-4.60143e-09
3.40275e-08
-4.21524e-09
3.48882e-08
-3.80748e-09
3.56533e-08
-3.38046e-09
3.63192e-08
-2.93646e-09
3.68826e-08
-2.47778e-09
3.73408e-08
-2.00669e-09
3.76915e-08
-1.52546e-09
3.79331e-08
-1.03639e-09
3.8064e-08
-5.41758e-10
3.80836e-08
-4.38656e-11
3.79916e-08
4.54968e-10
3.7788e-08
9.52401e-10
3.74735e-08
1.44607e-09
3.70494e-08
1.93357e-09
3.65174e-08
2.41248e-09
3.58797e-08
2.88032e-09
3.51391e-08
3.33462e-09
3.42989e-08
3.77282e-09
3.33631e-08
4.19237e-09
3.23359e-08
4.59068e-09
3.12225e-08
4.96512e-09
3.00284e-08
5.31308e-09
2.87598e-08
5.63192e-09
2.74233e-08
5.91901e-09
2.60262e-08
6.17175e-09
2.45762e-08
6.38758e-09
2.30818e-08
6.56401e-09
2.15516e-08
6.69862e-09
1.99951e-08
6.78912e-09
1.8422e-08
6.83337e-09
1.68425e-08
6.82941e-09
1.52671e-08
6.77553e-09
1.37068e-08
6.67029e-09
1.21728e-08
6.5126e-09
1.06764e-08
6.30177e-09
9.22944e-09
6.03758e-09
7.84351e-09
5.72039e-09
6.53052e-09
5.35119e-09
5.30238e-09
4.93172e-09
4.17106e-09
4.46458e-09
3.14856e-09
3.95331e-09
2.24701e-09
3.40254e-09
1.47871e-09
2.81811e-09
8.56271e-10
2.20712e-09
3.92838e-10
1.57809e-09
1.0236e-10
9.41154e-10
3.08295e-10
1.17332e-10
-4.34239e-10
4.48535e-10
-1.29272e-09
9.74248e-10
-2.13097e-09
1.67647e-09
-2.93897e-09
2.5383e-09
-3.70832e-09
3.54374e-09
-4.43204e-09
4.67752e-09
-5.10437e-09
5.92497e-09
-5.72073e-09
7.27196e-09
-6.27762e-09
8.70483e-09
-6.77251e-09
1.02103e-08
-7.20377e-09
1.17755e-08
-7.57052e-09
1.33881e-08
-7.87259e-09
1.50358e-08
-8.11037e-09
1.6707e-08
-8.28477e-09
1.83904e-08
-8.39713e-09
2.00753e-08
-8.44913e-09
2.17511e-08
-8.44273e-09
2.34078e-08
-8.38015e-09
2.50361e-08
-8.26377e-09
2.66267e-08
-8.09613e-09
2.81712e-08
-7.87986e-09
2.96614e-08
-7.61767e-09
3.10897e-08
-7.31234e-09
3.2449e-08
-6.96665e-09
3.37326e-08
-6.58342e-09
3.49344e-08
-6.16547e-09
3.60485e-08
-5.7156e-09
3.70699e-08
-5.23661e-09
3.79938e-08
-4.7313e-09
3.88158e-08
-4.20245e-09
3.95321e-08
-3.6528e-09
4.01395e-08
-3.08513e-09
4.0635e-08
-2.50218e-09
4.10162e-08
-1.90671e-09
4.12813e-08
-1.30147e-09
4.14288e-08
-6.8924e-10
4.14578e-08
-7.28034e-11
4.13677e-08
5.4502e-10
4.11588e-08
1.16139e-09
4.08314e-08
1.77341e-09
4.03868e-08
2.37817e-09
3.98266e-08
2.97271e-09
3.91529e-08
3.554e-09
3.83686e-08
4.119e-09
3.74768e-08
4.66461e-09
3.64815e-08
5.18768e-09
3.53872e-08
5.68503e-09
3.41988e-08
6.15346e-09
3.29222e-08
6.58974e-09
3.15635e-08
6.99063e-09
3.01296e-08
7.35291e-09
2.8628e-08
7.67337e-09
2.70667e-08
7.94886e-09
2.54544e-08
8.1763e-09
2.38004e-08
8.35272e-09
2.21142e-08
8.47526e-09
2.04063e-08
8.54126e-09
1.86875e-08
8.54827e-09
1.69689e-08
8.49409e-09
1.52624e-08
8.37685e-09
1.35799e-08
8.19506e-09
1.19341e-08
7.94765e-09
1.03376e-08
7.6341e-09
8.80351e-09
7.25443e-09
7.34533e-09
6.80938e-09
5.97666e-09
6.3004e-09
4.71141e-09
5.72983e-09
3.5638e-09
5.10092e-09
2.54837e-09
4.41797e-09
1.68009e-09
3.68638e-09
9.74471e-10
2.91274e-09
4.4768e-10
2.10488e-09
1.16785e-10
1.27205e-09
4.25079e-10
1.29492e-10
-5.63732e-10
4.94652e-10
-1.65788e-09
1.07345e-09
-2.70977e-09
1.84516e-09
-3.71068e-09
2.79022e-09
-4.65338e-09
3.89008e-09
-5.5319e-09
5.12711e-09
-6.3414e-09
6.48452e-09
-7.07813e-09
7.94624e-09
-7.73934e-09
9.49692e-09
-8.32319e-09
1.11218e-08
-8.82868e-09
1.28069e-08
-9.25555e-09
1.45385e-08
-9.60421e-09
1.63037e-08
-9.87562e-09
1.80902e-08
-1.00712e-08
1.9886e-08
-1.0193e-08
2.16799e-08
-1.0243e-08
2.3461e-08
-1.02239e-08
2.52192e-08
-1.01383e-08
2.69446e-08
-9.9892e-09
2.86282e-08
-9.77966e-09
3.02611e-08
-9.5128e-09
3.18353e-08
-9.19187e-09
3.33431e-08
-8.82012e-09
3.47773e-08
-8.40086e-09
3.61313e-08
-7.93738e-09
3.73988e-08
-7.43299e-09
3.85741e-08
-6.89096e-09
3.96521e-08
-6.31457e-09
4.06279e-08
-5.70708e-09
4.14972e-08
-5.07171e-09
4.2256e-08
-4.41169e-09
4.29011e-08
-3.73023e-09
4.34295e-08
-3.03053e-09
4.38386e-08
-2.31582e-09
4.41265e-08
-1.58931e-09
4.42915e-08
-8.54239e-10
4.43325e-08
-1.13879e-10
4.42491e-08
6.28472e-10
4.4041e-08
1.36947e-09
4.37087e-08
2.10572e-09
4.32531e-08
2.83378e-09
4.26757e-08
3.55015e-09
4.19784e-08
4.25126e-09
4.11639e-08
4.9335e-09
4.02354e-08
5.59319e-09
3.91965e-08
6.22657e-09
3.80516e-08
6.82988e-09
3.68058e-08
7.39928e-09
3.54646e-08
7.9309e-09
3.40344e-08
8.42089e-09
3.25219e-08
8.86536e-09
3.09349e-08
9.26047e-09
2.92813e-08
9.60241e-09
2.75702e-08
9.88745e-09
2.58109e-08
1.0112e-08
2.40136e-08
1.02726e-08
2.2189e-08
1.03659e-08
2.03484e-08
1.03888e-08
1.85038e-08
1.03388e-08
1.66675e-08
1.02132e-08
1.48525e-08
1.001e-08
1.30724e-08
9.72778e-09
1.13411e-08
9.36541e-09
9.67306e-09
8.92248e-09
8.08318e-09
8.39925e-09
6.58685e-09
7.79674e-09
5.19989e-09
7.11679e-09
3.93863e-09
6.36219e-09
2.8199e-09
5.5367e-09
1.86115e-09
4.64514e-09
1.08047e-09
3.69342e-09
4.96722e-10
2.68864e-09
1.29638e-10
1.63913e-09
5.54717e-10
1.40191e-10
-7.03922e-10
5.35109e-10
-2.0528e-09
1.1603e-09
-3.33496e-09
1.99258e-09
-4.54296e-09
3.00997e-09
-5.67078e-09
4.19165e-09
-6.71358e-09
5.51784e-09
-7.66759e-09
6.96978e-09
-8.53008e-09
8.52967e-09
-9.29923e-09
1.01806e-08
-9.97411e-09
1.19065e-08
-1.05546e-08
1.36921e-08
-1.10412e-08
1.55229e-08
-1.14351e-08
1.73853e-08
-1.1738e-08
1.92662e-08
-1.19521e-08
2.11533e-08
-1.20801e-08
2.30349e-08
-1.21246e-08
2.49001e-08
-1.2089e-08
2.67384e-08
-1.19766e-08
2.85401e-08
-1.17909e-08
3.02959e-08
-1.15355e-08
3.19973e-08
-1.12142e-08
3.36361e-08
-1.08307e-08
3.52049e-08
-1.03889e-08
3.66965e-08
-9.89247e-09
3.81044e-08
-9.3453e-09
3.94225e-08
-8.75114e-09
4.06453e-08
-8.11373e-09
4.17675e-08
-7.4368e-09
4.27845e-08
-6.72405e-09
4.36919e-08
-5.97914e-09
4.44859e-08
-5.20573e-09
4.51632e-08
-4.40745e-09
4.57206e-08
-3.58793e-09
4.61555e-08
-2.75082e-09
4.6466e-08
-1.89976e-09
4.66502e-08
-1.03844e-09
4.67069e-08
-1.70564e-10
4.66352e-08
7.00095e-10
4.6435e-08
1.56972e-09
4.61063e-08
2.43444e-09
4.56497e-08
3.29029e-09
4.50666e-08
4.13325e-09
4.43587e-08
4.95922e-09
4.35282e-08
5.764e-09
4.2578e-08
6.54332e-09
4.15117e-08
7.29285e-09
4.03334e-08
8.00818e-09
3.90479e-08
8.68482e-09
3.76605e-08
9.31827e-09
3.61774e-08
9.90397e-09
3.46054e-08
1.04374e-08
3.2952e-08
1.09139e-08
3.12254e-08
1.1329e-08
2.94345e-08
1.16784e-08
2.7589e-08
1.19575e-08
2.56991e-08
1.21624e-08
2.3776e-08
1.22889e-08
2.18315e-08
1.23334e-08
1.98779e-08
1.22923e-08
1.79286e-08
1.21625e-08
1.59971e-08
1.19414e-08
1.40982e-08
1.16267e-08
1.22468e-08
1.12168e-08
1.04588e-08
1.07105e-08
8.75058e-09
1.01075e-08
7.13915e-09
9.40817e-09
5.64221e-09
8.61374e-09
4.27808e-09
7.72632e-09
3.0658e-09
6.74898e-09
2.02509e-09
5.68585e-09
1.17643e-09
4.54208e-09
5.41102e-10
3.32396e-09
1.41266e-10
2.03897e-09
6.95983e-10
1.49618e-10
-8.53539e-10
5.70495e-10
-2.47368e-09
1.23583e-09
-4.00029e-09
2.12012e-09
-5.42726e-09
3.19917e-09
-6.74982e-09
4.45001e-09
-7.96442e-09
5.85091e-09
-9.0685e-09
7.38135e-09
-1.00605e-08
9.02193e-09
-1.09398e-08
1.07544e-08
-1.17065e-08
1.25614e-08
-1.23616e-08
1.44268e-08
-1.29066e-08
1.63354e-08
-1.33436e-08
1.82727e-08
-1.36754e-08
2.02254e-08
-1.39048e-08
2.21808e-08
-1.40354e-08
2.41271e-08
-1.40709e-08
2.60531e-08
-1.40151e-08
2.79487e-08
-1.38721e-08
2.9804e-08
-1.36462e-08
3.16101e-08
-1.33416e-08
3.33585e-08
-1.29626e-08
3.50414e-08
-1.25136e-08
3.66515e-08
-1.1999e-08
3.81821e-08
-1.1423e-08
3.96268e-08
-1.079e-08
4.09798e-08
-1.01041e-08
4.22357e-08
-9.36966e-09
4.33896e-08
-8.59069e-09
4.44368e-08
-7.77133e-09
4.53733e-08
-6.91565e-09
4.61953e-08
-6.02769e-09
4.68993e-08
-5.11146e-09
4.74823e-08
-4.17097e-09
4.79417e-08
-3.21024e-09
4.82753e-08
-2.23331e-09
4.84811e-08
-1.24424e-09
4.85577e-08
-2.47164e-10
4.8504e-08
7.53745e-10
4.83195e-08
1.75423e-09
4.8004e-08
2.74996e-09
4.75578e-08
3.73649e-09
4.69817e-08
4.7093e-09
4.62771e-08
5.66376e-09
4.5446e-08
6.59512e-09
4.44908e-08
7.49853e-09
4.34146e-08
8.36904e-09
4.22212e-08
9.2016e-09
4.09149e-08
9.99107e-09
3.95009e-08
1.07322e-08
3.7985e-08
1.14198e-08
3.63738e-08
1.20486e-08
3.46745e-08
1.26132e-08
3.28952e-08
1.31083e-08
3.10448e-08
1.35287e-08
2.9133e-08
1.38693e-08
2.71703e-08
1.41251e-08
2.5168e-08
1.42912e-08
2.31382e-08
1.43632e-08
2.1094e-08
1.43366e-08
1.9049e-08
1.42075e-08
1.70178e-08
1.39725e-08
1.5016e-08
1.36285e-08
1.30598e-08
1.3173e-08
1.11661e-08
1.26041e-08
9.35289e-09
1.19207e-08
7.63876e-09
1.11223e-08
6.04318e-09
1.02093e-08
4.58643e-09
9.18307e-09
3.28958e-09
8.04583e-09
2.17455e-09
6.80088e-09
1.26407e-09
5.45256e-09
5.81727e-10
4.00631e-09
1.51941e-10
2.46875e-09
8.47926e-10
1.57859e-10
-1.0114e-09
6.01036e-10
-2.91685e-09
1.30036e-09
-4.69961e-09
2.22805e-09
-6.35495e-09
3.35775e-09
-7.87953e-09
4.66453e-09
-9.27119e-09
6.12484e-09
-1.05288e-08
7.71655e-09
-1.16522e-08
9.41886e-09
-1.26421e-08
1.12123e-08
-1.35e-08
1.30786e-08
-1.42279e-08
1.50008e-08
-1.48288e-08
1.6963e-08
-1.53059e-08
1.89506e-08
-1.56629e-08
2.09497e-08
-1.59039e-08
2.29476e-08
-1.60334e-08
2.49327e-08
-1.60559e-08
2.68938e-08
-1.59763e-08
2.8821e-08
-1.57993e-08
3.07048e-08
-1.553e-08
3.25366e-08
-1.51734e-08
3.43083e-08
-1.47344e-08
3.60126e-08
-1.42179e-08
3.76425e-08
-1.3629e-08
3.91918e-08
-1.29723e-08
4.06546e-08
-1.22527e-08
4.20253e-08
-1.14749e-08
4.3299e-08
-1.06434e-08
4.4471e-08
-9.7627e-09
4.5537e-08
-8.83734e-09
4.6493e-08
-7.87169e-09
4.73355e-08
-6.87011e-09
4.80609e-08
-5.83693e-09
4.86664e-08
-4.77648e-09
4.91493e-08
-3.69308e-09
4.9507e-08
-2.59109e-09
4.97377e-08
-1.47492e-09
4.98395e-08
-3.49013e-10
4.98112e-08
7.82074e-10
4.96517e-08
1.91371e-09
4.93605e-08
3.04114e-09
4.89375e-08
4.15951e-09
4.8383e-08
5.26381e-09
4.76978e-08
6.34891e-09
4.68834e-08
7.40953e-09
4.59417e-08
8.44025e-09
4.48752e-08
9.43552e-09
4.36871e-08
1.03896e-08
4.23814e-08
1.12968e-08
4.09627e-08
1.2151e-08
3.94363e-08
1.29463e-08
3.78083e-08
1.36766e-08
3.60857e-08
1.43357e-08
3.42764e-08
1.49176e-08
3.2389e-08
1.54161e-08
3.04331e-08
1.58252e-08
2.84193e-08
1.61389e-08
2.63589e-08
1.63516e-08
2.42645e-08
1.64576e-08
2.21492e-08
1.64518e-08
2.00275e-08
1.63292e-08
1.79148e-08
1.60853e-08
1.58272e-08
1.57161e-08
1.37821e-08
1.52181e-08
1.17977e-08
1.45885e-08
9.89324e-09
1.38251e-08
8.08897e-09
1.29266e-08
6.40605e-09
1.18922e-08
4.86661e-09
1.07225e-08
3.49373e-09
9.4187e-09
2.31144e-09
7.98317e-09
1.34467e-09
6.41933e-09
6.19251e-10
4.73173e-09
1.61859e-10
2.92615e-09
1.00979e-09
1.64897e-10
-1.1763e-09
6.26581e-10
-3.37854e-09
1.35341e-09
-5.42644e-09
2.3153e-09
-7.31684e-09
3.48381e-09
-9.04804e-09
4.83209e-09
-1.06195e-08
6.33495e-09
-1.20317e-08
7.96878e-09
-1.32861e-08
9.71158e-09
-1.43849e-08
1.15429e-08
-1.53313e-08
1.34437e-08
-1.61288e-08
1.53965e-08
-1.67816e-08
1.7385e-08
-1.72944e-08
1.93944e-08
-1.76723e-08
2.1411e-08
-1.79205e-08
2.34221e-08
-1.80445e-08
2.54163e-08
-1.80501e-08
2.73829e-08
-1.79429e-08
2.93124e-08
-1.77288e-08
3.1196e-08
-1.74135e-08
3.30255e-08
-1.70029e-08
3.47935e-08
-1.65024e-08
3.64934e-08
-1.59178e-08
3.81188e-08
-1.52544e-08
3.9664e-08
-1.45175e-08
4.11237e-08
-1.37124e-08
4.2493e-08
-1.28442e-08
4.37673e-08
-1.19177e-08
4.49425e-08
-1.09379e-08
4.60145e-08
-9.90937e-09
4.69797e-08
-8.83688e-09
4.78346e-08
-7.72502e-09
4.8576e-08
-6.57834e-09
4.92009e-08
-5.40139e-09
4.97066e-08
-4.19873e-09
5.00905e-08
-2.97495e-09
5.03502e-08
-1.7347e-09
5.04839e-08
-4.82698e-10
5.04898e-08
7.76222e-10
5.03664e-08
2.03711e-09
5.01126e-08
3.29488e-09
4.97278e-08
4.54428e-09
4.92118e-08
5.77989e-09
4.85646e-08
6.99612e-09
4.77869e-08
8.18718e-09
4.68801e-08
9.3471e-09
4.58459e-08
1.04697e-08
4.46868e-08
1.15487e-08
4.34061e-08
1.25775e-08
4.20076e-08
1.35495e-08
4.04961e-08
1.44578e-08
3.88771e-08
1.52955e-08
3.71572e-08
1.60557e-08
3.53436e-08
1.67312e-08
3.34447e-08
1.7315e-08
3.14698e-08
1.78e-08
2.94294e-08
1.81793e-08
2.73349e-08
1.84461e-08
2.51988e-08
1.85937e-08
2.30347e-08
1.86159e-08
2.08575e-08
1.85064e-08
1.86831e-08
1.82597e-08
1.65285e-08
1.78707e-08
1.4412e-08
1.73347e-08
1.23529e-08
1.66476e-08
1.0372e-08
1.58061e-08
8.49072e-09
1.48078e-08
6.73209e-09
1.36509e-08
5.12001e-09
1.23346e-08
3.67956e-09
1.08592e-08
2.43683e-09
9.22589e-09
1.41897e-09
7.43719e-09
6.54075e-10
5.49662e-09
1.71141e-10
3.40908e-09
1.18093e-09
1.7061e-10
-1.34691e-09
6.46591e-10
-3.85451e-09
1.39368e-09
-6.17353e-09
2.37946e-09
-8.30262e-09
3.57337e-09
-1.02419e-08
4.94678e-09
-1.19929e-08
6.47292e-09
-1.35578e-08
8.12695e-09
-1.49401e-08
9.88584e-09
-1.61438e-08
1.17284e-08
-1.71738e-08
1.36351e-08
-1.80354e-08
1.55881e-08
-1.87346e-08
1.75712e-08
-1.92775e-08
1.95696e-08
-1.96707e-08
2.15699e-08
-1.99208e-08
2.35599e-08
-2.00346e-08
2.55288e-08
-2.00189e-08
2.74666e-08
-1.98807e-08
2.93645e-08
-1.96267e-08
3.12145e-08
-1.92635e-08
3.30093e-08
-1.87977e-08
3.47425e-08
-1.82356e-08
3.64082e-08
-1.75834e-08
3.80009e-08
-1.68471e-08
3.95158e-08
-1.60324e-08
4.09483e-08
-1.5145e-08
4.22943e-08
-1.41902e-08
4.35499e-08
-1.31733e-08
4.47113e-08
-1.20993e-08
4.57751e-08
-1.09731e-08
4.67379e-08
-9.79968e-09
4.75965e-08
-8.58366e-09
4.83479e-08
-7.32975e-09
4.89892e-08
-6.04264e-09
4.95174e-08
-4.72698e-09
4.993e-08
-3.38749e-09
5.02243e-08
-2.02897e-09
5.03979e-08
-6.56302e-10
5.04486e-08
7.25496e-10
5.03745e-08
2.11125e-09
5.01738e-08
3.49559e-09
4.98451e-08
4.87299e-09
4.93874e-08
6.23766e-09
4.87999e-08
7.58359e-09
4.80825e-08
8.90454e-09
4.72357e-08
1.0194e-08
4.62601e-08
1.14452e-08
4.51575e-08
1.26513e-08
4.39302e-08
1.38049e-08
4.25811e-08
1.48986e-08
4.11141e-08
1.59247e-08
3.95341e-08
1.68756e-08
3.78467e-08
1.77431e-08
3.60587e-08
1.85192e-08
3.41779e-08
1.91958e-08
3.22131e-08
1.97648e-08
3.01745e-08
2.0218e-08
2.80733e-08
2.05473e-08
2.5922e-08
2.0745e-08
2.37345e-08
2.08034e-08
2.15258e-08
2.07151e-08
1.93123e-08
2.04732e-08
1.71118e-08
2.00712e-08
1.49434e-08
1.9503e-08
1.28276e-08
1.87634e-08
1.07862e-08
1.78475e-08
8.84232e-09
1.67517e-08
7.02046e-09
1.54727e-08
5.34639e-09
1.40086e-08
3.84715e-09
1.23584e-08
2.55096e-09
1.05221e-08
1.48721e-09
8.50093e-09
6.86355e-10
6.29747e-09
1.79844e-10
3.91559e-09
1.36077e-09
1.74769e-10
-1.52167e-09
6.6012e-10
-4.33986e-09
1.41901e-09
-6.93242e-09
2.4166e-09
-9.30021e-09
3.62027e-09
-1.14456e-08
4.99963e-09
-1.33722e-08
6.52653e-09
-1.50847e-08
8.17505e-09
-1.65886e-08
9.92141e-09
-1.78902e-08
1.17439e-08
-1.89963e-08
1.36229e-08
-1.99144e-08
1.55406e-08
-2.06523e-08
1.74809e-08
-2.12179e-08
1.94297e-08
-2.16195e-08
2.13742e-08
-2.18652e-08
2.3303e-08
-2.19634e-08
2.52062e-08
-2.19221e-08
2.7075e-08
-2.17495e-08
2.89015e-08
-2.14532e-08
3.06789e-08
-2.1041e-08
3.24013e-08
-2.05201e-08
3.40633e-08
-1.98976e-08
3.56601e-08
-1.91802e-08
3.71875e-08
-1.83745e-08
3.86417e-08
-1.74866e-08
4.00192e-08
-1.65224e-08
4.13167e-08
-1.54876e-08
4.2531e-08
-1.43876e-08
4.36592e-08
-1.32275e-08
4.46985e-08
-1.20123e-08
4.56458e-08
-1.0747e-08
4.64984e-08
-9.43625e-09
4.72534e-08
-8.08473e-09
4.79079e-08
-6.6971e-09
4.84589e-08
-5.27803e-09
4.89037e-08
-3.83222e-09
4.92392e-08
-2.36447e-09
4.94626e-08
-8.7971e-10
4.95711e-08
6.16972e-10
4.95621e-08
2.12029e-09
4.9433e-08
3.62471e-09
4.91815e-08
5.12449e-09
4.88056e-08
6.61355e-09
4.83037e-08
8.08556e-09
4.76744e-08
9.53385e-09
4.69169e-08
1.09515e-08
4.60312e-08
1.23311e-08
4.50174e-08
1.3665e-08
4.38768e-08
1.49454e-08
4.26113e-08
1.61641e-08
4.12237e-08
1.73124e-08
3.97177e-08
1.83816e-08
3.8098e-08
1.93628e-08
3.63705e-08
2.02467e-08
3.45422e-08
2.10241e-08
3.26214e-08
2.16856e-08
3.06176e-08
2.22217e-08
2.85418e-08
2.26232e-08
2.64062e-08
2.28806e-08
2.42245e-08
2.2985e-08
2.20121e-08
2.29275e-08
1.97857e-08
2.26996e-08
1.75636e-08
2.22933e-08
1.53657e-08
2.1701e-08
1.32134e-08
2.09157e-08
1.11298e-08
1.99312e-08
9.1393e-09
1.87421e-08
7.26811e-09
1.73439e-08
5.54378e-09
1.5733e-08
3.99534e-09
1.39068e-08
2.65321e-09
1.18642e-08
1.54912e-09
9.60502e-09
7.16018e-10
7.13058e-09
1.87961e-10
4.44364e-09
1.54873e-09
1.77032e-10
-1.69871e-09
6.65797e-10
-4.82863e-09
1.42631e-09
-7.69293e-09
2.42124e-09
-1.02951e-08
3.61593e-09
-1.26403e-08
4.97838e-09
-1.47347e-08
6.47922e-09
-1.65856e-08
8.09168e-09
-1.82011e-08
9.79153e-09
-1.959e-08
1.15569e-08
-2.07617e-08
1.33683e-08
-2.17258e-08
1.52085e-08
-2.24924e-08
1.7062e-08
-2.30715e-08
1.89156e-08
-2.34731e-08
2.07576e-08
-2.37072e-08
2.25779e-08
-2.37837e-08
2.43679e-08
-2.37121e-08
2.61202e-08
-2.35018e-08
2.78286e-08
-2.31616e-08
2.94879e-08
-2.27002e-08
3.10935e-08
-2.21257e-08
3.26416e-08
-2.14457e-08
3.41292e-08
-2.06677e-08
3.55532e-08
-1.97986e-08
3.69114e-08
-1.88448e-08
3.82013e-08
-1.78124e-08
3.9421e-08
-1.67073e-08
4.05682e-08
-1.55348e-08
4.16408e-08
-1.43002e-08
4.26368e-08
-1.30083e-08
4.35538e-08
-1.1664e-08
4.43893e-08
-1.02717e-08
4.51406e-08
-8.83609e-09
4.58051e-08
-7.36154e-09
4.63796e-08
-5.85253e-09
4.6861e-08
-4.31362e-09
4.7246e-08
-2.74946e-09
4.75311e-08
-1.16485e-09
4.77129e-08
4.35176e-10
4.77878e-08
2.04536e-09
4.77524e-08
3.66014e-09
4.76033e-08
5.27365e-09
4.73372e-08
6.87965e-09
4.69512e-08
8.47153e-09
4.64428e-08
1.00423e-08
4.58097e-08
1.15846e-08
4.50503e-08
1.30905e-08
4.41635e-08
1.45518e-08
4.31491e-08
1.59599e-08
4.20075e-08
1.73057e-08
4.07401e-08
1.85798e-08
3.93494e-08
1.97724e-08
3.78387e-08
2.08734e-08
3.62129e-08
2.18726e-08
3.44778e-08
2.27592e-08
3.26408e-08
2.35226e-08
3.07107e-08
2.41519e-08
2.86978e-08
2.46361e-08
2.66138e-08
2.49646e-08
2.44725e-08
2.51264e-08
2.22889e-08
2.51111e-08
2.008e-08
2.49085e-08
1.78645e-08
2.45088e-08
1.5663e-08
2.39025e-08
1.34978e-08
2.30809e-08
1.13929e-08
2.20361e-08
9.37429e-09
2.07607e-08
7.46969e-09
1.92485e-08
5.70848e-09
1.74942e-08
4.12175e-09
1.54936e-08
2.74218e-09
1.32438e-08
1.60399e-09
1.07432e-08
7.42773e-10
7.99179e-09
1.9543e-10
4.99099e-09
1.74416e-09
1.76938e-10
-1.87564e-09
6.61788e-10
-5.31348e-09
1.41148e-09
-8.44262e-09
2.38618e-09
-1.12698e-08
3.54925e-09
-1.38034e-08
4.86722e-09
-1.60527e-08
6.30975e-09
-1.80281e-08
7.84955e-09
-1.97409e-08
9.46226e-09
-2.12027e-08
1.11263e-08
-2.24257e-08
1.28228e-08
-2.34223e-08
1.45353e-08
-2.42049e-08
1.62497e-08
-2.47859e-08
1.79541e-08
-2.51774e-08
1.96384e-08