/*--------------------------------*- C++ -*----------------------------------*\
  =========                 |
  \\      /  F ield         | OpenFOAM: The Open Source CFD Toolbox
   \\    /   O peration     | Website:  https://openfoam.org
    \\  /    A nd           | Version:  12
     \\/     M anipulation  |
\*---------------------------------------------------------------------------*/
FoamFile
{
    format      ascii;
    class       volScalarField;
    location    "1.1";
    object      nut;
}
// * * * * * * * * * * * * * * * * * * * * * * * * * * * * * * * * * * * * * //

dimensions      [0 2 -1 0 0 0 0];

internalField   nonuniform List<scalar> 
900
(
1.11022e-21
4.44089e-21
4.44089e-21
4.44089e-21
4.44089e-21
4.44089e-21
4.44089e-21
4.44089e-21
4.44089e-21
4.44089e-21
4.44089e-21
4.44089e-21
4.44089e-21
4.44089e-21
4.44089e-21
4.44089e-21
4.44089e-21
4.44089e-21
4.44089e-21
4.44089e-21
4.44089e-21
4.44089e-21
4.44089e-21
4.44089e-21
4.44089e-21
4.44089e-21
4.44089e-21
4.44089e-21
4.44089e-21
1.11022e-21
1.11022e-21
5.27747e-21
1.21699e-20
1.75328e-20
1.99816e-20
2.0873e-20
2.11868e-20
2.13028e-20
2.13493e-20
2.13694e-20
2.13789e-20
2.13836e-20
2.1386e-20
2.13872e-20
2.13877e-20
2.13877e-20
2.13872e-20
2.13859e-20
2.13835e-20
2.13787e-20
2.13693e-20
2.13491e-20
2.13027e-20
2.11866e-20
2.08728e-20
1.99815e-20
1.75327e-20
1.21699e-20
5.27747e-21
1.11022e-21
1.11022e-21
5.3411e-21
1.40854e-20
2.61649e-20
3.79586e-20
4.65283e-20
5.16271e-20
5.43649e-20
5.5784e-20
5.65209e-20
5.69106e-20
5.71209e-20
5.72353e-20
5.72954e-20
5.73215e-20
5.73218e-20
5.72962e-20
5.72365e-20
5.71224e-20
5.69121e-20
5.65223e-20
5.57852e-20
5.43657e-20
5.16277e-20
4.65288e-20
3.7959e-20
2.61652e-20
1.40855e-20
5.34111e-21
1.11022e-21
1.11022e-21
5.34676e-21
1.43251e-20
2.82235e-20
4.56746e-20
6.38347e-20
7.9726e-20
9.17859e-20
1.00057e-19
1.05382e-19
1.08693e-19
1.10706e-19
1.11901e-19
1.12568e-19
1.12869e-19
1.12875e-19
1.12586e-19
1.11928e-19
1.10739e-19
1.08727e-19
1.05414e-19
1.00083e-19
9.18047e-20
7.97372e-20
6.38401e-20
4.56767e-20
2.82241e-20
1.43252e-20
5.34677e-21
1.11022e-21
1.11022e-21
5.34747e-21
1.43606e-20
2.86361e-20
4.78399e-20
7.06621e-20
9.48182e-20
1.1768e-19
1.37221e-19
1.52548e-19
1.63774e-19
1.71546e-19
1.76629e-19
1.7967e-19
1.81104e-19
1.81146e-19
1.7979e-19
1.76808e-19
1.71756e-19
1.63982e-19
1.52727e-19
1.37351e-19
1.17759e-19
9.48563e-20
7.06766e-20
4.7844e-20
2.8637e-20
1.43607e-20
5.34749e-21
1.11022e-21
1.11022e-21
5.34761e-21
1.43676e-20
2.8731e-20
4.84338e-20
7.29347e-20
1.00976e-19
1.3057e-19
1.59352e-19
1.85189e-19
2.06679e-19
2.23293e-19
2.35166e-19
2.42748e-19
2.4649e-19
2.46646e-19
2.43185e-19
2.35798e-19
2.23998e-19
2.07333e-19
1.85701e-19
1.59688e-19
1.3075e-19
1.01054e-19
7.29608e-20
4.84403e-20
2.87322e-20
1.43677e-20
5.34762e-21
1.11022e-21
1.11022e-21
5.34764e-21
1.43694e-20
2.87567e-20
4.86105e-20
7.36868e-20
1.03265e-19
1.35989e-19
1.69872e-19
2.02586e-19
2.31938e-19
2.56313e-19
2.74842e-19
2.87266e-19
2.93633e-19
2.94e-19
2.88282e-19
2.76272e-19
2.57846e-19
2.3329e-19
2.03583e-19
1.70485e-19
1.36299e-19
1.03391e-19
7.37265e-20
4.86196e-20
2.87581e-20
1.43695e-20
5.34765e-21
1.11022e-21
1.11022e-21
5.34765e-21
1.43699e-20
2.87644e-20
4.86653e-20
7.39327e-20
1.0406e-19
1.37996e-19
1.74039e-19
2.09945e-19
2.43293e-19
2.71954e-19
2.94437e-19
3.09927e-19
3.18072e-19
3.18703e-19
3.11655e-19
2.96834e-19
2.74472e-19
2.45455e-19
2.11494e-19
1.74963e-19
1.3845e-19
1.04239e-19
7.39869e-20
4.86769e-20
2.87659e-20
1.437e-20
5.34765e-21
1.11022e-21
1.11022e-21
5.34766e-21
1.43701e-20
2.87666e-20
4.868e-20
7.39981e-20
1.04272e-19
1.38535e-19
1.75166e-19
2.11951e-19
2.4641e-19
2.76281e-19
2.99911e-19
3.16344e-19
3.25125e-19
3.26002e-19
3.18744e-19
3.0323e-19
2.79749e-19
2.49367e-19
2.14049e-19
1.76404e-19
1.39135e-19
1.04504e-19
7.40663e-20
4.86937e-20
2.8768e-20
1.43701e-20
5.34765e-21
1.11022e-21
1.11022e-21
5.34766e-21
1.43701e-20
2.87669e-20
4.86805e-20
7.39951e-20
1.0425e-19
1.38451e-19
1.74929e-19
2.11419e-19
2.45416e-19
2.74702e-19
2.97739e-19
3.1373e-19
3.22354e-19
3.23424e-19
3.16664e-19
3.01811e-19
2.78975e-19
2.49072e-19
2.14017e-19
1.76461e-19
1.39189e-19
1.04532e-19
7.40753e-20
4.86952e-20
2.87679e-20
1.437e-20
5.34764e-21
1.11022e-21
1.11022e-21
5.34767e-21
1.43702e-20
2.87667e-20
4.86762e-20
7.39677e-20
1.04141e-19
1.38124e-19
1.74147e-19
2.09852e-19
2.42726e-19
2.70668e-19
2.92375e-19
3.07323e-19
3.15428e-19
3.16629e-19
3.10629e-19
2.96995e-19
2.75559e-19
2.46946e-19
2.1287e-19
1.75929e-19
1.38979e-19
1.04462e-19
7.40554e-20
4.86903e-20
2.87669e-20
1.43698e-20
5.34762e-21
1.11022e-21
1.11022e-21
5.34769e-21
1.43703e-20
2.87667e-20
4.86715e-20
7.39358e-20
1.04012e-19
1.37742e-19
1.73237e-19
2.08048e-19
2.39666e-19
2.66133e-19
2.86391e-19
3.00198e-19
3.07705e-19
3.08985e-19
3.03735e-19
2.91371e-19
2.71457e-19
2.44303e-19
2.11385e-19
1.75209e-19
1.38681e-19
1.04357e-19
7.40242e-20
4.86826e-20
2.87653e-20
1.43696e-20
5.3476e-21
1.11022e-21
1.11022e-21
5.3477e-21
1.43705e-20
2.87671e-20
4.86688e-20
7.39106e-20
1.03902e-19
1.37406e-19
1.72432e-19
2.06456e-19
2.3698e-19
2.6217e-19
2.81183e-19
2.9401e-19
3.00993e-19
3.02316e-19
2.97675e-19
2.86373e-19
2.67756e-19
2.41877e-19
2.09993e-19
1.74517e-19
1.38384e-19
1.04248e-19
7.399e-20
4.86734e-20
2.87633e-20
1.43692e-20
5.34756e-21
1.11022e-21
1.11022e-21
5.34773e-21
1.43708e-20
2.87683e-20
4.86699e-20
7.38995e-20
1.03836e-19
1.37183e-19
1.71877e-19
2.05337e-19
2.35077e-19
2.59354e-19
2.77481e-19
2.89614e-19
2.96226e-19
2.97575e-19
2.93353e-19
2.82785e-19
2.65071e-19
2.40088e-19
2.08942e-19
1.73976e-19
1.38141e-19
1.04152e-19
7.39566e-20
4.86633e-20
2.87608e-20
1.43688e-20
5.34751e-21
1.11022e-21
1.11022e-21
5.34776e-21
1.43713e-20
2.87705e-20
4.86759e-20
7.39074e-20
1.03829e-19
1.37113e-19
1.71654e-19
2.0484e-19
2.34187e-19
2.58006e-19
2.75691e-19
2.8748e-19
2.93908e-19
2.95272e-19
2.91252e-19
2.8103e-19
2.63737e-19
2.39169e-19
2.08371e-19
1.73656e-19
1.37979e-19
1.04077e-19
7.39259e-20
4.86524e-20
2.87577e-20
1.43682e-20
5.34744e-21
1.11022e-21
1.11022e-21
5.34781e-21
1.43719e-20
2.87739e-20
4.86877e-20
7.39373e-20
1.03889e-19
1.37216e-19
1.71808e-19
2.05043e-19
2.34433e-19
2.58285e-19
2.75997e-19
2.87809e-19
2.94251e-19
2.9562e-19
2.91571e-19
2.81276e-19
2.63878e-19
2.39204e-19
2.08328e-19
1.73579e-19
1.37905e-19
1.04026e-19
7.38976e-20
4.86404e-20
2.87539e-20
1.43674e-20
5.34735e-21
1.11022e-21
1.11022e-21
5.34787e-21
1.43727e-20
2.87787e-20
4.8706e-20
7.39907e-20
1.04021e-19
1.37499e-19
1.72347e-19
2.05961e-19
2.35833e-19
2.60216e-19
2.78427e-19
2.90627e-19
2.97278e-19
2.98627e-19
2.94298e-19
2.83495e-19
2.65461e-19
2.40158e-19
2.08786e-19
1.73728e-19
1.37911e-19
1.03993e-19
7.38699e-20
4.86265e-20
2.87492e-20
1.43664e-20
5.34724e-21
1.11022e-21
1.11022e-21
5.34794e-21
1.43737e-20
2.87849e-20
4.87307e-20
7.4067e-20
1.0422e-19
1.37951e-19
1.73249e-19
2.07549e-19
2.38315e-19
2.63697e-19
2.82854e-19
2.95782e-19
3.02798e-19
3.04066e-19
2.99187e-19
2.87448e-19
2.68278e-19
2.41877e-19
2.09645e-19
1.74047e-19
1.3797e-19
1.03968e-19
7.38393e-20
4.86097e-20
2.87433e-20
1.43651e-20
5.34708e-21
1.11022e-21
1.11022e-21
5.34804e-21
1.4375e-20
2.87925e-20
4.87615e-20
7.41633e-20
1.04475e-19
1.38541e-19
1.74443e-19
2.09676e-19
2.41674e-19
2.6844e-19
2.88908e-19
3.02826e-19
3.10298e-19
3.11392e-19
3.05694e-19
2.92637e-19
2.71921e-19
2.44067e-19
2.10724e-19
1.74444e-19
1.38043e-19
1.03937e-19
7.38012e-20
4.85889e-20
2.8736e-20
1.43635e-20
5.34689e-21
1.11022e-21
1.11022e-21
5.34815e-21
1.43765e-20
2.88016e-20
4.87973e-20
7.42737e-20
1.04765e-19
1.39208e-19
1.75793e-19
2.12091e-19
2.45504e-19
2.73866e-19
2.95836e-19
3.10855e-19
3.18773e-19
3.19559e-19
3.12813e-19
2.98179e-19
2.75697e-19
2.46252e-19
2.11743e-19
1.74777e-19
1.3807e-19
1.03879e-19
7.37496e-20
4.85624e-20
2.87268e-20
1.43615e-20
5.34665e-21
1.11022e-21
1.11022e-21
5.34829e-21
1.43783e-20
2.88118e-20
4.88358e-20
7.4387e-20
1.0505e-19
1.39843e-19
1.77056e-19
2.14327e-19
2.49032e-19
2.78846e-19
3.02154e-19
3.18093e-19
3.2627e-19
3.2659e-19
3.18712e-19
3.02538e-19
2.78456e-19
2.47677e-19
2.12268e-19
1.74832e-19
1.3796e-19
1.03762e-19
7.36754e-20
4.85283e-20
2.87155e-20
1.43591e-20
5.34634e-21
1.11022e-21
1.11022e-21
5.34845e-21
1.43803e-20
2.88226e-20
4.88726e-20
7.44814e-20
1.05256e-19
1.40244e-19
1.77776e-19
2.15515e-19
2.50818e-19
2.81268e-19
3.05093e-19
3.21258e-19
3.29254e-19
3.28973e-19
3.2022e-19
3.03122e-19
2.78297e-19
2.47087e-19
2.11567e-19
1.74237e-19
1.37553e-19
1.03528e-19
7.35624e-20
4.8483e-20
2.87013e-20
1.4356e-20
5.34596e-21
1.11022e-21
1.11022e-21
5.34864e-21
1.43826e-20
2.88326e-20
4.88973e-20
7.45093e-20
1.05224e-19
1.40005e-19
1.77083e-19
2.14058e-19
2.48299e-19
2.77481e-19
2.99975e-19
3.1489e-19
3.2188e-19
3.20989e-19
3.12176e-19
2.95645e-19
2.71956e-19
2.4224e-19
2.08265e-19
1.72251e-19
1.36507e-19
1.03049e-19
7.33724e-20
4.84183e-20
2.86832e-20
1.43523e-20
5.34549e-21
1.11022e-21
1.11022e-21
5.34887e-21
1.43848e-20
2.88383e-20
4.88831e-20
7.43551e-20
1.04597e-19
1.38252e-19
1.73235e-19
2.07014e-19
2.37154e-19
2.61835e-19
2.80084e-19
2.91621e-19
2.96586e-19
2.95273e-19
2.87758e-19
2.74109e-19
2.54481e-19
2.2936e-19
1.99768e-19
1.67316e-19
1.3403e-19
1.01995e-19
7.29997e-20
4.83101e-20
2.86574e-20
1.43475e-20
5.34489e-21
1.11022e-21
1.11022e-21
5.34914e-21
1.43863e-20
2.88269e-20
4.8746e-20
7.36828e-20
1.02427e-19
1.32951e-19
1.62736e-19
1.89412e-19
2.11365e-19
2.27945e-19
2.39279e-19
2.4587e-19
2.48299e-19
2.4698e-19
2.42013e-19
2.33269e-19
2.20453e-19
2.03278e-19
1.81719e-19
1.56294e-19
1.2825e-19
9.94773e-20
7.21238e-20
4.80774e-20
2.86115e-20
1.43405e-20
5.34407e-21
1.11022e-21
1.11022e-21
5.34942e-21
1.43831e-20
2.87467e-20
4.81857e-20
7.14587e-20
9.62804e-20
1.19908e-19
1.4012e-19
1.55847e-19
1.67122e-19
1.74607e-19
1.79128e-19
1.81399e-19
1.81936e-19
1.8101e-19
1.78671e-19
1.74769e-19
1.68952e-19
1.60677e-19
1.49283e-19
1.34187e-19
1.15236e-19
9.31529e-20
6.97277e-20
4.74209e-20
2.84931e-20
1.43271e-20
5.34284e-21
1.11022e-21
1.11022e-21
5.34922e-21
1.43516e-20
2.83461e-20
4.60342e-20
6.4595e-20
8.09572e-20
9.3406e-20
1.01881e-19
1.07211e-19
1.10366e-19
1.12112e-19
1.1297e-19
1.13255e-19
1.13143e-19
1.1271e-19
1.11961e-19
1.10843e-19
1.09216e-19
1.06825e-19
1.03246e-19
9.78308e-20
8.97223e-20
7.80921e-20
6.27909e-20
4.51686e-20
2.80469e-20
1.42833e-20
5.34062e-21
1.11022e-21
1.11022e-21
5.344e-21
1.41136e-20
2.62858e-20
3.82627e-20
4.70363e-20
5.2268e-20
5.50437e-20
5.64295e-20
5.7092e-20
5.73874e-20
5.74956e-20
5.75055e-20
5.74603e-20
5.7377e-20
5.7258e-20
5.70978e-20
5.68925e-20
5.66236e-20
5.62519e-20
5.56997e-20
5.48139e-20
5.32905e-20
5.0547e-20
4.56063e-20
3.73638e-20
2.5918e-20
1.40277e-20
5.33311e-21
1.11022e-21
1.11022e-21
5.27999e-21
1.21912e-20
1.76001e-20
2.00878e-20
2.09914e-20
2.12988e-20
2.14005e-20
2.14306e-20
2.1435e-20
2.14302e-20
2.1422e-20
2.14128e-20
2.1403e-20
2.13921e-20
2.13771e-20
2.13552e-20
2.13292e-20
2.12986e-20
2.12611e-20
2.12128e-20
2.11465e-20
2.10463e-20
2.08717e-20
2.05064e-20
1.96038e-20
1.72427e-20
1.20591e-20
5.26514e-21
1.11022e-21
1.11022e-21
4.44089e-21
4.44089e-21
4.44089e-21
4.44089e-21
4.44089e-21
4.44089e-21
4.44089e-21
4.44089e-21
4.44089e-21
4.44089e-21
4.44089e-21
4.44089e-21
4.44089e-21
4.44089e-21
4.44089e-21
4.44089e-21
4.44089e-21
4.44089e-21
4.44089e-21
4.44089e-21
4.44089e-21
4.44089e-21
4.44089e-21
4.44089e-21
4.44089e-21
4.44089e-21
4.44089e-21
4.44089e-21
1.11022e-21
)
;

boundaryField
{
    movingWall
    {
        type            nutkWallFunction;
        Cmu             0.09;
        kappa           0.41;
        E               9.8;
        value           uniform 0;
    }
    fixedWalls
    {
        type            nutkWallFunction;
        Cmu             0.09;
        kappa           0.41;
        E               9.8;
        value           uniform 0;
    }
    frontAndBack
    {
        type            empty;
    }
}


// ************************************************************************* //
