/*--------------------------------*- C++ -*----------------------------------*\
  =========                 |
  \\      /  F ield         | OpenFOAM: The Open Source CFD Toolbox
   \\    /   O peration     | Website:  https://openfoam.org
    \\  /    A nd           | Version:  12
     \\/     M anipulation  |
\*---------------------------------------------------------------------------*/
FoamFile
{
    format      ascii;
    class       volScalarField;
    location    "4";
    object      epsilon;
}
// * * * * * * * * * * * * * * * * * * * * * * * * * * * * * * * * * * * * * //

dimensions      [0 2 -3 0 0 0 0];

internalField   nonuniform List<scalar> 
18225
(
6.50211e-07
4.39991e-06
9.8043e-06
1.62548e-05
2.34675e-05
3.12599e-05
3.94927e-05
4.80485e-05
5.68233e-05
6.57226e-05
7.46605e-05
8.35595e-05
9.2352e-05
0.000100982
0.000109404
0.000117591
0.000125528
0.00013322
0.000140689
0.000147977
0.000155149
0.00016229
0.000169508
0.000176938
0.000184737
0.000193094
0.000202226
0.000212379
0.000223838
0.000236921
0.000251991
0.000269448
0.000289743
0.000313373
0.000340889
0.000372892
0.00041004
0.000453048
0.000502687
0.000559782
0.000625214
0.000699918
0.000784879
0.00088113
0.000989749
0.00111186
0.00124861
0.00140119
0.00157084
0.00175878
0.0019663
0.00219466
0.00244513
0.00271899
0.00301747
0.00334178
0.00369307
0.00407242
0.00448083
0.0049192
0.00538831
0.00588885
0.00642135
0.00698627
0.00758391
0.00821449
0.00887811
0.00957478
0.0103044
0.0110669
0.0118619
0.0126893
0.0135486
0.0144393
0.0153611
0.0163132
0.0172949
0.0183055
0.019344
0.0204092
0.0214998
0.0226143
0.0237508
0.0249072
0.0260808
0.0272685
0.028467
0.0296719
0.0308783
0.0320806
0.0332722
0.0344453
0.0355912
0.0367
0.0377604
0.0387598
0.0396844
0.0405187
0.0412449
0.0418445
0.0422972
0.0425648
0.0426651
0.0426031
0.0423119
0.0417812
0.0410051
0.0399799
0.038706
0.0371899
0.0354451
0.0334929
0.031362
0.0290878
0.0267117
0.0242784
0.0218345
0.0194256
0.017094
0.0148769
0.0128042
0.0108979
0.00917176
0.00763133
0.00627503
0.00509523
0.00407969
0.0032131
0.00247814
0.00185726
0.00133383
0.000893705
0.000527328
0.000233927
3.44995e-05
1.22857e-06
2.39577e-06
4.8061e-06
7.79556e-06
1.11707e-05
1.48299e-05
1.87021e-05
2.27296e-05
2.68622e-05
3.1055e-05
3.52671e-05
3.9462e-05
4.36079e-05
4.7678e-05
5.16519e-05
5.55158e-05
5.92635e-05
6.2897e-05
6.6427e-05
6.98738e-05
7.32672e-05
7.6648e-05
8.00674e-05
8.35885e-05
8.72867e-05
9.12505e-05
9.55821e-05
0.000100399
0.000105836
0.000112043
0.000119191
0.000127471
0.000137096
0.000148301
0.000161346
0.000176516
0.000194124
0.000214507
0.000238029
0.000265084
0.000296088
0.000331484
0.00037174
0.000417346
0.000468816
0.000526681
0.000591493
0.00066382
0.000744247
0.000833369
0.000931793
0.00104013
0.001159
0.001289
0.00143075
0.00158483
0.0017518
0.0019322
0.00212651
0.0023352
0.00255867
0.00279726
0.00305127
0.00332094
0.00360647
0.00390799
0.00422559
0.00455931
0.00490916
0.0052751
0.00565706
0.00605495
0.00646859
0.00689783
0.00734241
0.00780206
0.00827645
0.00876516
0.00926772
0.00978354
0.0103119
0.0108521
0.011403
0.0119635
0.0125323
0.0131076
0.0136878
0.0142704
0.014853
0.0154325
0.0160057
0.0165685
0.0171164
0.0176446
0.0181472
0.0186183
0.0190509
0.0194375
0.0197697
0.0200387
0.020235
0.020342
0.0203692
0.0203147
0.0201517
0.0198753
0.0194834
0.018975
0.0183511
0.0176156
0.0167754
0.0158409
0.0148258
0.0137466
0.0126225
0.0114739
0.010322
0.00918776
0.00809032
0.0070466
0.00607034
0.00517167
0.00435696
0.00362895
0.00298703
0.00242784
0.00194585
0.00153408
0.00118453
0.000889145
0.000640325
0.000431789
0.000259966
0.000127769
6.51638e-05
2.60948e-06
2.33142e-06
3.69713e-06
5.63103e-06
7.88737e-06
1.03634e-05
1.29981e-05
1.57463e-05
1.85711e-05
2.14402e-05
2.4325e-05
2.72001e-05
3.00435e-05
3.28369e-05
3.55664e-05
3.82226e-05
4.08014e-05
4.33041e-05
4.57383e-05
4.8118e-05
5.04638e-05
5.28037e-05
5.51732e-05
5.76159e-05
6.01837e-05
6.29376e-05
6.59487e-05
6.9298e-05
7.30784e-05
7.73946e-05
8.23646e-05
8.81207e-05
9.48104e-05
0.000102597
0.000111662
0.000122202
0.000134435
0.000148596
0.000164939
0.000183739
0.000205286
0.000229891
0.000257884
0.000289609
0.00032543
0.000365723
0.000410883
0.000461317
0.000517445
0.000579699
0.000648521
0.000724362
0.000807678
0.000898928
0.000998568
0.00110705
0.00122481
0.00135229
0.00148987
0.00163795
0.00179687
0.00196696
0.00214851
0.00234176
0.00254694
0.00276424
0.00299381
0.00323577
0.00349021
0.00375718
0.0040367
0.00432876
0.0046333
0.00495022
0.00527936
0.00562052
0.0059734
0.00633766
0.00671285
0.00709841
0.00749368
0.00789784
0.00830995
0.00872889
0.00915332
0.00958174
0.0100124
0.0104432
0.010872
0.011296
0.0117125
0.0121181
0.0125093
0.012882
0.013232
0.0135546
0.0138448
0.0140971
0.0143059
0.014465
0.0145665
0.0146045
0.0145847
0.0145014
0.0143417
0.0141029
0.0137846
0.0133874
0.0129133
0.0123658
0.0117508
0.0110758
0.0103505
0.00958643
0.00879617
0.00799328
0.00719155
0.00640439
0.00564418
0.00492175
0.00424593
0.00362327
0.00305793
0.00255174
0.00210439
0.00171375
0.00137627
0.00108737
0.000841872
0.000634535
0.000460576
0.000316486
0.000201727
0.000124466
0.000138196
4.26757e-06
2.78896e-06
3.48397e-06
4.83278e-06
6.51274e-06
8.40086e-06
1.0432e-05
1.25629e-05
1.47607e-05
1.69978e-05
1.92508e-05
2.14992e-05
2.37253e-05
2.5915e-05
2.80572e-05
3.01446e-05
3.21741e-05
3.4147e-05
3.60693e-05
3.7952e-05
3.98115e-05
4.167e-05
4.35556e-05
4.55027e-05
4.75525e-05
4.97536e-05
5.21622e-05
5.4843e-05
5.78698e-05
6.1326e-05
6.5306e-05
6.99155e-05
7.52725e-05
8.15079e-05
8.87668e-05
9.72087e-05
0.000107008
0.000118355
0.000131457
0.000146534
0.000163825
0.000183586
0.000206086
0.000231612
0.000260466
0.000292966
0.000329444
0.000370248
0.000415742
0.000466301
0.000522317
0.000584193
0.000652342
0.000727188
0.00080916
0.000898691
0.000996215
0.00110216
0.00121695
0.00134099
0.00147468
0.00161839
0.00177249
0.00193729
0.00211311
0.00230023
0.0024989
0.00270932
0.00293168
0.00316611
0.0034127
0.00367147
0.0039424
0.00422538
0.00452024
0.00482671
0.0051444
0.00547285
0.00581142
0.00615937
0.00651581
0.00687968
0.00724975
0.00762461
0.00800268
0.00838215
0.00876104
0.00913712
0.00950799
0.00987098
0.0102232
0.0105616
0.0108829
0.0111835
0.0114599
0.0117081
0.0119242
0.012104
0.012243
0.0123353
0.0123763
0.0123687
0.0123079
0.0121926
0.0120152
0.0117743
0.0114705
0.011105
0.0106801
0.0101996
0.00966836
0.00909306
0.0084816
0.00784312
0.00718769
0.00652586
0.00586827
0.00522515
0.0046059
0.00401863
0.00346992
0.00296459
0.00250564
0.00209435
0.00173037
0.00141202
0.00113655
0.00090046
0.000699866
0.000530932
0.000390414
0.000276589
0.000191457
0.000148481
0.000225339
6.15083e-06
3.49927e-06
3.65418e-06
4.58285e-06
5.87829e-06
7.39131e-06
9.04754e-06
1.08012e-05
1.26196e-05
1.44771e-05
1.63524e-05
1.82275e-05
2.00874e-05
2.19197e-05
2.37153e-05
2.54681e-05
2.71756e-05
2.8839e-05
3.04635e-05
3.20585e-05
3.36379e-05
3.52207e-05
3.68307e-05
3.84971e-05
4.02552e-05
4.21463e-05
4.42186e-05
4.65273e-05
4.91357e-05
5.21157e-05
5.55484e-05
5.95251e-05
6.41479e-05
6.95303e-05
7.57985e-05
8.30916e-05
9.15625e-05
0.000101378
0.000112721
0.000125788
0.000140793
0.000157963
0.000177543
0.000199797
0.000225
0.000253451
0.00028546
0.000321361
0.000361503
0.000406255
0.000456005
0.000511158
0.000572142
0.000639396
0.00071338
0.000794564
0.000883429
0.000980464
0.00108616
0.00120102
0.00132551
0.00146012
0.0016053
0.00176151
0.00192915
0.00210862
0.00230025
0.00250437
0.00272121
0.00295095
0.00319368
0.00344941
0.00371804
0.00399937
0.00429307
0.00459864
0.00491547
0.00524275
0.00557952
0.00592465
0.00627681
0.00663452
0.00699611
0.00735975
0.00772345
0.00808507
0.00844233
0.00879281
0.00913398
0.00946319
0.00977769
0.0100747
0.0103513
0.0106046
0.0108318
0.0110297
0.0111954
0.0113259
0.0114166
0.011461
0.0114668
0.0114257
0.0113372
0.0112003
0.0110097
0.0107645
0.0104654
0.0101132
0.00971014
0.00925913
0.00876456
0.00823214
0.00766888
0.00708294
0.00648334
0.00587964
0.00528147
0.00469805
0.00413779
0.00360786
0.00311394
0.00266006
0.00224861
0.0018804
0.00155488
0.00127036
0.00102431
0.000813668
0.000635141
0.000485677
0.000363029
0.000266855
0.000201389
0.000185323
0.000323312
8.22293e-06
4.36877e-06
4.0424e-06
4.62866e-06
5.62985e-06
6.86826e-06
8.25822e-06
9.74928e-06
1.13072e-05
1.29065e-05
1.45266e-05
1.61508e-05
1.77655e-05
1.93595e-05
2.09249e-05
2.24564e-05
2.39518e-05
2.54123e-05
2.68426e-05
2.82512e-05
2.96505e-05
3.10573e-05
3.24929e-05
3.39835e-05
3.55603e-05
3.72604e-05
3.91269e-05
4.12095e-05
4.35653e-05
4.62591e-05
4.93644e-05
5.29641e-05
5.71512e-05
6.20298e-05
6.77156e-05
7.43371e-05
8.20359e-05
9.0968e-05
0.000101304
0.000113231
0.00012695
0.000142682
0.000160663
0.000181149
0.000204417
0.000230761
0.000260499
0.00029397
0.00033154
0.000373598
0.000420558
0.000472864
0.000530985
0.000595416
0.000666679
0.000745322
0.000831911
0.000927032
0.00103128
0.00114528
0.00126961
0.0014049
0.00155172
0.00171065
0.00188222
0.00206691
0.00226515
0.0024773
0.00270365
0.00294432
0.00319926
0.0034683
0.00375122
0.00404756
0.00435666
0.00467766
0.00500949
0.00535089
0.00570036
0.00605625
0.00641672
0.00677975
0.00714321
0.00750487
0.0078624
0.00821342
0.00855555
0.00888639
0.00920354
0.00950466
0.0097874
0.0100492
0.0102882
0.0105025
0.0106902
0.0108492
0.0109777
0.0110739
0.0111301
0.0111491
0.0111354
0.0110786
0.01098
0.0108383
0.0106488
0.0104101
0.0101216
0.00978356
0.00939704
0.00896411
0.00848822
0.00797432
0.00742886
0.00685967
0.00627571
0.00568665
0.00510238
0.00453248
0.00398566
0.00346933
0.00298926
0.00254942
0.00215202
0.00179762
0.00148538
0.00121339
0.000978983
0.000779088
0.000610593
0.00047079
0.000358086
0.000273223
0.000222519
0.000229748
0.000429576
1.04606e-05
5.355e-06
4.57601e-06
4.86351e-06
5.62097e-06
6.64128e-06
7.82595e-06
9.11904e-06
1.04838e-05
1.18936e-05
1.33282e-05
1.47712e-05
1.62097e-05
1.76334e-05
1.90349e-05
2.04095e-05
2.17553e-05
2.30736e-05
2.43687e-05
2.56486e-05
2.69247e-05
2.82126e-05
2.95319e-05
3.09066e-05
3.23659e-05
3.39439e-05
3.56807e-05
3.76227e-05
3.9823e-05
4.23426e-05
4.52504e-05
4.86249e-05
5.25542e-05
5.71376e-05
6.24857e-05
6.87225e-05
7.59851e-05
8.44256e-05
9.42117e-05
0.000105528
0.000118577
0.000133579
0.000150776
0.000170432
0.000192833
0.00021829
0.000247141
0.000279755
0.000316528
0.000357891
0.000404311
0.00045629
0.000514367
0.00057912
0.000651162
0.000731144
0.000819749
0.000917686
0.00102569
0.00114451
0.00127486
0.0014175
0.00157313
0.00174246
0.00192609
0.00212459
0.00233839
0.00256785
0.00281319
0.0030744
0.00335132
0.00364357
0.00395046
0.00427108
0.00460424
0.00494853
0.00530223
0.00566344
0.00603001
0.00639965
0.00676992
0.0071383
0.00750227
0.00785931
0.00820699
0.00854299
0.00886514
0.00917146
0.00946016
0.00972964
0.00997854
0.0102058
0.0104102
0.0105906
0.0107461
0.0108759
0.0109788
0.0110539
0.0110934
0.0111041
0.0110869
0.0110325
0.0109412
0.0108113
0.010638
0.0104184
0.0101509
0.00983404
0.0094674
0.00905169
0.0085892
0.00808404
0.00754219
0.00697144
0.00638115
0.00578181
0.00518439
0.00459974
0.00403784
0.00350722
0.00301453
0.00256433
0.00215905
0.00179921
0.00148373
0.00121033
0.000975988
0.000777342
0.000611168
0.000474832
0.000367138
0.000289755
0.000250803
0.000279233
0.000542233
1.28489e-05
6.43584e-06
5.21736e-06
5.23302e-06
5.77881e-06
6.61657e-06
7.63472e-06
8.77066e-06
9.98471e-06
1.12489e-05
1.25421e-05
1.38482e-05
1.51545e-05
1.6451e-05
1.77307e-05
1.89894e-05
2.02254e-05
2.14399e-05
2.26373e-05
2.38251e-05
2.50143e-05
2.62196e-05
2.74595e-05
2.87571e-05
3.01399e-05
3.16406e-05
3.32974e-05
3.51548e-05
3.72639e-05
3.96835e-05
4.24807e-05
4.57317e-05
4.9523e-05
5.3952e-05
5.91287e-05
6.51763e-05
7.22324e-05
8.04508e-05
9.00023e-05
0.000101076
0.000113882
0.000128652
0.00014564
0.000165127
0.000187423
0.000212867
0.000241832
0.000274726
0.000311998
0.000354138
0.000401682
0.000455213
0.000515361
0.000582802
0.000658268
0.000742535
0.00083642
0.000940777
0.00105649
0.00118447
0.00132562
0.00148082
0.00165091
0.00183667
0.00203878
0.00225782
0.00249419
0.00274809
0.00301947
0.0033081
0.00361343
0.0039346
0.00427038
0.0046192
0.0049792
0.00534819
0.00572373
0.00610316
0.00648367
0.00686236
0.00723635
0.00760281
0.00795908
0.00830273
0.00863158
0.0089438
0.00923789
0.00951271
0.00976744
0.0100016
0.010215
0.0104076
0.0105794
0.0107306
0.0108611
0.0109709
0.0110599
0.0111275
0.011169
0.0111858
0.0111809
0.0111459
0.0110781
0.0109758
0.0108332
0.0106458
0.0104101
0.0101229
0.00978207
0.0093867
0.00893779
0.00843847
0.00789422
0.00731287
0.00670435
0.00608024
0.00545306
0.00483546
0.00423935
0.0036751
0.00315092
0.00267251
0.00224303
0.00186323
0.00153196
0.00124656
0.00100355
0.000799078
0.000629543
0.000492217
0.00038608
0.000313421
0.000284083
0.00033235
0.000659824
1.53788e-05
7.59883e-06
5.94489e-06
5.70607e-06
6.06238e-06
6.74207e-06
7.62018e-06
8.62744e-06
9.72019e-06
1.08687e-05
1.20512e-05
1.32509e-05
1.44552e-05
1.56542e-05
1.68413e-05
1.80122e-05
1.91656e-05
2.03028e-05
2.14282e-05
2.25491e-05
2.36762e-05
2.48239e-05
2.60102e-05
2.72576e-05
2.85928e-05
3.00477e-05
3.16598e-05
3.34728e-05
3.5537e-05
3.79107e-05
4.06606e-05
4.38629e-05
4.76044e-05
5.19837e-05
5.71127e-05
6.31174e-05
7.01399e-05
7.83398e-05
8.78959e-05
9.90082e-05
0.0001119
0.00012682
0.000144044
0.00016388
0.000186669
0.00021279
0.000242661
0.000276747
0.000315559
0.000359664
0.000409683
0.000466298
0.000530254
0.000602358
0.000683476
0.000774532
0.000876503
0.000990408
0.00111729
0.0012582
0.0014142
0.00158629
0.00177541
0.00198239
0.0022079
0.00245242
0.00271621
0.00299922
0.00330103
0.00362094
0.00395783
0.00431013
0.00467587
0.00505267
0.0054378
0.00582823
0.00622072
0.0066119
0.00699839
0.00737689
0.00774432
0.00809788
0.00843518
0.00875428
0.00905374
0.00933263
0.00959055
0.00982753
0.0100441
0.0102409
0.0104192
0.01058
0.0107245
0.0108538
0.0109687
0.0110697
0.011157
0.0112298
0.0112861
0.0113257
0.0113439
0.0113417
0.0113099
0.0112465
0.0111454
0.0109998
0.0108043
0.010554
0.0102449
0.00987441
0.00944212
0.00895003
0.00840294
0.00780855
0.00717725
0.0065217
0.00585605
0.00519503
0.00455284
0.00394216
0.00337332
0.00285373
0.00238775
0.00197678
0.00161982
0.00131397
0.00105525
0.000839244
0.000661836
0.000519957
0.000412568
0.000342465
0.000321084
0.000388184
0.000781209
1.80446e-05
8.83672e-06
6.74559e-06
6.26366e-06
6.44656e-06
6.98615e-06
7.74387e-06
8.64304e-06
9.63635e-06
1.06917e-05
1.17857e-05
1.29015e-05
1.40259e-05
1.51493e-05
1.62649e-05
1.73687e-05
1.84594e-05
1.95386e-05
2.06106e-05
2.16829e-05
2.27662e-05
2.38746e-05
2.50263e-05
2.62434e-05
2.75526e-05
2.89856e-05
3.058e-05
3.23794e-05
3.44347e-05
3.68046e-05
3.95569e-05
4.27694e-05
4.65312e-05
5.09443e-05
5.61246e-05
6.22042e-05
6.93327e-05
7.76795e-05
8.74357e-05
9.88169e-05
0.000112065
0.000127453
0.000145285
0.000165903
0.00018969
0.000217073
0.00024853
0.000284593
0.000325854
0.000372968
0.000426662
0.000487733
0.000557055
0.000635578
0.000724324
0.000824383
0.0009369
0.00106307
0.00120409
0.00136119
0.00153553
0.00172821
0.00194022
0.00217235
0.00242517
0.00269898
0.00299369
0.00330883
0.00364347
0.0039962
0.00436512
0.00474778
0.00514129
0.00554231
0.00594719
0.00635205
0.00675292
0.00714591
0.0075273
0.00789374
0.00824235
0.0085708
0.00887744
0.00916127
0.00942201
0.00966002
0.00987625
0.0100721
0.0102495
0.0104104
0.0105571
0.0106916
0.0108161
0.0109322
0.0110412
0.0111439
0.0112402
0.0113294
0.0114098
0.0114797
0.0115359
0.011572
0.0115837
0.011566
0.0115127
0.0114146
0.0112651
0.0110572
0.010785
0.0104446
0.0100338
0.00955326
0.00900694
0.00840201
0.00774903
0.00706142
0.00635481
0.00564594
0.00495145
0.00428667
0.00366445
0.00309444
0.0025827
0.00213175
0.00174105
0.0014077
0.00112732
0.000894906
0.000705724
0.000556232
0.000445217
0.000375828
0.000361006
0.000446119
0.000905499
2.08433e-05
1.01453e-05
7.61139e-06
6.89365e-06
6.91503e-06
7.3285e-06
7.98106e-06
8.78831e-06
9.69879e-06
1.0678e-05
1.17014e-05
1.27508e-05
1.38126e-05
1.48771e-05
1.59375e-05
1.69898e-05
1.80331e-05
1.90689e-05
2.01018e-05
2.11396e-05
2.2193e-05
2.32765e-05
2.44082e-05
2.56107e-05
2.6911e-05
2.83413e-05
2.99396e-05
3.17507e-05
3.38265e-05
3.62273e-05
3.90234e-05
4.22953e-05
4.61362e-05
5.06532e-05
5.5969e-05
6.22239e-05
6.95781e-05
7.82142e-05
8.83398e-05
0.00010019
0.000114032
0.000130167
0.000148937
0.000170724
0.000195962
0.000225138
0.000258797
0.000297552
0.000342088
0.000393165
0.000451629
0.000518412
0.000594534
0.000681104
0.000779315
0.000890432
0.00101578
0.00115673
0.00131464
0.00149085
0.00168664
0.00190313
0.00214127
0.00240173
0.00268486
0.00299057
0.00331831
0.00366698
0.00403489
0.00441975
0.00481868
0.0052282
0.00564437
0.00606287
0.00647915
0.00688863
0.00728684
0.00766965
0.00803343
0.00837521
0.00869278
0.00898479
0.00925073
0.00949097
0.00970667
0.00989964
0.0100723
0.0102275
0.0103682
0.0104977
0.0106187
0.0107344
0.010847
0.0109586
0.0110704
0.0111831
0.0112964
0.0114093
0.0115199
0.0116253
0.0117214
0.0118028
0.0118632
0.0118908
0.0118876
0.0118398
0.0117395
0.0115777
0.0113473
0.0110422
0.010659
0.0101967
0.00965781
0.00904876
0.00837965
0.00766423
0.00691915
0.00616293
0.00541461
0.00469224
0.00401157
0.00338492
0.00282058
0.00232269
0.00189161
0.00152475
0.00121749
0.000964319
0.00075985
0.000599977
0.000483184
0.000412847
0.000403329
0.000505726
0.00103203
2.37744e-05
1.15226e-05
8.53734e-06
7.58809e-06
7.45683e-06
7.75559e-06
8.31516e-06
9.04358e-06
9.88486e-06
1.08018e-05
1.17684e-05
1.27652e-05
1.37784e-05
1.47977e-05
1.58162e-05
1.68299e-05
1.7838e-05
1.88422e-05
1.98475e-05
2.08619e-05
2.18966e-05
2.29664e-05
2.40902e-05
2.5291e-05
2.65965e-05
2.804e-05
2.96606e-05
3.15046e-05
3.3626e-05
3.60878e-05
3.89635e-05
4.2338e-05
4.631e-05
5.09933e-05
5.65193e-05
6.30393e-05
7.07267e-05
7.97807e-05
9.04289e-05
0.000102931
0.000117584
0.000134725
0.000154735
0.000178051
0.000205162
0.000236625
0.000273066
0.00031519
0.000363787
0.000419738
0.000484024
0.000557724
0.000642021
0.0007382
0.000847633
0.000971771
0.00111212
0.0012702
0.00144752
0.00164552
0.00186551
0.00210856
0.00237549
0.00266671
0.00298216
0.00332125
0.00368271
0.00406462
0.00446433
0.00487847
0.00530304
0.00573346
0.00616471
0.00659156
0.00700877
0.00741128
0.00779452
0.00815455
0.00848832
0.00879373
0.00906973
0.00931636
0.00953461
0.0097264
0.00989449
0.0100421
0.0101731
0.0102912
0.0104005
0.0105049
0.0106082
0.0107129
0.0108212
0.0109352
0.0110561
0.0111842
0.0113191
0.011459
0.0116017
0.0117435
0.0118799
0.0120048
0.0121117
0.0121927
0.0122329
0.0122352
0.0121855
0.0120725
0.0118877
0.0116237
0.011275
0.0108391
0.0103168
0.00971302
0.00903685
0.00830174
0.00752477
0.0067258
0.00592595
0.00514605
0.00440491
0.00371794
0.00309617
0.00254589
0.00206889
0.00166325
0.00132442
0.00104648
0.000823436
0.00065057
0.000525965
0.00045311
0.000447728
0.000566726
0.00116034
2.68387e-05
1.29676e-05
9.52051e-06
8.34181e-06
8.06468e-06
8.25802e-06
8.73465e-06
9.39525e-06
1.01787e-05
1.10452e-05
1.19665e-05
1.29225e-05
1.38984e-05
1.48834e-05
1.58706e-05
1.68561e-05
1.78389e-05
1.88213e-05
1.98085e-05
2.08088e-05
2.18342e-05
2.29001e-05
2.40261e-05
2.5236e-05
2.6559e-05
2.80295e-05
2.96886e-05
3.15847e-05
3.37745e-05
3.63245e-05
3.93125e-05
4.2829e-05
4.69795e-05
5.18865e-05
5.76919e-05
6.45601e-05
7.26809e-05
8.2273e-05
9.3588e-05
0.000106915
0.000122584
0.000140975
0.000162518
0.000187706
0.000217099
0.00025133
0.000291117
0.00033727
0.000390697
0.000452416
0.000523553
0.000605355
0.000699178
0.000806491
0.000928856
0.00106791
0.00122532
0.00140276
0.00160184
0.00182403
0.0020706
0.00234248
0.00264021
0.00296379
0.0033126
0.00368527
0.00407968
0.00449285
0.00492098
0.00535952
0.00580326
0.00624651
0.00668332
0.00710774
0.00751414
0.00789742
0.00825335
0.00857873
0.00887155
0.00913106
0.00935777
0.00955341
0.00972062
0.00986286
0.00998447
0.0100896
0.0101836
0.0102719
0.0103579
0.0104449
0.0105363
0.0106356
0.0107453
0.0108667
0.0110005
0.0111466
0.0113037
0.0114702
0.011643
0.0118188
0.0119925
0.0121578
0.0123074
0.0124338
0.0125267
0.0125703
0.0125706
0.012508
0.0123725
0.012155
0.0118485
0.0114483
0.0109531
0.010366
0.00969452
0.00895084
0.00815184
0.00731803
0.00647225
0.00563786
0.00483686
0.00408805
0.0034057
0.00279884
0.00227124
0.00182214
0.00144738
0.00114087
0.000896099
0.000707696
0.000573285
0.000496385
0.000494009
0.000628952
0.00129016
3.00387e-05
1.44809e-05
1.05594e-05
9.15153e-06
8.73369e-06
8.8292e-06
9.23149e-06
9.83371e-06
1.05692e-05
1.13951e-05
1.22814e-05
1.32065e-05
1.41548e-05
1.51152e-05
1.60803e-05
1.70463e-05
1.80124e-05
1.89811e-05
1.9958e-05
2.09523e-05
2.19763e-05
2.30465e-05
2.41835e-05
2.54124e-05
2.67638e-05
2.82741e-05
2.99865e-05
3.19522e-05
3.42314e-05
3.6895e-05
4.00259e-05
4.37215e-05
4.80954e-05
5.32803e-05
5.94309e-05
6.6727e-05
7.53772e-05
8.56232e-05
9.77444e-05
0.000112063
0.000128949
0.00014883
0.000172192
0.000199593
0.000231669
0.000269145
0.000312839
0.000363679
0.000422706
0.000491084
0.000570104
0.000661186
0.000765876
0.00088583
0.0010228
0.0011786
0.00135505
0.00155393
0.0017769
0.00202539
0.00230052
0.00260295
0.0029328
0.00328945
0.00367152
0.0040767
0.00450177
0.00494253
0.00539392
0.00585013
0.00630478
0.0067512
0.00718274
0.00759311
0.00797669
0.00832887
0.00864627
0.0089269
0.00917029
0.00937741
0.00955048
0.00969312
0.00980959
0.00990453
0.00998396
0.0100548
0.0101197
0.0101828
0.0102496
0.0103244
0.0104107
0.0105105
0.0106257
0.0107572
0.0109051
0.0110687
0.0112466
0.0114367
0.0116357
0.0118398
0.012044
0.0122429
0.0124303
0.0125977
0.0127362
0.0128312
0.0128715
0.0128601
0.0127768
0.012611
0.0123541
0.0119991
0.0115426
0.010985
0.0103316
0.00959264
0.00878396
0.00792597
0.00704256
0.00615932
0.00530135
0.00449109
0.0037465
0.00307994
0.00249777
0.00200096
0.00158616
0.0012474
0.000977749
0.00077126
0.000625043
0.000542571
0.000542085
0.000692335
0.00142141
3.3378e-05
1.60636e-05
1.16537e-05
1.00154e-05
9.46064e-06
9.46453e-06
9.80009e-06
1.03521e-05
1.10483e-05
1.18425e-05
1.27025e-05
1.36055e-05
1.45347e-05
1.54787e-05
1.64297e-05
1.73839e-05
1.83406e-05
1.93027e-05
2.02765e-05
2.12715e-05
2.23013e-05
2.33833e-05
2.45393e-05
2.57962e-05
2.71861e-05
2.87479e-05
3.05276e-05
3.25795e-05
3.49682e-05
3.77696e-05
4.10729e-05
4.49833e-05
4.96242e-05
5.514e-05
6.17e-05
6.95019e-05
7.87759e-05
8.979e-05
0.000102855
0.000118332
0.000136635
0.000158245
0.000183712
0.000213668
0.000248835
0.000290036
0.000338205
0.000394398
0.000459802
0.000535741
0.000623681
0.000725229
0.000842122
0.000976211
0.00112943
0.00130375
0.0015011
0.00172334
0.00197208
0.00224863
0.00255383
0.00288792
0.0032504
0.00363986
0.00405394
0.0044892
0.00494113
0.00540422
0.00587209
0.00633769
0.00679365
0.00723257
0.00764748
0.00803216
0.00838159
0.00869213
0.00896177
0.00919018
0.00937871
0.00953033
0.00964882
0.00973981
0.00980908
0.00986515
0.00991041
0.00994842
0.00998758
0.0100333
0.0100891
0.0101584
0.0102439
0.0103473
0.0104696
0.0106112
0.0107717
0.0109502
0.011145
0.0113536
0.0115731
0.0117997
0.0120287
0.0122545
0.0124708
0.0126702
0.0128458
0.0129885
0.0130805
0.0131132
0.0130843
0.0129746
0.0127741
0.0124737
0.0120671
0.0115522
0.0109311
0.0102116
0.00940747
0.00853806
0.00762763
0.00670342
0.00579343
0.00492382
0.00411668
0.00338825
0.00274816
0.00219972
0.00174092
0.00136623
0.00106853
0.00084135
0.000681269
0.000591672
0.000591954
0.000756895
0.00155417
3.68614e-05
1.77174e-05
1.28037e-05
1.09325e-05
1.02436e-05
1.01609e-05
1.04366e-05
1.09456e-05
1.16101e-05
1.23804e-05
1.32221e-05
1.41107e-05
1.50286e-05
1.59635e-05
1.69075e-05
1.78566e-05
1.88105e-05
1.97725e-05
2.07492e-05
2.17514e-05
2.27934e-05
2.38939e-05
2.50765e-05
2.63695e-05
2.78077e-05
2.94324e-05
3.12927e-05
3.34471e-05
3.59649e-05
3.89278e-05
4.24325e-05
4.65931e-05
5.1544e-05
5.74432e-05
6.44767e-05
7.28621e-05
8.28544e-05
9.47513e-05
0.000108899
0.000125701
0.000145624
0.000169206
0.000197069
0.000229928
0.0002686
0.000314018
0.000367242
0.000429469
0.000502043
0.00058646
0.000684372
0.000797578
0.000928011
0.00107771
0.00124877
0.0014433
0.0016633
0.0019106
0.00218671
0.00249267
0.00282891
0.00319506
0.00358981
0.00401078
0.00445441
0.00491596
0.00538955
0.00586827
0.00634447
0.00681006
0.00725691
0.00767731
0.0080644
0.00841262
0.00871802
0.00897849
0.00919379
0.00936552
0.00949697
0.00959334
0.00965928
0.00970637
0.00973659
0.0097535
0.0097675
0.00978281
0.00980523
0.00984006
0.00988995
0.0099576
0.0100449
0.0101528
0.0102818
0.0104318
0.0106021
0.0107913
0.0109977
0.0112191
0.0114526
0.0116947
0.0119414
0.0121877
0.0124279
0.0126552
0.0128619
0.0130393
0.0131769
0.0132603
0.0132839
0.0132358
0.0130975
0.0128598
0.0125137
0.0120541
0.0114798
0.0107951
0.0100107
0.00914426
0.00821929
0.00726399
0.0063088
0.00538361
0.00451488
0.00372332
0.00302252
0.00241881
0.00191212
0.00149779
0.00116878
0.000918194
0.000742102
0.000643778
0.000643685
0.000822722
0.00168865
4.04947e-05
1.9445e-05
1.40105e-05
1.19029e-05
1.10815e-05
1.09165e-05
1.11384e-05
1.16106e-05
1.22505e-05
1.30041e-05
1.38347e-05
1.4716e-05
1.56293e-05
1.65618e-05
1.75051e-05
1.84554e-05
1.94123e-05
2.03798e-05
2.13652e-05
2.23802e-05
2.34404e-05
2.4566e-05
2.57822e-05
2.71196e-05
2.86154e-05
3.03139e-05
3.22682e-05
3.45412e-05
3.72075e-05
4.03558e-05
4.4091e-05
4.85373e-05
5.38416e-05
6.01773e-05
6.77488e-05
7.67966e-05
8.76033e-05
0.0001005
0.000115872
0.000134171
0.000155919
0.000181723
0.000212283
0.000248403
0.000291007
0.000341148
0.000400023
0.000468981
0.000549536
0.000643367
0.000752316
0.00087838
0.00102368
0.00119044
0.00138088
0.00159719
0.0018414
0.00211523
0.00241995
0.0027562
0.00312383
0.00352166
0.00394741
0.00439748
0.00486699
0.00534978
0.00583851
0.00632496
0.00680038
0.00725589
0.00768301
0.00807419
0.00842323
0.00872572
0.00897931
0.00918387
0.00934119
0.00945492
0.00952995
0.00957668
0.00959788
0.00960153
0.00959351
0.00958184
0.00957544
0.00957495
0.00958605
0.00961489
0.00966246
0.00973067
0.00982059
0.00993264
0.0100667
0.0102222
0.0103983
0.0105934
0.0108061
0.0110341
0.0112751
0.0115262
0.0117838
0.0120438
0.0123013
0.0125504
0.0127842
0.0129948
0.0131724
0.013305
0.0133726
0.0133845
0.013319
0.0131506
0.0128739
0.012481
0.0119671
0.0113323
0.0105836
0.0097355
0.00880997
0.0078352
0.00684346
0.00586806
0.00494001
0.00408498
0.00332124
0.00265889
0.00210047
0.00164272
0.00127899
0.00100215
0.000807765
0.000699061
0.000697408
0.000889973
0.00182521
4.42849e-05
2.12493e-05
1.52756e-05
1.2927e-05
1.19742e-05
1.17305e-05
1.19037e-05
1.23451e-05
1.29667e-05
1.37102e-05
1.45361e-05
1.54165e-05
1.63317e-05
1.72678e-05
1.82163e-05
1.91732e-05
2.01386e-05
2.11169e-05
2.21163e-05
2.31496e-05
2.42337e-05
2.53905e-05
2.66472e-05
2.80369e-05
2.95996e-05
3.13832e-05
3.34448e-05
3.58525e-05
3.86872e-05
4.2045e-05
4.60402e-05
5.08083e-05
5.65103e-05
6.33365e-05
7.15123e-05
8.13034e-05
9.3023e-05
0.000107039
0.000123781
0.000143754
0.000167543
0.000195827
0.000229392
0.000269144
0.000316121
0.000371508
0.000436649
0.000513058
0.000602426
0.000706623
0.000827687
0.000967808
0.00112929
0.0013145
0.00152577
0.00176532
0.00203509
0.0023366
0.00267075
0.00303763
0.0034363
0.00386462
0.00431909
0.00479478
0.00528535
0.00578314
0.00627945
0.00676489
0.00722985
0.00766508
0.00806224
0.00841444
0.00871671
0.00896629
0.00916279
0.00930837
0.00940703
0.0094645
0.00948927
0.00949086
0.00946791
0.00943609
0.00940042
0.00936774
0.00934627
0.00933775
0.00934131
0.00936766
0.0094151
0.00948477
0.00957704
0.00969175
0.00982839
0.00998611
0.0101638
0.0103603
0.0105739
0.0108031
0.0110458
0.0112997
0.0115621
0.0118297
0.0120984
0.0123634
0.0126186
0.0128573
0.0130707
0.0132482
0.0133745
0.0134312
0.0134292
0.0133416
0.0131435
0.0128268
0.0123853
0.0118146
0.011117
0.0103033
0.0093923
0.00841123
0.00739326
0.00637467
0.00539095
0.00447314
0.00364486
0.00292079
0.00230686
0.0018018
0.00139981
0.00109366
0.000878562
0.00075775
0.000753301
0.000958854
0.0019643
4.82396e-05
2.31338e-05
1.66013e-05
1.40062e-05
1.2922e-05
1.26026e-05
1.27318e-05
1.31476e-05
1.37568e-05
1.44962e-05
1.53236e-05
1.62091e-05
1.71318e-05
1.80771e-05
1.90362e-05
2.0005e-05
2.09839e-05
2.19779e-05
2.29964e-05
2.40531e-05
2.51666e-05
2.63607e-05
2.76647e-05
2.91147e-05
3.07537e-05
3.26336e-05
3.48162e-05
3.73752e-05
4.03984e-05
4.39905e-05
4.82761e-05
5.34033e-05
5.95485e-05
6.69212e-05
7.57696e-05
8.63876e-05
9.91222e-05
0.000114382
0.000132646
0.000154477
0.000180527
0.000211559
0.000248453
0.000292222
0.000344031
0.000405206
0.000477248
0.000561847
0.000660878
0.000776406
0.000910667
0.00106603
0.00124498
0.00144997
0.00168341
0.00194745
0.00224387
0.00257386
0.00293779
0.00333502
0.00376365
0.00422037
0.00470032
0.00519711
0.00570286
0.00620849
0.00670403
0.00717921
0.00762396
0.00802911
0.00838699
0.00869197
0.00894077
0.00913268
0.00926938
0.00935565
0.00939713
0.00940715
0.00938388
0.00934111
0.00928526
0.00922649
0.00917056
0.00912352
0.00909304
0.00908051
0.00908034
0.00910643
0.00915478
0.00922585
0.00931941
0.00943486
0.0095714
0.00972805
0.00990375
0.0100973
0.0103076
0.0105333
0.0107728
0.0110246
0.0112866
0.0115564
0.011831
0.0121063
0.0123776
0.0126388
0.0128825
0.0130988
0.0132763
0.0133977
0.0134483
0.0134281
0.0133188
0.0130879
0.0127287
0.0122347
0.011603
0.0108394
0.00995882
0.0089859
0.00795368
0.00690059
0.00586636
0.00488761
0.00399392
0.00320543
0.00253229
0.00197597
0.00153195
0.0011933
0.000954892
0.0008201
0.000811587
0.00102961
0.00210643
5.23674e-05
2.51025e-05
1.79899e-05
1.5142e-05
1.39259e-05
1.35333e-05
1.36225e-05
1.40175e-05
1.46198e-05
1.53608e-05
1.61952e-05
1.70915e-05
1.80272e-05
1.89869e-05
1.99615e-05
2.0947e-05
2.19441e-05
2.29587e-05
2.40009e-05
2.5086e-05
2.62343e-05
2.74717e-05
2.88302e-05
3.03485e-05
3.20735e-05
3.40612e-05
3.63788e-05
3.91062e-05
4.2339e-05
4.6191e-05
5.07984e-05
5.63233e-05
6.29591e-05
7.09363e-05
8.05285e-05
9.20604e-05
0.000105916
0.00012255
0.000142494
0.000166373
0.000194918
0.000228978
0.000269535
0.000317723
0.00037484
0.000442363
0.000521962
0.000615507
0.000725067
0.000852902
0.00100144
0.00117322
0.00137084
0.00159685
0.00185364
0.00214322
0.00246708
0.00282592
0.00321945
0.00364609
0.00410282