/*--------------------------------*- C++ -*----------------------------------*\
  =========                 |
  \\      /  F ield         | OpenFOAM: The Open Source CFD Toolbox
   \\    /   O peration     | Website:  https://openfoam.org
    \\  /    A nd           | Version:  12
     \\/     M anipulation  |
\*---------------------------------------------------------------------------*/
FoamFile
{
    format      ascii;
    class       volScalarField;
    location    "4";
    object      k;
}
// * * * * * * * * * * * * * * * * * * * * * * * * * * * * * * * * * * * * * //

dimensions      [0 2 -2 0 0 0 0];

internalField   nonuniform List<scalar> 
18225
(
1.78286e-10
1.20644e-09
2.68833e-09
4.45705e-09
6.4348e-09
8.57153e-09
1.0829e-08
1.31751e-08
1.55813e-08
1.80217e-08
2.04727e-08
2.29132e-08
2.53246e-08
2.76913e-08
3.00016e-08
3.22472e-08
3.44246e-08
3.65349e-08
3.85844e-08
4.05848e-08
4.25535e-08
4.45141e-08
4.64965e-08
4.85373e-08
5.06804e-08
5.29769e-08
5.54865e-08
5.82774e-08
6.14273e-08
6.5024e-08
6.91665e-08
7.39655e-08
7.95442e-08
8.60395e-08
9.36022e-08
1.02398e-07
1.12608e-07
1.24427e-07
1.38068e-07
1.53757e-07
1.71737e-07
1.92265e-07
2.1561e-07
2.42057e-07
2.71902e-07
3.05453e-07
3.43029e-07
3.84955e-07
4.31569e-07
4.83212e-07
5.40232e-07
6.0298e-07
6.71804e-07
7.47053e-07
8.29068e-07
9.18178e-07
1.0147e-06
1.11893e-06
1.23114e-06
1.35157e-06
1.48045e-06
1.61795e-06
1.76422e-06
1.91939e-06
2.08355e-06
2.25674e-06
2.43899e-06
2.63032e-06
2.83069e-06
3.04007e-06
3.25839e-06
3.48558e-06
3.72153e-06
3.96612e-06
4.21921e-06
4.48063e-06
4.7502e-06
5.02768e-06
5.31282e-06
5.6053e-06
5.90477e-06
6.21078e-06
6.52284e-06
6.84035e-06
7.16259e-06
7.48874e-06
7.81781e-06
8.14865e-06
8.47992e-06
8.81005e-06
9.13724e-06
9.45937e-06
9.77404e-06
1.00785e-05
1.03697e-05
1.06441e-05
1.0898e-05
1.11271e-05
1.13266e-05
1.14912e-05
1.16156e-05
1.16891e-05
1.17166e-05
1.16996e-05
1.16197e-05
1.1474e-05
1.1261e-05
1.09795e-05
1.06297e-05
1.02134e-05
9.73432e-06
9.19825e-06
8.6131e-06
7.98862e-06
7.33611e-06
6.66791e-06
5.99677e-06
5.33523e-06
4.69492e-06
4.08603e-06
3.51679e-06
2.99326e-06
2.51918e-06
2.0961e-06
1.72359e-06
1.39955e-06
1.12062e-06
8.82591e-07
6.80715e-07
5.10172e-07
3.66396e-07
2.45497e-07
1.44856e-07
6.42596e-08
9.47698e-09
1.34748e-09
1.07442e-08
2.41224e-08
4.00596e-08
5.7871e-08
7.711e-08
9.74342e-08
1.18555e-07
1.40216e-07
1.62183e-07
1.84247e-07
2.06214e-07
2.27919e-07
2.49222e-07
2.70015e-07
2.90226e-07
3.09822e-07
3.28814e-07
3.47256e-07
3.65256e-07
3.8297e-07
4.00609e-07
4.18443e-07
4.36801e-07
4.56078e-07
4.76735e-07
4.99308e-07
5.2441e-07
5.52742e-07
5.85092e-07
6.22352e-07
6.65518e-07
7.15699e-07
7.74127e-07
8.42159e-07
9.21285e-07
1.01313e-06
1.11947e-06
1.24219e-06
1.38335e-06
1.54512e-06
1.72982e-06
1.93988e-06
2.17785e-06
2.44641e-06
2.74833e-06
3.08646e-06
3.46376e-06
3.88324e-06
4.34799e-06
4.86113e-06
5.42582e-06
6.04521e-06
6.72242e-06
7.46053e-06
8.26251e-06
9.13119e-06
1.00692e-05
1.10791e-05
1.2163e-05
1.33229e-05
1.45604e-05
1.58768e-05
1.72734e-05
1.87507e-05
2.03094e-05
2.19496e-05
2.36715e-05
2.54747e-05
2.7359e-05
2.93237e-05
3.13682e-05
3.34915e-05
3.56925e-05
3.797e-05
4.03225e-05
4.27482e-05
4.52451e-05
4.78108e-05
5.04426e-05
5.31372e-05
5.58908e-05
5.86988e-05
6.15557e-05
6.44553e-05
6.739e-05
7.03511e-05
7.33282e-05
7.63093e-05
7.92802e-05
8.22247e-05
8.5124e-05
8.79563e-05
9.0697e-05
9.33184e-05
9.57896e-05
9.80761e-05
0.00010014
0.000101937
0.000103422
0.000104539
0.000105189
0.000105426
0.000105266
0.000104537
0.000103216
0.00010129
9.87501e-05
9.55967e-05
9.18462e-05
8.75324e-05
8.27077e-05
7.74429e-05
7.18258e-05
6.59577e-05
5.99494e-05
5.39153e-05
4.79678e-05
4.22114e-05
3.67374e-05
3.16199e-05
2.6913e-05
2.26507e-05
1.88467e-05
1.54972e-05
1.25834e-05
1.00752e-05
7.93418e-06
6.11854e-06
4.58484e-06
3.29185e-06
2.20444e-06
1.29873e-06
5.71908e-07
7.16017e-08
2.86206e-09
2.45392e-08
5.54528e-08
9.22824e-08
1.33437e-07
1.77884e-07
2.24834e-07
2.73621e-07
3.23652e-07
3.74392e-07
4.25348e-07
4.76081e-07
5.26205e-07
5.75397e-07
6.23408e-07
6.7007e-07
7.15307e-07
7.59143e-07
8.01706e-07
8.4324e-07
8.84107e-07
9.24795e-07
9.65927e-07
1.00826e-06
1.05271e-06
1.10034e-06
1.15238e-06
1.21025e-06
1.27556e-06
1.35015e-06
1.43606e-06
1.5356e-06
1.65132e-06
1.78608e-06
1.943e-06
2.12552e-06
2.33742e-06
2.58275e-06
2.86594e-06
3.19169e-06
3.56505e-06
3.99136e-06
4.47626e-06
5.02566e-06
5.64573e-06
6.34287e-06
7.12373e-06
7.99512e-06
8.96405e-06
1.00377e-05
1.12232e-05
1.2528e-05
1.39594e-05
1.55246e-05
1.72307e-05
1.90848e-05
2.10934e-05
2.32628e-05
2.55986e-05
2.81062e-05
3.07899e-05
3.36539e-05
3.67012e-05
3.99345e-05
4.33556e-05
4.6966e-05
5.07661e-05
5.47561e-05
5.89358e-05
6.33042e-05
6.78601e-05
7.26019e-05
7.75274e-05
8.26339e-05
8.79185e-05
9.33774e-05
9.90063e-05
0.0001048
0.000110753
0.000116859
0.000123108
0.000129493
0.000136
0.000142618
0.000149331
0.000156121
0.000162966
0.000169843
0.000176722
0.000183571
0.000190352
0.00019702
0.000203526
0.000209813
0.000215818
0.000221468
0.000226686
0.000231385
0.000235467
0.000238826
0.000241346
0.000242778
0.000243275
0.000242872
0.000241149
0.000238067
0.000233594
0.000227711
0.000220419
0.000211755
0.000201797
0.000190663
0.000178516
0.00016556
0.000152025
0.000138169
0.000124254
0.00011054
9.72681e-05
8.46483e-05
7.28514e-05
6.20024e-05
5.21789e-05
4.34127e-05
3.56946e-05
2.89811e-05
2.32023e-05
1.82705e-05
1.40879e-05
1.05545e-05
7.57513e-06
5.06875e-06
2.98039e-06
1.30414e-06
1.51849e-07
4.68066e-09
4.11331e-08
9.33994e-08
1.5575e-07
2.25441e-07
3.0071e-07
3.80215e-07
4.62827e-07
5.47544e-07
6.33455e-07
7.19729e-07
8.05618e-07
8.90468e-07
9.73731e-07
1.05498e-06
1.13394e-06
1.21048e-06
1.28462e-06
1.3566e-06
1.42682e-06
1.49589e-06
1.56465e-06
1.63414e-06
1.70564e-06
1.78071e-06
1.86113e-06
1.949e-06
2.04672e-06
2.15701e-06
2.28297e-06
2.42807e-06
2.5962e-06
2.79171e-06
3.0194e-06
3.2846e-06
3.59311e-06
3.95133e-06
4.36616e-06
4.84506e-06
5.39605e-06
6.02767e-06
6.749e-06
7.5696e-06
8.4995e-06
9.54921e-06
1.07296e-05
1.2052e-05
1.3528e-05
1.51695e-05
1.69887e-05
1.8998e-05
2.12098e-05
2.36367e-05
2.62912e-05
2.91855e-05
3.23315e-05
3.57406e-05
3.94234e-05
4.33901e-05
4.76496e-05
5.22098e-05
5.70776e-05
6.22588e-05
6.77579e-05
7.35784e-05
7.97225e-05
8.61915e-05
9.29857e-05
0.000100104
0.000107546
0.000115308
0.000123388
0.000131781
0.000140481
0.000149483
0.000158779
0.000168359
0.000178215
0.000188334
0.000198703
0.000209305
0.000220122
0.000231133
0.000242314
0.000253636
0.000265068
0.000276573
0.000288109
0.000299626
0.00031107
0.000322378
0.000333478
0.000344287
0.000354713
0.000364653
0.000373991
0.000382601
0.00039034
0.000397055
0.000402571
0.000406702
0.000408999
0.000409764
0.000409069
0.000406159
0.000400983
0.000393488
0.000383633
0.000371415
0.000356888
0.000340174
0.00032147
0.000301045
0.000279236
0.000256436
0.000233077
0.000209606
0.000186466
0.000164065
0.000142763
0.000122851
0.000104542
8.79659e-05
7.31773e-05
6.01597e-05
4.88389e-05
3.90961e-05
3.07823e-05
2.37319e-05
1.77754e-05
1.27522e-05
8.52565e-06
5.00372e-06
2.17937e-06
2.476e-07
6.74626e-09
5.98815e-08
1.36444e-07
2.27941e-07
3.3027e-07
4.40811e-07
5.5758e-07
6.78913e-07
8.03335e-07
9.29504e-07
1.0562e-06
1.18231e-06
1.30689e-06
1.42912e-06
1.54837e-06
1.66424e-06
1.77651e-06
1.88526e-06
1.99079e-06
2.09371e-06
2.19492e-06
2.29563e-06
2.39737e-06
2.50205e-06
2.61191e-06
2.72961e-06
2.8582e-06
3.0012e-06
3.16263e-06
3.347e-06
3.55944e-06
3.80565e-06
4.09201e-06
4.42559e-06
4.81419e-06
5.26639e-06
5.79157e-06
6.39989e-06
7.10234e-06
7.91074e-06
8.83766e-06
9.89649e-06
1.11013e-05
1.2467e-05
1.40091e-05
1.57435e-05
1.76872e-05
1.98571e-05
2.22711e-05
2.49472e-05
2.79038e-05
3.11595e-05
3.4733e-05
3.86429e-05
4.29074e-05
4.75446e-05
5.25714e-05
5.80042e-05
6.38578e-05
7.01461e-05
7.68812e-05
8.40735e-05
9.17318e-05
9.9863e-05
0.000108472
0.000117563
0.000127137
0.000137194
0.000147732
0.000158748
0.000170237
0.000182191
0.000194603
0.00020746
0.000220751
0.00023446
0.00024857
0.00026306
0.000277909
0.000293091
0.000308577
0.000324337
0.000340334
0.00035653
0.000372881
0.000389338
0.000405847
0.000422348
0.000438774
0.000455048
0.000471085
0.000486788
0.000502047
0.00051674
0.000530728
0.000543856
0.000555954
0.000566831
0.00057628
0.00058406
0.000589904
0.000593164
0.000594251
0.00059336
0.00058931
0.000582029
0.000571431
0.000557439
0.000540026
0.000519248
0.000495262
0.000468335
0.000438843
0.000407268
0.000374182
0.000340215
0.000306029
0.00027228
0.000239579
0.000208463
0.000179368
0.000152612
0.000128392
0.000106789
8.77774e-05
7.1249e-05
5.70282e-05
4.48957e-05
3.46078e-05
2.59157e-05
1.85845e-05
1.2415e-05
7.27481e-06
3.15812e-06
3.55252e-07
9.01899e-09
8.04361e-08
1.83737e-07
3.07416e-07
4.45846e-07
5.95434e-07
7.53473e-07
9.17697e-07
1.0861e-06
1.25686e-06
1.42833e-06
1.59899e-06
1.76754e-06
1.93288e-06
2.09417e-06
2.25082e-06
2.40257e-06
2.5495e-06
2.69204e-06
2.83099e-06
2.96757e-06
3.10343e-06
3.24064e-06
3.38177e-06
3.52985e-06
3.68847e-06
3.86178e-06
4.05453e-06
4.27214e-06
4.52075e-06
4.80727e-06
5.13943e-06
5.52586e-06
5.97616e-06
6.5009e-06
7.11171e-06
7.82131e-06
8.64351e-06
9.59326e-06
1.06866e-05
1.19406e-05
1.33736e-05
1.50047e-05
1.68542e-05
1.89433e-05
2.12938e-05
2.39287e-05
2.68716e-05
3.01466e-05
3.37786e-05
3.7793e-05
4.22153e-05
4.70713e-05
5.23869e-05
5.81874e-05
6.44976e-05
7.13414e-05
7.87415e-05
8.67188e-05
9.52925e-05
0.00010448
0.000114294
0.000124749
0.000135853
0.000147613
0.000160033
0.000173112
0.00018685
0.000201241
0.000216276
0.000231945
0.000248231
0.000265118
0.000282582
0.000300599
0.000319138
0.000338168
0.000357651
0.000377548
0.000397816
0.000418408
0.000439275
0.000460364
0.00048162
0.000502982
0.000524388
0.000545769
0.000567053
0.000588159
0.000609
0.000629477
0.000649481
0.000668886
0.000687553
0.000705319
0.000722005
0.000737407
0.000751293
0.000763417
0.000773465
0.000781115
0.00078554
0.000787096
0.000786288
0.000781428
0.000772375
0.000759004
0.000741177
0.000718818
0.000691958
0.000660766
0.000625559
0.000586809
0.00054514
0.000501303
0.000456143
0.000410558
0.000365445
0.00032165
0.000279917
0.000240856
0.000204914
0.000172371
0.000143344
0.000117806
9.56087e-05
7.65159e-05
6.02304e-05
4.64226e-05
3.47564e-05
2.49155e-05
1.66329e-05
9.73375e-06
4.21581e-06
4.72012e-07
1.14733e-08
1.02588e-07
2.34762e-07
3.93281e-07
5.70859e-07
7.62834e-07
9.65696e-07
1.17652e-06
1.39271e-06
1.61193e-06
1.83202e-06
2.05106e-06
2.26736e-06
2.47948e-06
2.68634e-06
2.8872e-06
3.0817e-06
3.26994e-06
3.45246e-06
3.63031e-06
3.80505e-06
3.97877e-06
4.15417e-06
4.33451e-06
4.52372e-06
4.72637e-06
4.94779e-06
5.1941e-06
5.47224e-06
5.79009e-06
6.15653e-06
6.58149e-06
7.07608e-06
7.65262e-06
8.32474e-06
9.10741e-06
1.0017e-05
1.10714e-05
1.22898e-05
1.3693e-05
1.5303e-05
1.71436e-05
1.92395e-05
2.1617e-05
2.43036e-05
2.73278e-05
3.07194e-05
3.45091e-05
3.87285e-05
4.34102e-05
4.85873e-05
5.42934e-05
6.05625e-05
6.74286e-05
7.49251e-05
8.3085e-05
9.19398e-05
0.000101519
0.000111852
0.000122962
0.000134871
0.0001476
0.000161161
0.000175567
0.000190823
0.000206932
0.000223891
0.000241691
0.00026032
0.000279758
0.000299982
0.000320961
0.000342658
0.000365034
0.00038804
0.000411624
0.000435729
0.000460295
0.000485257
0.000510549
0.000536104
0.000561852
0.000587724
0.00061365
0.00063956
0.000665383
0.000691049
0.000716483
0.000741606
0.000766334
0.000790571
0.000814212
0.000837132
0.000859191
0.000880222
0.000900031
0.000918393
0.000935049
0.000949712
0.000962013
0.000971581
0.000977497
0.000979772
0.000979425
0.000974309
0.000964079
0.000948568
0.000927562
0.00090091
0.000868592
0.000830756
0.000787744
0.000740101
0.000688569
0.00063407
0.000577663
0.000520487
0.0004637
0.000408404
0.000355583
0.000306052
0.000260416
0.000219061
0.000182159
0.000149688
0.000121468
9.71995e-05
7.65038e-05
5.89589e-05
4.41352e-05
3.16295e-05
2.11032e-05
1.23373e-05
5.33474e-06
5.95795e-07
1.40931e-08
1.26203e-07
2.89191e-07
4.84958e-07
7.04454e-07
9.4186e-07
1.1928e-06
1.45361e-06
1.72109e-06
1.9923e-06
2.26457e-06
2.53549e-06
2.80297e-06
3.06521e-06
3.32087e-06
3.569e-06
3.80918e-06
4.0415e-06
4.26666e-06
4.48593e-06
4.70125e-06
4.91523e-06
5.13118e-06
5.35315e-06
5.58599e-06
5.83538e-06
6.1079e-06
6.41112e-06
6.75363e-06
7.1452e-06
7.59681e-06
8.12079e-06
8.73089e-06
9.44241e-06
1.02723e-05
1.12391e-05
1.23632e-05
1.36668e-05
1.5174e-05
1.69105e-05
1.89041e-05
2.11841e-05
2.37818e-05
2.67299e-05
3.0063e-05
3.38169e-05
3.8029e-05
4.27381e-05
4.79841e-05
5.38082e-05
6.02523e-05
6.73592e-05
7.5172e-05
8.37339e-05
9.30877e-05
0.000103275
0.000114337
0.00012631
0.00013923
0.000153128
0.000168031
0.00018396
0.000200933
0.000218958
0.00023804
0.000258173
0.000279347
0.000301542
0.000324728
0.000348868
0.000373916
0.000399817
0.000426505
0.00045391
0.000481953
0.000510549
0.000539609
0.000569041
0.000598753
0.000628654
0.000658656
0.000688673
0.000718627
0.000748444
0.000778055
0.000807398
0.000836414
0.000865045
0.000893231
0.00092091
0.000948008
0.00097444
0.0010001
0.00102486
0.00104856
0.00107099
0.00109194
0.0011111
0.00112816
0.0011427
0.00115429
0.00116206
0.00116545
0.00116584
0.00116113
0.00115042
0.00113354
0.0011102
0.00108015
0.00104329
0.000999734
0.000949806
0.000894091
0.000833422
0.000768862
0.000701662
0.000633193
0.000564873
0.000498075
0.000434045
0.00037383
0.000318226
0.000267756
0.000222673
0.000182978
0.000148473
0.000118799
9.34962e-05
7.20476e-05
5.3926e-05
3.86368e-05
2.5767e-05
1.50522e-05
6.50119e-06
7.24999e-07
1.68681e-08
1.512e-07
3.46817e-07
5.82076e-07
8.46072e-07
1.13175e-06
1.43381e-06
1.74781e-06
2.06984e-06
2.39636e-06
2.72413e-06
3.05022e-06
3.37207e-06
3.68755e-06
3.99497e-06
4.2932e-06
4.58173e-06
4.86068e-06
5.13085e-06
5.39381e-06
5.65188e-06
5.90822e-06
6.16681e-06
6.43254e-06
6.71125e-06
7.00979e-06
7.33609e-06
7.69926e-06
8.10968e-06
8.5791e-06
9.12077e-06
9.74958e-06
1.04821e-05
1.13369e-05
1.23344e-05
1.34971e-05
1.48498e-05
1.64193e-05
1.82349e-05
2.03278e-05
2.27319e-05
2.5483e-05
2.86191e-05
3.21803e-05
3.62089e-05
4.07488e-05
4.5846e-05
5.15481e-05
5.79044e-05
6.49656e-05
7.27836e-05
8.14114e-05
9.09023e-05
0.00010131
0.000112687
0.000125085
0.000138554
0.00015314
0.000168884
0.000185824
0.00020399
0.000223404
0.000244081
0.000266027
0.000289236
0.000313691
0.000339365
0.000366215
0.000394189
0.000423218
0.000453224
0.000484112
0.000515779
0.000548113
0.000580994
0.000614297
0.000647896
0.000681666
0.000715489
0.000749252
0.000782854
0.000816208
0.000849239
0.000881884
0.000914097
0.000945841
0.000977089
0.00100782
0.00103801
0.00106764
0.00109666
0.00112503
0.00115266
0.00117946
0.00120526
0.00122987
0.00125305
0.00127447
0.00129379
0.00131053
0.00132419
0.00133411
0.00133901
0.00134029
0.00133659
0.00132607
0.0013086
0.00128381
0.00125135
0.00121104
0.0011629
0.00110723
0.00104461
0.000975924
0.000902333
0.000825241
0.000746222
0.000666936
0.000589023
0.000514001
0.000443175
0.000377562
0.000317857
0.000264424
0.000217321
0.000176346
0.000141096
0.000111037
8.55569e-05
6.40298e-05
4.5867e-05
3.0578e-05
1.78523e-05
7.70428e-06
8.58369e-07
1.97922e-08
1.77527e-07
4.07515e-07
6.8441e-07
9.95368e-07
1.33204e-06
1.68812e-06
2.05834e-06
2.43806e-06
2.82306e-06
3.20949e-06
3.59387e-06
3.97315e-06
4.34477e-06
4.70675e-06
5.05774e-06
5.3971e-06
5.72499e-06
6.04236e-06
6.35106e-06
6.65384e-06
6.95443e-06
7.25754e-06
7.56895e-06
7.89556e-06
8.24546e-06
8.62802e-06
9.05398e-06
9.53562e-06
1.00868e-05
1.07233e-05
1.14625e-05
1.23243e-05
1.33305e-05
1.45054e-05
1.58758e-05
1.74709e-05
1.93229e-05
2.14665e-05
2.39392e-05
2.67812e-05
3.00355e-05
3.37475e-05
3.79655e-05
4.274e-05
4.81242e-05
5.41733e-05
6.09449e-05
6.84986e-05
7.68957e-05
8.61992e-05
9.64733e-05
0.000107783
0.000120192
0.000133765
0.000148564
0.000164648
0.00018207
0.000200878
0.000221114
0.000242808
0.00026598
0.000290638
0.000316777
0.000344374
0.000373392
0.000403776
0.000435451
0.000468327
0.000502294
0.000537223
0.000572975
0.000609395
0.000646319
0.000683582
0.000721016
0.000758457
0.000795754
0.000832769
0.000869383
0.000905499
0.000941043
0.000975964
0.00101024
0.00104385
0.00107682
0.00110917
0.00114093
0.00117212
0.00120277
0.00123289
0.00126245
0.00129141
0.00131968
0.0013471
0.00137349
0.00139858
0.00142202
0.00144342
0.00146228
0.00147804
0.00149006
0.00149679
0.00149909
0.00149681
0.00148704
0.00146967
0.00144427
0.0014104
0.00136777
0.00131631
0.00125626
0.00118815
0.00111286
0.0010316
0.000945878
0.000857419
0.000768095
0.000679794
0.000594305
0.000513203
0.000437755
0.000368863
0.000307042
0.000252437
0.000204874
0.000163928
0.000128998
9.93881e-05
7.43719e-05
5.3266e-05
3.55007e-05
2.07172e-05
8.93545e-06
9.94929e-07
2.28624e-08
2.05158e-07
4.71222e-07
7.91842e-07
1.15215e-06
1.54245e-06
1.95537e-06
2.38478e-06
2.82523e-06
3.27178e-06
3.71994e-06
4.16562e-06
4.60524e-06
5.03581e-06
5.455e-06
5.86124e-06
6.25377e-06
6.63276e-06
6.99934e-06
7.35566e-06
7.70494e-06
8.0515e-06
8.40085e-06
8.7597e-06
9.13609e-06
9.53941e-06
9.98057e-06
1.04721e-05
1.10281e-05
1.1665e-05
1.24008e-05
1.32562e-05
1.4254e-05
1.54198e-05
1.6782e-05
1.83719e-05
2.02238e-05
2.23754e-05
2.48674e-05
2.77439e-05
3.10522e-05
3.4843e-05
3.91701e-05
4.40904e-05
4.96638e-05
5.59534e-05
6.30248e-05
7.09465e-05
7.97894e-05
8.96267e-05
0.000100533
0.000112586
0.000125861
0.000140436
0.000156385
0.000173781
0.000192691
0.000213177
0.000235289
0.00025907
0.000284546
0.00031173
0.000340615
0.000371177
0.000403367
0.000437114
0.000472325
0.000508879
0.000546633
0.000585421
0.000625059
0.000665344
0.000706066
0.000747006
0.00078795
0.000828692
0.000869042
0.000908832
0.000947924
0.000986212
0.00102362
0.00106012
0.00109571
0.0011304
0.00116427
0.00119738
0.00122982
0.00126168
0.00129304
0.00132397
0.00135452
0.0013847
0.00141447
0.00144375
0.0014724
0.0015002
0.00152687
0.00155205
0.00157528
0.00159605
0.00161376
0.00162773
0.00163641
0.00163981
0.00163908
0.00163052
0.00161383
0.00158858
0.00155426
0.00151045
0.001457
0.00139403
0.00132199
0.00124171
0.00115437
0.00106154
0.000965033
0.000866883
0.000769195
0.000674014
0.000583192
0.000498267
0.000420382
0.000350242
0.000288121
0.000233908
0.00018718
0.000147293
0.000113472
8.48992e-05
6.07948e-05
4.05086e-05
2.36318e-05
1.01883e-05
1.13395e-06
2.60777e-08
2.34089e-07
5.37922e-07
9.04337e-07
1.31637e-06
1.76289e-06
2.23544e-06
2.72693e-06
3.2311e-06
3.74223e-06
4.25511e-06
4.76502e-06
5.26783e-06
5.76006e-06
6.23902e-06
6.70287e-06
7.15078e-06
7.58291e-06
8.00059e-06
8.40628e-06
8.8037e-06
9.19783e-06
9.595e-06
1.00029e-05
1.04309e-05
1.08896e-05
1.13916e-05
1.19513e-05
1.25851e-05
1.33115e-05
1.41514e-05
1.51286e-05
1.62694e-05
1.76033e-05
1.91631e-05
2.09849e-05
2.31086e-05
2.55776e-05
2.84392e-05
3.17449e-05
3.55495e-05
3.99122e-05
4.48957e-05
5.05666e-05
5.69951e-05
6.42549e-05
7.24233e-05
8.15807e-05
9.18103e-05
0.000103198
0.000115833
0.000129803
0.000145199
0.000162109
0.000180621
0.000200815
0.000222768
0.000246543
0.000272193
0.000299756
0.000329249
0.000360668
0.000393984
0.000429141
0.000466054
0.000504604
0.000544645
0.000585995
0.000628447
0.000671768
0.000715704
0.000759987
0.000804345
0.000848509
0.000892225
0.000935259
0.000977413
0.00101852
0.00105848
0.0010972
0.00113468
0.00117093
0.00120604
0.00124009
0.00127322
0.00130558
0.0013373
0.00136855
0.00139946
0.00143012
0.00146062
0.00149097
0.00152115
0.00155107
0.00158057
0.00160942
0.00163732
0.00166386
0.00168859
0.00171093
0.00173027
0.0017459
0.00175648
0.00176113
0.00176171
0.00175474
0.00173921
0.00171481
0.00168093
0.00163707
0.00158294
0.00151854
0.0014442
0.00136064
0.00126898
0.00117073
0.00106775
0.000962191
0.000856319
0.000752414
0.0006526
0.000558703
0.000472135
0.000393833
0.000324243
0.000263356
0.000210787
0.00016587
0.000127769
9.55794e-05
6.84286e-05
4.55846e-05
2.65857e-05
1.14583e-05
1.27492e-06
2.94394e-08
2.64329e-07
6.07639e-07
1.02193e-06
1.48805e-06
1.99339e-06
2.52835e-06
3.08483e-06
3.65569e-06
4.23439e-06
4.81496e-06
5.392e-06
5.96077e-06
6.5173e-06
7.05849e-06
7.58227e-06
8.08765e-06
8.57486e-06
9.04539e-06
9.50209e-06
9.94919e-06
1.03924e-05
1.08389e-05
1.12975e-05
1.17787e-05
1.22948e-05
1.286e-05
1.34906e-05
1.42053e-05
1.50252e-05
1.59742e-05
1.70792e-05
1.83704e-05
1.98813e-05
2.16495e-05
2.37163e-05
2.61275e-05
2.89328e-05
3.21869e-05
3.59485e-05
4.02814e-05
4.52535e-05
5.09376e-05
5.74107e-05
6.47541e-05
7.30536e-05
8.23986e-05
9.28828e-05
0.000104603
0.000117658
0.000132152
0.000148186
0.000165864
0.000185287
0.000206552
0.000229749
0.000254957
0.000282242
0.000311653
0.000343215
0.000376929
0.000412765
0.00045066
0.000490514
0.000532188
0.000575505
0.000620248
0.000666165
0.00071297
0.000760353
0.000807987
0.000855539
0.000902681
0.000949103
0.000994525
0.00103871
0.00108147
0.00112269
0.00116228
0.00120026
0.00123667
0.00127163
0.00130529
0.00133783
0.00136946
0.0014004
0.00143085
0.00146101
0.00149104
0.00152107
0.00155117
0.00158137
0.00161163
0.00164184
0.00167183
0.00170133
0.00173003
0.0017575
0.00178327
0.00180675
0.00182731
0.00184421
0.00185647
0.00186248
0.00186404
0.00185893
0.00184496
0.001822
0.00178939
0.00174652
0.00169298
0.00162863
0.00155363
0.00146854
0.00137433
0.00127244
0.00116469
0.00105326
0.000940543
0.000829016
0.000721064
0.000618806
0.000523952
0.000437711
0.000360742
0.000293185
0.000234728
0.000184715
0.000142265
0.000106399
7.61555e-05
5.07194e-05
2.95734e-05
1.27429e-05
1.41755e-06
3.295e-08
2.95905e-07
6.8043e-07
1.1447e-06
1.66731e-06
2.23411e-06
2.83427e-06
3.45867e-06
4.0992e-06
4.74847e-06
5.39969e-06
6.04674e-06
6.68423e-06
7.30764e-06
7.91349e-06
8.4994e-06
9.06429e-06
9.60842e-06
1.01335e-05
1.06427e-05
1.1141e-05
1.16346e-05
1.21319e-05
1.26427e-05
1.31789e-05
1.37543e-05
1.4385e-05
1.50893e-05
1.58884e-05
1.68061e-05
1.78694e-05
1.91085e-05
2.05578e-05
2.22553e-05
2.42434e-05
2.65693e-05
2.92848e-05
3.24469e-05
3.61175e-05
4.03641e-05
4.52593e-05
5.08813e-05
5.73132e-05
6.46437e-05
7.29662e-05
8.23792e-05
9.2986e-05
0.000104894
0.000118214
0.000133061
0.000149551
0.000167802
0.00018793
0.000210046
0.000234257
0.000260658
0.00028933
0.000320335
0.000353709
0.000389459
0.000427558
0.000467938
0.000510489
0.000555053
0.000601424
0.000649349
0.000698529
0.000748627
0.000799273
0.000850077
0.000900639
0.000950568
0.000999494
0.00104708
0.00109306
0.00113721
0.00117939
0.00121953
0.00125765
0.00129383
0.00132823
0.00136104
0.00139252
0.00142294
0.00145256
0.00148167
0.0015105
0.00153929
0.0015682
0.00159736
0.00162683
0.00165662
0.00168666
0.00171681
0.00174689
0.00177661
0.00180563
0.00183353
0.00185983
0.00188397
0.0019053
0.00192311
0.00193662
0.00194394
0.00194635
0.00194314
0.00193107
0.00191008
0.00187947
0.00183856
0.0017868
0.00172388
0.00164978
0.00156485
0.00146988
0.00136613
0.00125534
0.00113964
0.00102149
0.000903534
0.000788381
0.000678449
0.000575768
0.000481851
0.000397621
0.000323411
0.000259023
0.000203842
0.00015697
0.000117363
8.39763e-05
5.59118e-05
3.25932e-05
1.40414e-05
1.56175e-06
3.66135e-08
3.28852e-07
7.56378e-07
1.27281e-06
1.85436e-06
2.4853e-06
3.15352e-06
3.8488e-06
4.56203e-06
5.28489e-06
6.00974e-06
6.72967e-06
7.43861e-06
8.13148e-06
8.80435e-06
9.45457e-06
1.00809e-05
1.06838e-05
1.1265e-05
1.18283e-05
1.2379e-05
1.29245e-05
1.3474e-05
1.40385e-05
1.46313e-05
1.52681e-05
1.59667e-05
1.67478e-05
1.76349e-05
1.86549e-05
1.98379e-05
2.12181e-05
2.28339e-05
2.47281e-05
2.69487e-05
2.95487e-05
3.25868e-05
3.61273e-05
4.02406e-05
4.50032e-05
5.04976e-05
5.68126e-05
6.40431e-05
7.22901e-05
8.16602e-05
9.22658e-05
0.000104225
0.000117659
0.000132695
0.000149464
0.000168095
0.00018872
0.000211467
0.000236459
0.000263808
0.000293611
0.000325944
0.000360858
0.00039837
0.000438458
0.000481054
0.000526041
0.000573243
0.000622432
0.000673319
0.000725561
0.000778769
0.000832511
0.000886331
0.000939761
0.000992339
0.00104363
0.00109325
0.00114086
0.00118623
0.00122918
0.00126965
0.00130768
0.00134337
0.00137692
0.00140858
0.00143866
0.00146749
0.00149541
0.00152275
0.00154983
0.00157691
0.00160419
0.00163185
0.00165999
0.00168864
0.00171778
0.00174731
0.00177706
0.00180682
0.00183631
0.00186516
0.00189298
0.0019193
0.00194357
0.00196521
0.00198355
0.00199789
0.00200644
0.00200965
0.00200827
0.00199834
0.00197974
0.00195176
0.00191364
0.00186469
0.00180445
0.00173269
0.00164951
0.00155547
0.0014516
0.00133947
0.00122111
0.00109899
0.000975837
0.000854475
0.000737607
0.000627598
0.000526299
0.00043494
0.000354094
0.000283726
0.000223298
0.000171916
0.000128491
9.19022e-05
6.11675e-05
3.56477e-05
1.53546e-05
1.70759e-06
4.04354e-08
3.63219e-07
8.35594e-07
1.40642e-06
2.04946e-06
2.7473e-06
3.48651e-06
4.2557e-06
5.04472e-06
5.84424e-06
6.64573e-06
7.44144e-06
8.22457e-06
8.98946e-06
9.7317e-06
1.04484e-05
1.11381e-05
1.18013e-05
1.24403e-05
1.3059e-05
1.36637e-05
1.42624e-05
1.48654e-05
1.54851e-05
1.61364e-05
1.68366e-05
1.76058e-05
1.84668e-05
1.94459e-05
2.0573e-05
2.18818e-05
2.34104e-05
2.52017e-05
2.73038e-05
2.97703e-05
3.26607e-05
3.60409e-05
3.99834e-05
4.45675e-05
4.98794e-05
5.60125e-05
6.30671e-05
7.11505e-05
8.03772e-05
9.0868e-05
0.00010275
0.000116157
0.000131226
0.0001481
0.000166924
0.000187845
0.000211006
0.000236546
0.000264595
0.000295267
0.000328658
0.000364831
0.000403819
0.000445609
0.000490136
0.00053728
0.000586856
0.000638614
0.000692235
0.000747335
0.000803473
0.000860157
0.000916865
0.000973055
0.00102819
0.00108178
0.00113335
0.00118253
0.00122903
0.00127267
0.00131337
0.00135118
0.00138623
0.00141876
0.00144907
0.00147754
0.00150454
0.00153049
0.00155579
0.00158078
0.0016058
0.00163109
0.00165684
0.00168319
0.00171021
0.00173789
0.00176617
0.0017949
0.00182392
0.00185297
0.00188178
0.00191001
0.00193726
0.0019631
0.00198706
0.00200858
0.00202705
0.00204185
0.00205154
0.00205559
0.00205576
0.00204821
0.0020323
0.00200745
0.00197277
0.0019275
0.001871
0.00180281
0.00172281
0.00163124
0.00152889
0.00141706
0.00129763
0.00117298
0.00104589
0.000919352
0.000796325
0.000679517
0.000571149
0.000472799
0.000385332
0.000308922
0.000243148
0.000187152
0.000139818
9.99546e-05
6.64983e-05
3.87428e-05
1.66847e-05
1.85533e-06
4.44219e-08
3.99065e-07
9.18214e-07
1.54577e-06
2.25293e-06
3.02054e-06
3.83376e-06
4.68e-06
5.54797e-06
6.4273e-06
7.30848e-06
8.1829e-06
9.04299e-06
9.88243e-06
1.06964e-05
1.14816e-05
1.22366e-05
1.29619e-05
1.36601e-05
1.43357e-05
1.49956e-05
1.56488e-05
1.63068e-05
1.69834e-05
1.7695e-05
1.84609e-05
1.93033e-05
2.02476e-05
2.1323e-05
2.25625e-05
2.40036e-05
2.56886e-05
2.76653e-05
2.99872e-05
3.27141e-05
3.59125e-05
3.96561e-05
4.4026e-05
4.91112e-05
5.50083e-05
6.18224e-05
6.96662e-05
7.86607e-05
8.89345e-05
0.000100624
0.000113871
0.000128826
0.000145644
0.000164482
0.000185502
0.000208864
0.000234723
0.000263227
0.000294509
0.000328682
0.00036583
0.000406001
0.000449193
0.000495354
0.000544364
0.000596035
0.0006501
0.000706216
0.000763963
0.000822851
0.000882333
0.000941816
0.00100069
0.00105834
0.00111418
0.0011677
0.00121845
0.0012661
0.00131043
0.00135135
0.00138892
0.00142328
0.00145472
0.0014836
0.00151033
0.00153538
0.0015592
0.00158227
0.00160498
0.0016277
0.00165074
0.00167432
0.00169858
0.00172362
0.00174945
0.00177603
0.00180325
0.00183094
0.00185891
0.00188691
0.00191466
0.00194185
0.00196813
0.0019931
0.00201634
0.00203737
0.00205565
0.00207057
0.00208124
0.00208639
0.00208761
0.00208258
0.00206955
0.00204815
0.00201741
0.00197644
0.00192451
0.00186092
0.00178529
0.00169756
0.0015982
0.0014882
0.00136922
0.00124348
0.00111373
0.000983057
0.000854677
0.000731629
0.000616522
0.000511326
0.000417246
0.000334716
0.000263478
0.000202744
0.000151388
0.000108162
7.19213e-05
4.18872e-05
1.80353e-05
2.00535e-06
4.85807e-08
4.36456e-07
1.00439e-06
1.69111e-06
2.46514e-06
3.3055e-06
4.19589e-06
5.12241e-06
6.07259e-06
7.03496e-06
7.99897e-06
8.95507e-06
9.8949e-06
1.08115e-05
1.16994e-05
1.25553e-05
1.33774e-05
1.41665e-05
1.49254e-05
1.56592e-05
1.63757e-05
1.70848e-05
1.77992e-05
1.85343e-05
1.93083e-05
2.01423e-05
2.1061e-05
2.20923e-05
2.32685e-05
2.46261e-05
2.62065e-05
2.80567e-05
3.02295e-05
3.27842e-05
3.57872e-05
3.93127e-05
4.34425e-05
4.82671e-05
5.38858e-05
6.04067e-05
6.79471e-05
7.66333e-05
8.66006e-05
9.79928e-05
0.000110962
0.000125668
0.000142278
0.000160961
0.000181894
0.000205252
0.000231208
0.000259927
0.000291562
0.000326246
0.000364082
0.000405136
0.000449428
0.000496915
0.000547489
0.00060096
0.000657056
0.000715416
0.000775589
0.000837044
0.000899177
0.000961334
0.00102283
0.00108297
0.00114109
0.0011966
0.00124899
0.00129786
0.00134296
0.00138419
0.00142157
0.0014553
0.00148568
0.00151312
0.0015381
0.00156113
0.00158278
0.00160352
0.00162384
0.00164414
0.00166477
0.001686
0.001708
0.00173085
0.0017546
0.00177922
0.0018046
0.0018306
0.00185705
0.00188373
0.0019104
0.0019368
0.00196265
0.00198764
0.00201141
0.0020336
0.0020538
0.00207153
0.00208632
0.00209756
0.00210386
0.00210599
0.00210352
0.0020936
0.00207576
0.00204923
0.00201301
0.0019662
0.00190798
0.00183767
0.00175492
0.00165983
0.00155307
0.00143596
0.0013105
0.00117935
0.00104563
0.000912738
0.00078404
0.000662548
0.000550658
0.00044997
0.000361229
0.000284389
0.000218767
0.000163256
0.000116562
7.74578e-05
4.50923e-05
1.94108e-05
2.15814e-06
5.29202e-08
4.75469e-07
1.09431e-06
1.84275e-06
2.68653e-06
3.60276e-06
4.57358e-06
5.58376e-06
6.61954e-06
7.66828e-06
8.71833e-06
9.75916e-06
1.07816e-05
1.17778e-05
1.27422e-05
1.36707e-05
1.45618e-05
1.54163e-05
1.62374e-05
1.70308e-05
1.78052e-05
1.85715e-05
1.9344e-05
2.01394e-05
2.09778e-05
2.18826e-05
2.28807e-05
2.40031e-05
2.52852e-05
2.67671e-05
2.84946e-05
3.05194e-05
3.28998e-05
3.57013e-05
3.89976e-05
4.28705e-05
4.74111e-05
5.27197e-05
5.89068e-05
6.60926e-05
7.44077e-05
8.39927e-05
9.49982e-05
0.000107584
0.00012192
0.000138183
0.000156556
0.000177227
0.000200388
0.000226228
0.000254931
0.000286668
0.000321593
0.000359833
0.000401474
0.000446556
0.000495056
0.000546879
0.000601846
0.000659683
0.00072002
0.000782384
0.000846209
0.000910844
0.000975572
0.00103964
0.00110226
0.00116271
0.0012203
0.00127444
0.00132468
0.0013707
0.00141237
0.00144973
0.00148295
0.00151237
0.00153846