/*--------------------------------*- C++ -*----------------------------------*\
  =========                 |
  \\      /  F ield         | OpenFOAM: The Open Source CFD Toolbox
   \\    /   O peration     | Website:  https://openfoam.org
    \\  /    A nd           | Version:  12
     \\/     M anipulation  |
\*---------------------------------------------------------------------------*/
FoamFile
{
    format      ascii;
    class       volScalarField;
    location    "4";
    object      nut;
}
// * * * * * * * * * * * * * * * * * * * * * * * * * * * * * * * * * * * * * //

dimensions      [0 2 -1 0 0 0 0];

internalField   nonuniform List<scalar> 
18225
(
4.3997e-15
2.97724e-14
6.63422e-14
1.09991e-13
1.58798e-13
2.1153e-13
2.67242e-13
3.25142e-13
3.84525e-13
4.44754e-13
5.05247e-13
5.65482e-13
6.25e-13
6.83421e-13
7.4045e-13
7.95889e-13
8.49649e-13
9.01759e-13
9.52374e-13
1.00178e-12
1.05042e-12
1.09887e-12
1.14787e-12
1.19832e-12
1.25132e-12
1.30812e-12
1.37019e-12
1.43924e-12
1.51716e-12
1.60615e-12
1.70864e-12
1.82737e-12
1.96538e-12
2.12606e-12
2.31314e-12
2.53071e-12
2.78324e-12
3.07558e-12
3.41295e-12
3.80097e-12
4.24563e-12
4.75328e-12
5.33061e-12
5.98463e-12
6.72269e-12
7.55239e-12
8.4816e-12
9.51842e-12
1.06712e-11
1.19483e-11
1.33584e-11
1.49101e-11
1.66121e-11
1.8473e-11
2.05012e-11
2.27049e-11
2.50917e-11
2.76691e-11
3.04436e-11
3.34215e-11
3.66079e-11
4.00074e-11
4.36238e-11
4.74598e-11
5.15176e-11
5.57987e-11
6.03037e-11
6.50326e-11
6.99849e-11
7.51596e-11
8.05553e-11
8.61698e-11
9.20008e-11
9.80453e-11
1.043e-10
1.1076e-10
1.17422e-10
1.24279e-10
1.31325e-10
1.38553e-10
1.45953e-10
1.53515e-10
1.61227e-10
1.69073e-10
1.77036e-10
1.85096e-10
1.93228e-10
2.01404e-10
2.09591e-10
2.17749e-10
2.25835e-10
2.33796e-10
2.41572e-10
2.49097e-10
2.56293e-10
2.63076e-10
2.69351e-10
2.75013e-10
2.79942e-10
2.84012e-10
2.87086e-10
2.88903e-10
2.89585e-10
2.89166e-10
2.87191e-10
2.83592e-10
2.78327e-10
2.71371e-10
2.62728e-10
2.5244e-10
2.40601e-10
2.27353e-10
2.12891e-10
1.97458e-10
1.81331e-10
1.64817e-10
1.48229e-10
1.31879e-10
1.16053e-10
1.01003e-10
8.6933e-11
7.39925e-11
6.22742e-11
5.18165e-11
4.26083e-11
3.45983e-11
2.77031e-11
2.18191e-11
1.68286e-11
1.26126e-11
9.05821e-12
6.06935e-12
3.58125e-12
1.58869e-12
2.34299e-13
1.33011e-13
4.33657e-12
1.08966e-11
1.85272e-11
2.69826e-11
3.60849e-11
4.56852e-11
5.56531e-11
6.58708e-11
7.62297e-11
8.66306e-11
9.69838e-11
1.07211e-10
1.17246e-10
1.27037e-10
1.36552e-10
1.45774e-10
1.54708e-10
1.6338e-10
1.7184e-10
1.80161e-10
1.88444e-10
1.96816e-10
2.0543e-10
2.14473e-10
2.24162e-10
2.34749e-10
2.46522e-10
2.59809e-10
2.74984e-10
2.92463e-10
3.12716e-10
3.36263e-10
3.63684e-10
3.95615e-10
4.32759e-10
4.75879e-10
5.25804e-10
5.8343e-10
6.49715e-10
7.25685e-10
8.12422e-10
9.11071e-10
1.02283e-09
1.14895e-09
1.29072e-09
1.44948e-09
1.62662e-09
1.82353e-09
2.04165e-09
2.28243e-09
2.54733e-09
2.83781e-09
3.1553e-09
3.5012e-09
3.87689e-09
4.28363e-09
4.72263e-09
5.19498e-09
5.70164e-09
6.24345e-09
6.82111e-09
7.43516e-09
8.08602e-09
8.77395e-09
9.4991e-09
1.02615e-08
1.1061e-08
1.18975e-08
1.27706e-08
1.36801e-08
1.46255e-08
1.56063e-08
1.6622e-08
1.7672e-08
1.87554e-08
1.98716e-08
2.10196e-08
2.21984e-08
2.34068e-08
2.46434e-08
2.59066e-08
2.71945e-08
2.8505e-08
2.98353e-08
3.11824e-08
3.25426e-08
3.39117e-08
3.52845e-08
3.66551e-08
3.80166e-08
3.93608e-08
4.06784e-08
4.19583e-08
4.31884e-08
4.43547e-08
4.54417e-08
4.6432e-08
4.73051e-08
4.80395e-08
4.86066e-08
4.8954e-08
4.91094e-08
4.90916e-08
4.88055e-08
4.8242e-08
4.73931e-08
4.62527e-08
4.48194e-08
4.30991e-08
4.11062e-08
3.88646e-08
3.64073e-08
3.37759e-08
3.10192e-08
2.81905e-08
2.53455e-08
2.25389e-08
1.98215e-08
1.72377e-08
1.48235e-08
1.26048e-08
1.05979e-08
8.80912e-09
7.23618e-09
5.86977e-09
4.69504e-09
3.69317e-09
2.84441e-09
2.12774e-09
1.52308e-09
1.0129e-09
5.83931e-10
2.30394e-10
7.08081e-12
2.82518e-13
2.32457e-11
7.48557e-11
1.36111e-10
2.03171e-10
2.74797e-10
3.50015e-10
4.27919e-10
5.07648e-10
5.8839e-10
6.69389e-10
7.49953e-10
8.29473e-10
9.07434e-10
9.83438e-10
1.05721e-09
1.12863e-09
1.19773e-09
1.26471e-09
1.32996e-09
1.39403e-09
1.4577e-09
1.52196e-09
1.58799e-09
1.65722e-09
1.73134e-09
1.81228e-09
1.90226e-09
2.00382e-09
2.11981e-09
2.25346e-09
2.40835e-09
2.58851e-09
2.79838e-09
3.04286e-09
3.32733e-09
3.65765e-09
4.04018e-09
4.48179e-09
4.9898e-09
5.57206e-09
6.23681e-09
6.99277e-09
7.84903e-09
8.81505e-09
9.9006e-09
1.11157e-08
1.24708e-08
1.39761e-08
1.56425e-08
1.74804e-08
1.95007e-08
2.17138e-08
2.41299e-08
2.67592e-08
2.96109e-08
3.26939e-08
3.60162e-08
3.95847e-08
4.34055e-08
4.74835e-08
5.18222e-08
5.64243e-08
6.12909e-08
6.64224e-08
7.18178e-08
7.74756e-08
8.33931e-08
8.95672e-08
9.59943e-08
1.0267e-07
1.09591e-07
1.16751e-07
1.24147e-07
1.31771e-07
1.39621e-07
1.47688e-07
1.55969e-07
1.64456e-07
1.73143e-07
1.82022e-07
1.91084e-07
2.0032e-07
2.09717e-07
2.19262e-07
2.28939e-07
2.38726e-07
2.486e-07
2.58532e-07
2.68487e-07
2.78423e-07
2.88288e-07
2.98023e-07
3.07556e-07
3.16804e-07
3.2567e-07
3.34046e-07
3.41808e-07
3.48808e-07
3.54883e-07
3.5989e-07
3.63224e-07
3.65206e-07
3.66089e-07
3.64934e-07
3.61687e-07
3.56265e-07
3.48589e-07
3.38614e-07
3.26353e-07
3.11892e-07
2.95393e-07
2.771e-07
2.57332e-07
2.36473e-07
2.1495e-07
1.93215e-07
1.71714e-07
1.50863e-07
1.31027e-07
1.12498e-07
9.54902e-08
8.01319e-08
6.64723e-08
5.44906e-08
4.41086e-08
3.52049e-08
2.7629e-08
2.12174e-08
1.58002e-08
1.1213e-08
7.30617e-09
3.963e-09
1.22981e-09
1.50166e-11
4.62036e-13
5.45987e-11
2.25349e-10
4.51753e-10
7.02334e-10
9.68755e-10
1.24719e-09
1.53458e-09
1.828e-09
2.12462e-09
2.42176e-09
2.71694e-09
3.00792e-09
3.29283e-09
3.57018e-09
3.83897e-09
4.09871e-09
4.34951e-09
4.59207e-09
4.82777e-09
5.05866e-09
5.28754e-09
5.51793e-09
5.75417e-09
6.00141e-09
6.26571e-09
6.55404e-09
6.87442e-09
7.23594e-09
7.64888e-09
8.12477e-09
8.67654e-09
9.31853e-09
1.00667e-08
1.09384e-08
1.19531e-08
1.31314e-08
1.44962e-08
1.60716e-08
1.78837e-08
1.996e-08
2.23296e-08
2.5023e-08
2.80717e-08
3.15084e-08
3.53666e-08
3.96806e-08
4.44851e-08
4.9815e-08
5.57051e-08
6.21902e-08
6.93042e-08
7.70802e-08
8.55496e-08
9.47421e-08
1.04685e-07
1.15402e-07
1.26913e-07
1.39236e-07
1.52382e-07
1.6636e-07
1.81172e-07
1.96816e-07
2.13289e-07
2.30579e-07
2.48675e-07
2.67561e-07
2.8722e-07
3.07633e-07
3.2878e-07
3.50645e-07
3.73206e-07
3.96448e-07
4.20351e-07
4.44901e-07
4.70083e-07
4.95887e-07
5.22299e-07
5.49313e-07
5.76918e-07
6.05107e-07
6.3387e-07
6.63198e-07
6.93076e-07
7.23485e-07
7.54402e-07
7.85791e-07
8.17608e-07
8.49792e-07
8.82266e-07
9.14928e-07
9.47647e-07
9.80258e-07
1.01256e-06
1.04429e-06
1.07517e-06
1.10485e-06
1.13292e-06
1.15893e-06
1.18244e-06
1.20283e-06
1.21721e-06
1.2278e-06
1.2352e-06
1.23568e-06
1.22902e-06
1.21485e-06
1.19277e-06
1.16248e-06
1.12389e-06
1.07719e-06
1.02285e-06
9.61674e-07
8.94739e-07
8.23403e-07
7.49211e-07
6.73817e-07
5.98882e-07
5.25969e-07
4.56455e-07
3.91456e-07
3.31785e-07
2.7794e-07
2.30116e-07
1.88241e-07
1.52031e-07
1.21038e-07
9.47065e-08
7.24259e-08
5.35604e-08
3.74878e-08
2.36517e-08
1.17695e-08
2.87894e-09
2.44855e-11
6.65939e-13
9.22252e-11
4.5852e-10
1.02035e-09
1.67005e-09
2.36606e-09
3.09262e-09
3.8406e-09
4.60245e-09
5.37109e-09
6.13975e-09
6.90209e-09
7.65241e-09
8.38581e-09
9.09844e-09
9.78761e-09
1.0452e-08
1.10918e-08
1.17088e-08
1.23064e-08
1.28899e-08
1.34662e-08
1.40444e-08
1.46355e-08
1.52524e-08
1.59105e-08
1.66273e-08
1.74231e-08
1.83207e-08
1.93458e-08
2.05274e-08
2.18978e-08
2.34927e-08
2.53519e-08
2.75187e-08
3.00409e-08
3.29699e-08
3.63615e-08
4.02754e-08
4.4775e-08
4.99272e-08
5.58021e-08
6.24725e-08
7.00133e-08
7.85014e-08
8.80145e-08
9.86308e-08
1.10429e-07
1.23485e-07
1.37876e-07
1.53674e-07
1.7095e-07
1.89768e-07
2.1019e-07
2.32267e-07
2.56045e-07
2.8156e-07
3.08837e-07
3.37891e-07
3.68724e-07
4.01329e-07
4.35686e-07
4.71765e-07
5.09527e-07
5.48926e-07
5.89912e-07
6.32428e-07
6.76417e-07
7.21823e-07
7.68595e-07
8.16692e-07
8.66071e-07
9.16699e-07
9.68547e-07
1.0216e-06
1.07585e-06
1.13129e-06
1.18794e-06
1.24581e-06
1.30492e-06
1.36531e-06
1.42701e-06
1.49004e-06
1.55443e-06
1.62021e-06
1.68737e-06
1.75592e-06
1.82581e-06
1.89698e-06
1.96933e-06
2.0427e-06
2.11685e-06
2.19148e-06
2.26616e-06
2.34038e-06
2.4135e-06
2.48474e-06
2.55316e-06
2.61802e-06
2.67877e-06
2.73125e-06
2.77145e-06
2.80334e-06
2.8291e-06
2.83894e-06
2.83229e-06
2.80812e-06
2.76533e-06
2.703e-06
2.62073e-06
2.51874e-06
2.39796e-06
2.2601e-06
2.10761e-06
1.94361e-06
1.77173e-06
1.59593e-06
1.42022e-06
1.24845e-06
1.08406e-06
9.29873e-07
7.88006e-07
6.59791e-07
5.45811e-07
4.45976e-07
3.59644e-07
2.85752e-07
2.22949e-07
1.69715e-07
1.24457e-07
8.56257e-08
5.19833e-08
2.3651e-08
4.84361e-09
3.51313e-11
8.90292e-13
1.33286e-10
7.51616e-10
1.83756e-09
3.17772e-09
4.64583e-09
6.18716e-09
7.77443e-09
9.38915e-09
1.10157e-08
1.26396e-08
1.42475e-08
1.58272e-08
1.73683e-08
1.88626e-08
2.03041e-08
2.16899e-08
2.30203e-08
2.42986e-08
2.55319e-08
2.67309e-08
2.79102e-08
2.90882e-08
3.02874e-08
3.15348e-08
3.28615e-08
3.43038e-08
3.59026e-08
3.77045e-08
3.97619e-08
4.21333e-08
4.48839e-08
4.80858e-08
5.18187e-08
5.61694e-08
6.12329e-08
6.71115e-08
7.39153e-08
8.17612e-08
9.07729e-08
1.0108e-07
1.12816e-07
1.2612e-07
1.41131e-07
1.57992e-07
1.76843e-07
1.97823e-07
2.21067e-07
2.46707e-07
2.74867e-07
3.0566e-07
3.39192e-07
3.75555e-07
4.14828e-07
4.5707e-07
5.02326e-07
5.50617e-07
6.01943e-07
6.56283e-07
7.13592e-07
7.73808e-07
8.3685e-07
9.02619e-07
9.71006e-07
1.04189e-06
1.11516e-06
1.1907e-06
1.26838e-06
1.34811e-06
1.4298e-06
1.51343e-06
1.59897e-06
1.68635e-06
1.77557e-06
1.86665e-06
1.95962e-06
2.05453e-06
2.15147e-06
2.25053e-06
2.35181e-06
2.45544e-06
2.56155e-06
2.67025e-06
2.78169e-06
2.89596e-06
3.01317e-06
3.13338e-06
3.2566e-06
3.38281e-06
3.51188e-06
3.64363e-06
3.77784e-06
3.91389e-06
4.05099e-06
4.18822e-06
4.3244e-06
4.45806e-06
4.58732e-06
4.71268e-06
4.8293e-06
4.93136e-06
5.01294e-06
5.07806e-06
5.13387e-06
5.16081e-06
5.15756e-06
5.12251e-06
5.05347e-06
4.94867e-06
4.80724e-06
4.62937e-06
4.41657e-06
4.17171e-06
3.89902e-06
3.60396e-06
3.29298e-06
2.97317e-06
2.65187e-06
2.33619e-06
2.03262e-06
1.7466e-06
1.48233e-06
1.24258e-06
1.02874e-06
8.40892e-07
6.78013e-07
5.38234e-07
4.19071e-07
3.1765e-07
2.30932e-07
1.56024e-07
9.11299e-08
3.83209e-08
6.9623e-09
4.66776e-11
1.13258e-12
1.76877e-10
1.08395e-09
2.86219e-09
5.21782e-09
7.88589e-09
1.07247e-08
1.36613e-08
1.66513e-08
1.96617e-08
2.26638e-08
2.56321e-08
2.85435e-08
3.13783e-08
3.41205e-08
3.6759e-08
3.92879e-08
4.17068e-08
4.40217e-08
4.62451e-08
4.83961e-08
5.05007e-08
5.25921e-08
5.47107e-08
5.69044e-08
5.92292e-08
6.17493e-08
6.45376e-08
6.76766e-08
7.12585e-08
7.53862e-08
8.01738e-08
8.57473e-08
9.22448e-08
9.98167e-08
1.08626e-07
1.18848e-07
1.30669e-07
1.44287e-07
1.59908e-07
1.77746e-07
1.9802e-07
2.20952e-07
2.46765e-07
2.75679e-07
3.07907e-07
3.43655e-07
3.83118e-07
4.26475e-07
4.73888e-07
5.255e-07
5.81428e-07
6.41767e-07
7.06582e-07
7.75905e-07
8.49738e-07
9.28045e-07
1.01076e-06
1.09777e-06
1.18894e-06
1.28416e-06
1.38322e-06
1.48593e-06
1.59208e-06
1.70149e-06
1.81395e-06
1.92929e-06
2.04736e-06
2.16799e-06
2.29112e-06
2.41667e-06
2.54459e-06
2.67496e-06
2.80783e-06
2.94331e-06
3.08154e-06
3.22267e-06
3.36693e-06
3.51453e-06
3.66574e-06
3.82083e-06
3.98008e-06
4.14378e-06
4.3122e-06
4.4856e-06
4.66419e-06
4.84814e-06
5.03751e-06
5.23228e-06
5.43227e-06
5.63712e-06
5.84614e-06
6.05858e-06
6.27336e-06
6.48895e-06
6.70336e-06
6.91427e-06
7.11862e-06
7.31751e-06
7.50103e-06
7.66287e-06
7.79468e-06
7.89641e-06
7.98558e-06
8.03115e-06
8.02911e-06
7.97767e-06
7.87401e-06
7.71569e-06
7.50144e-06
7.23164e-06
6.90851e-06
6.53622e-06
6.1209e-06
5.67046e-06
5.19431e-06
4.70289e-06
4.2071e-06
3.71769e-06
3.24461e-06
2.79648e-06
2.38014e-06
2.00037e-06
1.65982e-06
1.35912e-06
1.09713e-06
8.71217e-07
6.77636e-07
5.11894e-07
3.6921e-07
2.45244e-07
1.38327e-07
5.46199e-08
9.1728e-09
5.89183e-11
1.39119e-12
2.22731e-10
1.44266e-09
4.04481e-09
7.72874e-09
1.20665e-08
1.67719e-08
2.16824e-08
2.67001e-08
3.17572e-08
3.67995e-08
4.17804e-08
4.66592e-08
5.14011e-08
5.59782e-08
6.03704e-08
6.45667e-08
6.85655e-08
7.23757e-08
7.60173e-08
7.95208e-08
8.29287e-08
8.62946e-08
8.96841e-08
9.31752e-08
9.6858e-08
1.00836e-07
1.05227e-07
1.10161e-07
1.15787e-07
1.22268e-07
1.29784e-07
1.38533e-07
1.48731e-07
1.60612e-07
1.74427e-07
1.90446e-07
2.08953e-07
2.30245e-07
2.54629e-07
2.82422e-07
3.13941e-07
3.49504e-07
3.89421e-07
4.33993e-07
4.83505e-07
5.38219e-07
5.98375e-07
6.6418e-07
7.35811e-07
8.13405e-07
8.97059e-07
9.86832e-07
1.08274e-06
1.18475e-06
1.29276e-06
1.40666e-06
1.52627e-06
1.65136e-06
1.78167e-06
1.91691e-06
2.05678e-06
2.201e-06
2.34928e-06
2.50132e-06
2.6569e-06
2.8158e-06
2.97787e-06
3.14304e-06
3.31121e-06
3.48234e-06
3.65648e-06
3.83376e-06
4.01436e-06
4.19849e-06
4.38642e-06
4.57848e-06
4.77502e-06
4.97643e-06
5.18314e-06
5.3956e-06
5.61429e-06
5.83965e-06
6.07211e-06
6.31208e-06
6.55988e-06
6.81572e-06
7.07971e-06
7.35173e-06
7.63146e-06
7.91826e-06
8.21112e-06
8.50876e-06
8.80939e-06
9.11066e-06
9.40965e-06
9.70255e-06
9.98508e-06
1.02558e-05
1.05061e-05
1.07249e-05
1.09041e-05
1.10348e-05
1.11451e-05
1.12007e-05
1.11886e-05
1.11086e-05
1.09582e-05
1.07344e-05
1.04362e-05
1.00643e-05
9.62163e-06
9.11373e-06
8.54839e-06
7.93565e-06
7.28748e-06
6.61721e-06
5.93891e-06
5.26663e-06
4.61363e-06
3.99165e-06
3.41031e-06
2.87666e-06
2.39502e-06
1.96696e-06
1.59155e-06
1.2657e-06
9.84557e-07
7.42089e-07
5.31718e-07
3.47991e-07
1.90652e-07
7.1779e-08
1.14455e-08
7.1695e-11
1.66514e-12
2.70769e-10
1.82096e-09
5.34398e-09
1.06271e-08
1.70983e-08
2.42806e-08
3.18674e-08
3.9668e-08
4.7552e-08
5.54201e-08
6.31915e-08
7.07968e-08
7.81782e-08
8.52891e-08
9.20955e-08
9.85779e-08
1.04732e-07
1.1057e-07
1.16119e-07
1.21427e-07
1.26557e-07
1.31589e-07
1.36622e-07
1.41773e-07
1.47178e-07
1.5299e-07
1.59386e-07
1.66559e-07
1.74728e-07
1.84133e-07
1.95037e-07
2.07728e-07
2.22518e-07
2.39744e-07
2.59763e-07
2.82956e-07
3.09721e-07
3.4047e-07
3.75624e-07
4.15608e-07
4.60846e-07
5.11751e-07
5.68719e-07
6.32121e-07
7.02297e-07
7.79552e-07
8.64144e-07
9.56281e-07
1.05612e-06
1.16376e-06
1.27923e-06
1.40252e-06
1.53353e-06
1.67212e-06
1.81809e-06
1.97119e-06
2.13111e-06
2.2975e-06
2.47e-06
2.64819e-06
2.83166e-06
3.02004e-06
3.21297e-06
3.41011e-06
3.6112e-06
3.81603e-06
4.02446e-06
4.23645e-06
4.45195e-06
4.67101e-06
4.89376e-06
5.12044e-06
5.35134e-06
5.5868e-06
5.82724e-06
6.07313e-06
6.32499e-06
6.58339e-06
6.84896e-06
7.12232e-06
7.40412e-06
7.69498e-06
7.9955e-06
8.30614e-06
8.6273e-06
8.95916e-06
9.30172e-06
9.65464e-06
1.00173e-05
1.03885e-05
1.07668e-05
1.11499e-05
1.15352e-05
1.19192e-05
1.22977e-05
1.26657e-05
1.30176e-05
1.33482e-05
1.36481e-05
1.39118e-05
1.41236e-05
1.42676e-05
1.43754e-05
1.44259e-05
1.43877e-05
1.42646e-05
1.40548e-05
1.3756e-05
1.33673e-05
1.28901e-05
1.2328e-05
1.16874e-05
1.09775e-05
1.02098e-05
9.39817e-06
8.55802e-06
7.70588e-06
6.85841e-06
6.03164e-06
5.24004e-06
4.49578e-06
3.80819e-06
3.18336e-06
2.62411e-06
2.13004e-06
1.69793e-06
1.32217e-06
9.95411e-07
7.09643e-07
4.58931e-07
2.45723e-07
8.93326e-08
1.37616e-08
8.48835e-11
1.95382e-12
3.2098e-10
2.21569e-09
6.7305e-09
1.38319e-08
2.28581e-08
3.312e-08
4.41174e-08
5.55161e-08
6.7087e-08
7.86608e-08
9.01008e-08
1.01294e-07
1.12146e-07
1.22584e-07
1.32553e-07
1.42019e-07
1.50973e-07
1.59428e-07
1.67424e-07
1.75024e-07
1.82317e-07
1.89419e-07
1.96469e-07
2.03632e-07
2.11101e-07
2.19092e-07
2.27852e-07
2.37653e-07
2.48799e-07
2.61621e-07
2.76484e-07
2.9378e-07
3.13935e-07
3.37403e-07
3.64663e-07
3.9622e-07
4.32596e-07
4.74327e-07
5.21953e-07
5.76013e-07
6.37031e-07
7.05512e-07
7.81924e-07
8.66696e-07
9.60203e-07
1.06276e-06
1.17461e-06
1.29593e-06
1.42684e-06
1.56735e-06
1.71741e-06
1.8769e-06
2.04562e-06
2.22329e-06
2.40959e-06
2.60412e-06
2.80645e-06
3.01612e-06
3.23264e-06
3.45549e-06
3.68419e-06
3.91829e-06
4.15738e-06
4.40109e-06
4.64915e-06
4.90136e-06
5.1576e-06
5.41784e-06
5.68212e-06
5.95054e-06
6.22333e-06
6.50081e-06
6.78338e-06
7.07152e-06
7.36577e-06
7.66677e-06
7.97522e-06
8.29187e-06
8.61752e-06
8.95299e-06
9.29908e-06
9.65656e-06
1.00261e-05
1.04082e-05
1.08032e-05
1.12111e-05
1.16315e-05
1.20638e-05
1.25067e-05
1.29583e-05
1.34162e-05
1.38772e-05
1.43374e-05
1.4792e-05
1.52356e-05
1.56618e-05
1.60638e-05
1.64343e-05
1.67638e-05
1.70437e-05
1.7268e-05
1.74068e-05
1.74869e-05
1.75146e-05
1.74352e-05
1.72562e-05
1.69784e-05
1.65999e-05
1.61204e-05
1.55416e-05
1.48679e-05
1.41062e-05
1.32661e-05
1.23601e-05
1.1403e-05
1.04118e-05
9.40452e-06
8.39971e-06
7.41551e-06
6.46862e-06
5.57343e-06
4.74132e-06
3.98018e-06
3.29411e-06
2.68353e-06
2.14536e-06
1.67353e-06
1.25973e-06
8.94961e-07
5.73549e-07
3.01805e-07
1.07001e-07
1.61074e-08
9.83872e-11
2.25693e-12
3.73382e-10
2.62561e-09
8.18599e-09
1.72771e-08
2.9218e-08
4.31163e-08
5.82415e-08
7.40681e-08
9.02239e-08
1.06433e-07
1.2248e-07
1.38188e-07
1.53413e-07
1.6804e-07
1.81983e-07
1.9519e-07
2.07637e-07
2.19342e-07
2.30351e-07
2.40749e-07
2.50657e-07
2.60227e-07
2.6965e-07
2.79148e-07
2.88979e-07
2.99438e-07
3.10852e-07
3.23587e-07
3.38044e-07
3.54665e-07
3.73927e-07
3.96344e-07
4.22466e-07
4.52879e-07
4.88194e-07
5.2905e-07
5.76101e-07
6.30009e-07
6.91436e-07
7.61028e-07
8.39406e-07
9.2715e-07
1.02479e-06
1.13279e-06
1.25155e-06
1.38136e-06
1.52244e-06
1.67493e-06
1.83883e-06
2.0141e-06
2.20057e-06
2.398e-06
2.60606e-06
2.82436e-06
3.05244e-06
3.28978e-06
3.53583e-06
3.79002e-06
4.05175e-06
4.32042e-06
4.59547e-06
4.8764e-06
5.16273e-06
5.45407e-06
5.75014e-06
6.05071e-06
6.35568e-06
6.66502e-06
6.97881e-06
7.29721e-06
7.6205e-06
7.94909e-06
8.28347e-06
8.62425e-06
8.97213e-06
9.32791e-06
9.69247e-06
1.00667e-05
1.04517e-05
1.08484e-05
1.12576e-05
1.16803e-05
1.21171e-05
1.25685e-05
1.30344e-05
1.35144e-05
1.40079e-05
1.45132e-05
1.50283e-05
1.55504e-05
1.60759e-05
1.66004e-05
1.71187e-05
1.7625e-05
1.81125e-05
1.8574e-05
1.90017e-05
1.93871e-05
1.97213e-05
1.99958e-05
2.02033e-05
2.03155e-05
2.03525e-05
2.03398e-05
2.02092e-05
1.99667e-05
1.96173e-05
1.91601e-05
1.85952e-05
1.79245e-05
1.71525e-05
1.62862e-05
1.53353e-05
1.43123e-05
1.32326e-05
1.21136e-05
1.09743e-05
9.83441e-06
8.71366e-06
7.63047e-06
6.60113e-06
5.63888e-06
4.75324e-06
3.94967e-06
3.22949e-06
2.58996e-06
2.02482e-06
1.52509e-06
1.08122e-06
6.88434e-07
3.57725e-07
1.24616e-07
1.84726e-08
1.12134e-10
2.57438e-12
4.28011e-10
3.05042e-09
9.69997e-09
2.09143e-08
3.60644e-08
5.40877e-08
7.40033e-08
9.50544e-08
1.16682e-07
1.38468e-07
1.60082e-07
1.81262e-07
2.01791e-07
2.215e-07
2.40261e-07
2.5799e-07
2.74652e-07
2.90255e-07
3.04858e-07
3.18564e-07
3.31527e-07
3.43947e-07
3.56068e-07
3.6818e-07
3.80618e-07
3.93763e-07
4.0804e-07
4.23916e-07
4.41909e-07
4.62579e-07
4.8653e-07
5.14412e-07
5.46914e-07
5.84759e-07
6.28703e-07
6.79524e-07
7.38011e-07
8.04955e-07
8.81133e-07
9.67298e-07
1.06416e-06
1.17236e-06
1.29248e-06
1.42501e-06
1.57034e-06
1.72875e-06
1.9004e-06
2.08535e-06
2.28354e-06
2.49481e-06
2.71889e-06
2.95541e-06
3.20394e-06
3.46394e-06
3.73485e-06
4.01602e-06
4.3068e-06
4.6065e-06
4.91443e-06
5.2299e-06
5.55227e-06
5.88094e-06
6.21538e-06
6.55516e-06
6.89991e-06
7.24938e-06
7.60344e-06
7.96204e-06
8.32525e-06
8.69328e-06
9.06646e-06
9.44527e-06
9.8303e-06
1.02223e-05
1.06222e-05
1.10309e-05
1.14494e-05
1.18791e-05
1.23209e-05
1.2776e-05
1.32453e-05
1.37297e-05
1.42297e-05
1.47454e-05
1.52765e-05
1.58216e-05
1.63795e-05
1.69475e-05
1.75224e-05
1.80998e-05
1.86755e-05
1.92446e-05
1.98005e-05
2.03361e-05
2.08438e-05
2.13155e-05
2.17436e-05
2.21192e-05
2.24342e-05
2.26809e-05
2.2852e-05
2.29257e-05
2.28943e-05
2.28341e-05
2.26495e-05
2.23412e-05
2.1922e-05
2.13916e-05
2.07506e-05
2.0001e-05
1.91469e-05
1.8195e-05
1.71544e-05
1.60374e-05
1.48588e-05
1.36361e-05
1.23886e-05
1.11367e-05
9.90107e-06
8.70161e-06
7.55616e-06
6.47962e-06
5.48312e-06
4.57348e-06
3.75295e-06
3.01929e-06
2.3662e-06
1.7843e-06
1.26379e-06
8.01236e-07
4.12738e-07
1.42078e-07
2.085e-08
1.26073e-10
2.90628e-12
4.84923e-10
3.49039e-09
1.12674e-08
2.47109e-08
4.33064e-08
6.58674e-08
9.11584e-08
1.18164e-07
1.461e-07
1.74365e-07
2.02486e-07
2.30083e-07
2.56847e-07
2.82535e-07
3.06962e-07
3.30003e-07
3.51598e-07
3.71746e-07
3.90511e-07
4.08019e-07
4.24458e-07
4.40077e-07
4.55182e-07
4.70137e-07
4.85364e-07
5.0134e-07
5.18595e-07
5.37718e-07
5.5935e-07
5.84186e-07
6.12971e-07
6.465e-07
6.85611e-07
7.31177e-07
7.84103e-07
8.45311e-07
9.15729e-07
9.96275e-07
1.08784e-06
1.19129e-06
1.30739e-06
1.43687e-06
1.58033e-06
1.73828e-06
1.91109e-06
2.09901e-06
2.30216e-06
2.52051e-06
2.75392e-06
3.00211e-06
3.26472e-06
3.54127e-06
3.83118e-06
4.13383e-06
4.44852e-06
4.77449e-06
5.11097e-06
5.45715e-06
5.81223e-06
6.17541e-06
6.54594e-06
6.92311e-06
7.30629e-06
7.69492e-06
8.08856e-06
8.48688e-06
8.88965e-06
9.2968e-06
9.70839e-06
1.01246e-05
1.05459e-05
1.09728e-05
1.14061e-05
1.18466e-05
1.22955e-05
1.27539e-05
1.32232e-05
1.37046e-05
1.41994e-05
1.47089e-05
1.52337e-05
1.57747e-05
1.6332e-05
1.69051e-05
1.74932e-05
1.80937e-05
1.87024e-05
1.93174e-05
1.99357e-05
2.05529e-05
2.11616e-05
2.17549e-05
2.23259e-05
2.28671e-05
2.33711e-05
2.38301e-05
2.4236e-05
2.45815e-05
2.48582e-05
2.50587e-05
2.51774e-05
2.5203e-05
2.51085e-05
2.49641e-05
2.47413e-05
2.43703e-05
2.38864e-05
2.32913e-05
2.25857e-05
2.17714e-05
2.08521e-05
1.98336e-05
1.8724e-05
1.75348e-05
1.628e-05
1.49765e-05
1.36433e-05
1.23011e-05
1.09712e-05
9.67447e-06
8.43014e-06
7.25469e-06
6.16082e-06
5.15671e-06
4.24565e-06
3.42602e-06
2.69159e-06
2.03275e-06
1.4397e-06
9.1049e-07
4.66414e-07
1.59335e-07
2.3236e-08
1.40176e-10
3.2529e-12
5.4419e-10
3.9461e-09
1.28865e-08
2.86469e-08
5.08781e-08
7.83165e-08
1.09482e-07
1.43086e-07
1.78086e-07
2.13664e-07
2.4917e-07
2.8408e-07
3.17969e-07
3.50497e-07
3.81409e-07
4.10525e-07
4.37749e-07
4.63066e-07
4.8654e-07
5.08317e-07
5.2862e-07
5.47749e-07
5.66077e-07
5.8405e-07
6.02183e-07
6.2106e-07
6.41331e-07
6.63713e-07
6.88986e-07
7.17991e-07
7.51628e-07
7.90847e-07
8.36646e-07
8.90059e-07
9.52144e-07
1.02397e-06
1.10661e-06
1.20112e-06
1.30849e-06
1.42968e-06
1.56556e-06
1.71688e-06
1.8843e-06
2.06832e-06
2.2693e-06
2.48746e-06
2.72285e-06
2.97538e-06
3.2448e-06
3.53077e-06
3.83278e-06
4.15025e-06
4.4825e-06
4.82877e-06
5.18823e-06
5.56e-06
5.94318e-06
6.33682e-06
6.73996e-06
7.15166e-06
7.571e-06
7.99712e-06
8.42923e-06
8.86662e-06
9.30871e-06
9.75503e-06
1.02053e-05
1.06593e-05
1.11172e-05
1.15791e-05
1.20456e-05
1.25174e-05
1.29953e-05
1.34806e-05
1.39745e-05
1.44786e-05
1.49943e-05
1.55231e-05
1.60662e-05
1.6625e-05
1.71998e-05
1.77908e-05
1.83984e-05
1.90199e-05
1.96503e-05
2.02916e-05
2.09419e-05
2.15943e-05
2.22424e-05
2.28796e-05
2.34997e-05
2.40956e-05
2.46598e-05
2.51852e-05
2.56644e-05
2.60902e-05
2.64558e-05
2.67545e-05
2.69802e-05
2.71267e-05
2.71873e-05
2.7155e-05
2.6997e-05
2.67698e-05
2.6484e-05
2.60741e-05
2.55328e-05
2.48823e-05
2.41238e-05
2.32585e-05
2.22898e-05
2.12222e-05
2.00626e-05
1.88209e-05
1.75102e-05
1.61464e-05
1.47477e-05
1.33347e-05
1.19289e-05
1.05519e-05
9.22413e-06
7.96364e-06
6.78464e-06
5.69677e-06
4.7045e-06
3.80688e-06
2.99797e-06
2.26804e-06
1.60732e-06
1.01542e-06
5.18553e-07
1.76372e-07
2.56298e-08
1.54434e-10
3.61465e-12
6.05902e-10
4.41831e-09
1.45579e-08
3.27123e-08
5.87356e-08
9.1328e-08
1.28784e-07
1.69536e-07
2.12262e-07
2.55896e-07
2.99583e-07
3.42625e-07
3.84457e-07
4.24627e-07
4.62786e-07
4.9869e-07
5.32195e-07
5.63262e-07
5.91951e-07
6.18422e-07
6.42935e-07
6.65842e-07
6.87586e-07
7.087e-07
7.298e-07
7.51588e-07
7.74841e-07
8.00418e-07
8.29251e-07
8.62341e-07
9.00751e-07
9.45604e-07
9.98065e-07
1.05934e-06
1.13064e-06
1.2132e-06
1.30823e-06
1.41692e-06
1.54038e-06
1.67966e-06
1.8357e-06
2.00933e-06
2.20121e-06
2.41186e-06
2.64163e-06
2.8907e-06
3.15906e-06
3.44654e-06
3.75282e-06
4.07744e-06
4.4198e-06
4.77919e-06
5.1548e-06
5.54574e-06
5.95105e-06
6.36968e-06
6.80055e-06
7.24254e-06
7.6945e-06
8.15527e-06
8.62373e-06
9.0988e-06
9.57947e-06
1.00648e-05
1.05541e-05
1.10467e-05
1.15422e-05
1.20404e-05
1.25414e-05
1.30455e-05
1.35533e-05
1.40657e-05
1.4584e-05
1.51096e-05
1.5644e-05
1.6189e-05
1.67464e-05
1.73177e-05
1.7904e-05
1.85069e-05
1.91253e-05
1.9759e-05
2.04014e-05
2.10576e-05
2.17299e-05
2.24075e-05
2.30839e-05
2.37547e-05
2.44132e-05
2.50524e-05
2.56655e-05
2.62452e-05
2.67845e-05
2.72765e-05
2.77147e-05
2.8093e-05
2.84054e-05
2.86467e-05
2.8812e-05
2.88963e-05
2.88957e-05
2.88067e-05
2.85965e-05
2.82957e-05
2.79464e-05
2.74763e-05
2.68998e-05
2.62028e-05
2.5402e-05
2.44977e-05
2.3493e-05
2.23913e-05
2.11976e-05
1.99204e-05
1.85713e-05
1.71647e-05
1.57179e-05
1.42509e-05
1.2785e-05
1.13424e-05
9.94468e-06
8.6111e-06
7.35755e-06
6.19525e-06
5.12995e-06
4.1616e-06
3.28464e-06
2.48936e-06
1.76609e-06
1.11577e-06
5.69119e-07
1.93205e-07
2.80338e-08
1.68854e-10
3.99203e-12
6.70162e-10
4.90793e-09
1.62837e-08
3.69037e-08
6.68534e-08
1.04825e-07
1.48918e-07
1.97279e-07
2.48293e-07
3.00626e-07
3.53189e-07
4.05089e-07
4.55597e-07
5.04127e-07
5.50223e-07
5.93559e-07
6.33934e-07
6.71275e-07
7.0563e-07
7.37173e-07
7.66194e-07
7.931e-07
8.18407e-07
8.42738e-07
8.66819e-07
8.91475e-07
9.17626e-07
9.46281e-07
9.78537e-07
1.01557e-06
1.05862e-06
1.10898e-06
1.16802e-06
1.2371e-06
1.31762e-06
1.41097e-06
1.51851e-06
1.64155e-06
1.78134e-06
1.93901e-06
2.11559e-06
2.31196e-06
2.52881e-06
2.76667e-06
3.02588e-06
3.30657e-06
3.60869e-06
3.93199e-06
4.27606e-06
4.64033e-06
5.02409e-06
5.4265e-06
5.8466e-06
6.28334e-06
6.73557e-06
7.20207e-06
7.68152e-06
8.17258e-06
8.67382e-06
9.18384e-06
9.70123e-06
1.02246e-05
1.07528e-05
1.12845e-05
1.18189e-05
1.23551e-05
1.28927e-05
1.34314e-05
1.39714e-05
1.45133e-05
1.50577e-05
1.56061e-05
1.61599e-05
1.67208e-05
1.72909e-05
1.7872e-05
1.84664e-05
1.90755e-05
1.96994e-05
2.03412e-05
2.0989e-05
2.16519e-05
2.23348e-05
2.30251e-05
2.37225e-05
2.44197e-05
2.51076e-05
2.5782e-05
2.64355e-05
2.7061e-05
2.76516e-05
2.82003e-05
2.87007e-05
2.91468e-05
2.95331e-05
2.98545e-05
3.01065e-05
3.02849e-05
3.03861e-05
3.04063e-05
3.03424e-05
3.01921e-05
2.99319e-05
2.95673e-05
2.91699e-05
2.86534e-05
2.80327e-05
2.73029e-05
2.64634e-05
2.55295e-05
2.44994e-05
2.33754e-05
2.21606e-05
2.08615e-05
1.9488e-05
1.80531e-05
1.65728e-05
1.50658e-05
1.35532e-05
1.20576e-05
1.0601e-05
9.20442e-06
7.88517e-06
6.6562e-06
5.52474e-06
4.49183e-06
3.55248e-06
2.69712e-06
1.91617e-06
1.21167e-06
6.18197e-07
2.0987e-07
3.04526e-08
1.83462e-10
4.3857e-12
7.37091e-10
5.41599e-09
1.80667e-08
4.1223e-08
7.52189e-08
1.1876e-07
1.69777e-07
2.26128e-07
2.85903e-07
3.47479e-07
4.09514e-07
4.70897e-07
5.30717e-07
5.88233e-07
6.42869e-07
6.94201e-07
7.41962e-07
7.86032e-07
8.26446e-07
8.63381e-07
8.97159e-07
9.28239e-07
9.57211e-07
9.84795e-07
1.01183e-06
1.03928e-06
1.0682e-06
1.09979e-06
1.1353e-06
1.1761e-06
1.22362e-06
1.27937e-06
1.34488e-06
1.42171e-06
1.51144e-06
1.61563e-06
1.73579e-06
1.87337e-06
2.02974e-06
2.20615e-06
2.40368e-06
2.62327e-06
2.86567e-06
3.1314e-06
3.42079e-06
3.73393e-06
4.07071e-06
4.43081e-06
4.81372e-06
5.21876e-06
5.64507e-06
6.09167e-06
6.55743e-06
7.04108e-06
7.54127e-06
8.05651e-06
8.58522e-06
9.12573e-06
9.67633e-06
1.02352e-05
1.08008e-05
1.13712e-05
1.19449e-05
1.25206e-05
1.3097e-05
1.36733e-05
1.42489e-05
1.48237e-05
1.5398e-05
1.59726e-05
1.65486e-05
1.71278e-05
1.77121e-05
1.83037e-05
1.89046e-05
1.95174e-05
2.0144e-05
2.07867e-05
2.14373e-05
2.21054e-05
2.2788e-05
2.34868e-05
2.41954e-05
2.49018e-05
2.56131e-05
2.63196e-05
2.70066e-05
2.76718e-05
2.83077e-05
2.89072e-05
2.94638e-05
2.99712e-05
3.04238e-05
3.08166e-05
3.11451e-05
3.14056e-05
3.15944e-05
3.17087e-05
3.17458e-05
3.1703e-05
3.15774e-05
3.1367e-05
3.1062e-05
3.0645e-05
3.01835e-05
2.96333e-05
2.8972e-05
2.82325e-05
2.7367e-05
2.63961e-05
2.53474e-05
2.42097e-05
2.29832e-05
2.16723e-05
2.02854e-05
1.88337e-05
1.73313e-05
1.57959e-05
1.42479e-05
1.27094e-05
1.12035e-05
9.75206e-06
8.37433e-06
7.08496e-06
5.89288e-06
4.80042e-06
3.80338e-06
2.89248e-06
2.05824e-06
1.3035e-06
6.65951e-07
2.26422e-07
3.28936e-08
1.98294e-10
4.79639e-12
8.06824e-10
5.94361e-09
1.99107e-08
4.56753e-08
8.38303e-08
1.33109e-07
1.91292e-07
2.55953e-07
3.2488e-07
3.96153e-07
4.6816e-07
5.39554e-07
6.09223e-07
6.76259e-07
7.39946e-07
7.99755e-07
8.55337e-07
9.06523e-07
9.5332e-07
9.9591e-07
1.03464e-06
1.07002e-06
1.10272e-06
1.13356e-06
1.1635e-06
1.19363e-06
1.22519e-06
1.25954e-06
1.29813e-06
1.34253e-06
1.39438e-06
1.45538e-06
1.52728e-06
1.61183e-06
1.7108e-06
1.82592e-06
1.95886e-06
2.11123e-06
2.28451e-06
2.48004e-06
2.69902e-06
2.94243e-06
3.21104e-06
3.50541e-06
3.82583e-06
4.17237e-06
4.54484e-06
4.94285e-06
5.36577e-06
5.81277e-06
6.28286e-06
6.77485e-06
7.28739e-06
7.81899e-06
8.368e-06
8.93262e-06
9.51092e-06
1.01009e-05
1.07004e-05
1.13072e-05
1.19194e-05
1.25347e-05
1.31513e-05
1.37676e-05
1.43823e-05
1.49942e-05
1.56031e-05
1.62089e-05
1.68123e-05
1.74143e-05
1.80167e-05
1.86217e-05
1.92317e-05
1.98496e-05
2.04773e-05
2.11173e-05
2.17716e-05
2.24377e-05
2.31108e-05
2.38137e-05
2.45243e-05
2.52453e-05
2.59709e-05
2.66878e-05
2.73977e-05
2.81068e-05
2.87827e-05
2.9429e-05
3.00381e-05
3.06035e-05
3.11191e-05
3.15796e-05
3.19803e-05
3.23172e-05
3.25867e-05
3.27862e-05
3.29131e-05
3.29646e-05
3.29387e-05
3.28337e-05
3.26477e-05
3.23799e-05
3.20284e-05
3.15693e-05
3.10459e-05
3.04676e-05
2.97766e-05
2.89948e-05
2.81392e-05
2.71572e-05
2.6079e-05
2.49274e-05
2.36952e-05
2.23795e-05
2.09869e-05
1.95269e-05
1.80115e-05
1.64569e-05
1.48823e-05
1.33095e-05
1.17619e-05
1.02625e-05
8.83212e-06
7.48732e-06
6.23892e-06
5.09081e-06
4.0398e-06
3.07709e-06
2.1933e-06
1.39181e-06
7.12602e-07
2.42928e-07
3.53653e-08
2.13399e-10
5.22495e-12
8.7951e-10
6.49201e-09
2.18199e-08
5.02687e-08
9.26941e-08
1.47865e-07
2.13428e-07
2.86669e-07
3.65077e-07
4.46426e-07
5.2882e-07
6.10663e-07
6.90628e-07
7.67625e-07
8.40788e-07
9.09469e-07
9.7323e-07
1.03184e-06
1.08528e-06
1.13373e-06
1.17756e-06
1.21733e-06
1.25378e-06
1.28785e-06
1.32061e-06
1.35331e-06
1.38737e-06
1.42433e-06
1.46584e-06
1.51369e-06
1.56974e-06
1.6359e-06
1.71414e-06
1.80644e-06
1.91473e-06
2.04094e-06