/*--------------------------------*- C++ -*----------------------------------*\
  =========                 |
  \\      /  F ield         | OpenFOAM: The Open Source CFD Toolbox
   \\    /   O peration     | Website:  https://openfoam.org
    \\  /    A nd           | Version:  12
     \\/     M anipulation  |
\*---------------------------------------------------------------------------*/
FoamFile
{
    format      ascii;
    class       volScalarField;
    location    "4";
    object      p;
}
// * * * * * * * * * * * * * * * * * * * * * * * * * * * * * * * * * * * * * //

dimensions      [0 2 -2 0 0 0 0];

internalField   nonuniform List<scalar> 
18225
(
-2.58018e-09
8.52717e-06
2.46682e-05
4.52335e-05
6.71958e-05
8.84341e-05
0.000107303
0.000122522
0.000133111
0.00013833
0.000137656
0.000130744
0.000117414
9.76178e-05
7.14342e-05
3.90429e-05
7.13084e-07
-4.3216e-05
-9.2349e-05
-0.000146254
-0.000204477
-0.000266564
-0.00033207
-0.000400569
-0.000471657
-0.000544963
-0.000620192
-0.000697123
-0.000775614
-0.000855592
-0.000937062
-0.00102011
-0.0011049
-0.00119169
-0.00128083
-0.00137275
-0.00146797
-0.0015671
-0.00167081
-0.00177989
-0.00189518
-0.00201758
-0.00214807
-0.00228769
-0.00243754
-0.00259873
-0.00277246
-0.00295993
-0.00316239
-0.00338113
-0.00361746
-0.00387271
-0.00414826
-0.0044455
-0.00476587
-0.00511079
-0.00548171
-0.00588006
-0.00630727
-0.00676467
-0.00725351
-0.00777493
-0.00832985
-0.00891896
-0.00954264
-0.0102009
-0.0108931
-0.0116184
-0.0123749
-0.0131602
-0.0139711
-0.0148032
-0.0156515
-0.0165094
-0.0173694
-0.018223
-0.01906
-0.0198692
-0.0206382
-0.0213534
-0.022
-0.0225624
-0.023024
-0.0233677
-0.023576
-0.0236313
-0.0235161
-0.0232136
-0.0227076
-0.0219833
-0.0210277
-0.0198297
-0.0183808
-0.0166757
-0.0147124
-0.0124926
-0.0100221
-0.00731552
-0.00439028
-0.00125893
0.00204865
0.00549391
0.00904262
0.0126516
0.0162737
0.0198585
0.0233537
0.0267062
0.029864
0.0327783
0.0354052
0.037708
0.039659
0.0412408
0.0424475
0.0432853
0.0437719
0.0439359
0.043815
0.0434537
0.0429009
0.0422074
0.0414227
0.0405934
0.0397611
0.0389612
0.0382227
0.0375682
0.037015
0.0365748
0.0362562
0.0360637
0.0359953
0.036038
0.0361378
6.31639e-07
8.20296e-06
2.2598e-05
4.10667e-05
6.08358e-05
7.99708e-05
9.69257e-05
0.000110476
0.000119664
0.000123761
0.000122241
0.000114752
0.000101098
8.12157e-05
5.51622e-05
2.30957e-05
-1.47392e-05
-5.80278e-05
-0.000106401
-0.000159451
-0.000216751
-0.000277869
-0.000342386
-0.000409896
-0.000480013
-0.000552383
-0.000626725
-0.000702834
-0.000780575
-0.000859884
-0.000940767
-0.00102331
-0.00110768
-0.00119414
-0.00128301
-0.00137471
-0.00146976
-0.00156875
-0.00167233
-0.00178126
-0.00189636
-0.00201851
-0.00214865
-0.0022878
-0.00243701
-0.00259739
-0.00277008
-0.00295626
-0.00315715
-0.003374
-0.00360809
-0.00386072
-0.00413325
-0.00442702
-0.00474344
-0.00508391
-0.00544984
-0.00584264
-0.00626368
-0.00671426
-0.00719565
-0.00770894
-0.00825504
-0.00883461
-0.00944803
-0.0100953
-0.0107759
-0.0114889
-0.0122326
-0.0130046
-0.0138018
-0.0146199
-0.0154539
-0.0162976
-0.0171436
-0.0179835
-0.0188073
-0.0196041
-0.0203617
-0.0210667
-0.0217044
-0.0222596
-0.0227159
-0.0230563
-0.0232637
-0.0233205
-0.0232095
-0.0229139
-0.0224178
-0.0217064
-0.0207668
-0.019588
-0.0181616
-0.0164822
-0.0145477
-0.0123599
-0.00992423
-0.00725646
-0.004372
-0.00128006
0.00198186
0.00538112
0.0088834
0.0124459
0.0160222
0.0195628
0.0230161
0.02633
0.0294537
0.032339
0.0349431
0.0372301
0.0391727
0.0407541
0.0419687
0.0428223
0.0433325
0.0435271
0.0434429
0.0431231
0.0426155
0.0419691
0.041232
0.0404495
0.0396618
0.0389031
0.0382014
0.0375785
0.037051
0.03663
0.0363227
0.0361326
0.0360567
0.0360836
0.0361684
-4.10602e-07
6.56516e-06
1.94408e-05
3.59124e-05
5.35212e-05
7.05189e-05
8.54913e-05
9.72885e-05
0.000104991
0.000107888
0.000105455
9.73348e-05
8.33187e-05
6.33279e-05
3.73984e-05
5.66558e-06
-3.16509e-05
-7.42623e-05
-0.000121826
-0.000173962
-0.000230269
-0.000290341
-0.000353783
-0.000420213
-0.000489263
-0.000560598
-0.000633952
-0.000709134
-0.00078602
-0.000864553
-0.000944744
-0.00102668
-0.00111052
-0.00119652
-0.001285
-0.00137637
-0.00147112
-0.00156982
-0.00167312
-0.00178174
-0.00189646
-0.00201814
-0.0021477
-0.00228612
-0.00243441
-0.00259364
-0.00276492
-0.00294939
-0.00314824
-0.00336267
-0.00359394
-0.00384331
-0.00411209
-0.00440161
-0.00471322
-0.0050483
-0.00540821
-0.00579433
-0.00620798
-0.00665052
-0.00712313
-0.00762686
-0.00816263
-0.00873113
-0.00933274
-0.00996747
-0.0106349
-0.0113341
-0.0120634
-0.0128207
-0.0136027
-0.0144057
-0.0152245
-0.0160533
-0.0168848
-0.0177107
-0.0185214
-0.0193063
-0.0200533
-0.0207492
-0.0213798
-0.0219299
-0.0223833
-0.0227234
-0.022933
-0.0229949
-0.022892
-0.0226075
-0.0221257
-0.0214318
-0.020513
-0.0193582
-0.017959
-0.0163099
-0.0144088
-0.0122572
-0.00986064
-0.00723588
-0.00439205
-0.0013441
0.00186963
0.0052221
0.00867741
0.0121935
0.0157247
0.0192223
0.0226357
0.0259134
0.0290055
0.0318647
0.0344488
0.0367225
0.0386591
0.040242
0.0414657
0.0423361
0.0428702
0.0430954
0.0430476
0.0427691
0.0423063
0.041707
0.0410181
0.0402832
0.0395413
0.0388256
0.0381628
0.0375736
0.0370738
0.0366736
0.036379
0.0361926
0.0361108
0.0361265
0.0362057
-3.72705e-06
3.33257e-06
1.53935e-05
3.05098e-05
4.65297e-05
6.18768e-05
7.5265e-05
8.56262e-05
9.20889e-05
9.3967e-05
9.07471e-05
8.2072e-05
6.77261e-05
4.76191e-05
2.1772e-05
-9.69776e-06
-4.65902e-05
-8.86377e-05
-0.00013552
-0.000186878
-0.000242332
-0.000301499
-0.000364003
-0.000429482
-0.000497581
-0.000567984
-0.000640436
-0.000714758
-0.000790836
-0.000868616
-0.000948113
-0.00102941
-0.00111268
-0.00119815
-0.00128614
-0.00137706
-0.00147137
-0.00156962
-0.00167245
-0.00178055
-0.00189468
-0.00201568
-0.00214442
-0.00228186
-0.00242897
-0.0025868
-0.00275641
-0.00293892
-0.00313548
-0.00334726
-0.00357547
-0.00382134
-0.00408616
-0.00437122
-0.00467783
-0.00500733
-0.00536107
-0.00574042
-0.00614668
-0.00658115
-0.00704501
-0.00753933
-0.00806504
-0.00862283
-0.00921312
-0.00983599
-0.0104911
-0.0111775
-0.0118939
-0.0126379
-0.0134068
-0.0141968
-0.015003
-0.0158196
-0.0166398
-0.0174553
-0.018257
-0.0190341
-0.0197751
-0.0204668
-0.0210952
-0.0216453
-0.0221011
-0.0224461
-0.0226633
-0.0227354
-0.0226453
-0.0223764
-0.0219128
-0.0212399
-0.0203445
-0.0192157
-0.0178448
-0.0162262
-0.0143576
-0.0122405
-0.00988033
-0.00729205
-0.00448309
-0.00147556
0.00170004
0.00501523
0.00843407
0.0119153
0.0154136
0.018881
0.0222673
0.0255217
0.0285945
0.0314389
0.034013
0.0362817
0.0382184
0.0398066
0.0410406
0.0419262
0.0424802
0.0427296
0.0427099
0.0424628
0.0420341
0.0414709
0.0408193
0.0401218
0.0394167
0.0387359
0.0381054
0.0375449
0.0370688
0.0366868
0.036404
0.0362224
0.0361386
0.0361511
0.0362341
-9.06859e-06
-1.26844e-06
1.05825e-05
2.48687e-05
3.97705e-05
5.38734e-05
6.60139e-05
7.52091e-05
8.06414e-05
8.16566e-05
7.7757e-05
6.85915e-05
5.39423e-05
3.37124e-05
7.91202e-06
-2.33546e-05
-5.9903e-05
-0.000101482
-0.000147789
-0.000198483
-0.000253202
-0.00031158
-0.000373259
-0.00043789
-0.000505134
-0.000574684
-0.0006463
-0.000719811
-0.000795108
-0.000872145
-0.000950938
-0.00103157
-0.0011142
-0.00119907
-0.00128648
-0.00137682
-0.00147055
-0.0015682
-0.00167038
-0.00177777
-0.00189111
-0.00201119
-0.00213888
-0.00227509
-0.00242078
-0.00257695
-0.00274464
-0.00292493
-0.00311893
-0.00332779
-0.00355267
-0.0037948
-0.0040554
-0.00433575
-0.00463712
-0.00496083
-0.00530823
-0.00568063
-0.00607937
-0.00650568
-0.00696076
-0.00744573
-0.00796152
-0.00850889
-0.0090883
-0.00969991
-0.0103435
-0.0110182
-0.0117228
-0.0124553
-0.0132129
-0.0139921
-0.0147882
-0.0155957
-0.0164078
-0.0172168
-0.0180134
-0.0187874
-0.019527
-0.0202196
-0.0208513
-0.021407
-0.0218709
-0.0222265
-0.0224567
-0.0225444
-0.0224724
-0.022224
-0.0217832
-0.0211351
-0.0202666
-0.0191664
-0.0178257
-0.0162386
-0.0144026
-0.0123189
-0.00999299
-0.00743735
-0.00466208
-0.00168872
0.00145516
0.00474008
0.00813053
0.0115858
0.0150611
0.0185086
0.0218786
0.0251205
0.0281848
0.0310248
0.0335984
0.0358705
0.0378143
0.0394129
0.0406605
0.0415626
0.0421356
0.0424063
0.0424099
0.042188
0.0417862
0.0412513
0.0406288
0.0399611
0.0392855
0.0386334
0.0380298
0.0374937
0.0370383
0.0366724
0.0364006
0.0362243
0.0361414
0.0361551
0.036245
-1.59001e-05
-6.94989e-06
5.14721e-06
1.8998e-05
3.3137e-05
4.63044e-05
5.74552e-05
6.56923e-05
7.02554e-05
7.05267e-05
6.60289e-05
5.64207e-05
4.14865e-05
2.11262e-05
-4.65702e-06
-3.57685e-05
-7.20357e-05
-0.000113221
-0.000159034
-0.00020915
-0.000263222
-0.000320898
-0.000381833
-0.00044569
-0.000512142
-0.000580894
-0.000651714
-0.000724438
-0.000798966
-0.000875252
-0.000953314
-0.00103324
-0.00111517
-0.00119936
-0.00128608
-0.00137573
-0.00146874
-0.00156563
-0.001667
-0.00177349
-0.00188583
-0.00200479
-0.00213121
-0.00226596
-0.00240998
-0.00256424
-0.00272975
-0.00290754
-0.00309871
-0.00330437
-0.00352565
-0.00376374
-0.00401983
-0.00429517
-0.00459102
-0.00490867
-0.00524947
-0.00561468
-0.00600564
-0.00642361
-0.00686983
-0.00734542
-0.00785138
-0.00838852
-0.0089574
-0.00955827
-0.010191
-0.010855
-0.0115492
-0.0122716
-0.0130199
-0.0137905
-0.0145793
-0.0153807
-0.0161884
-0.0169947
-0.0177906
-0.0185661
-0.0193096
-0.0200086
-0.0206491
-0.0212162
-0.0216941
-0.0220663
-0.0223156
-0.0224247
-0.0223764
-0.0221537
-0.0217404
-0.0211216
-0.0202837
-0.0192153
-0.0179073
-0.0163537
-0.0145514
-0.0125015
-0.0102091
-0.00768526
-0.0049418
-0.00199893
0.00111701
0.00437628
0.00774383
0.0111796
0.0146389
0.0180744
0.0214365
0.0246748
0.0277397
0.0305843
0.0331663
0.0354502
0.0374086
0.0390243
0.0402907
0.0412129
0.041807
0.0420996
0.0421255
0.0419266
0.0415482
0.0410371
0.0404391
0.0397961
0.0391453
0.0385174
0.037937
0.0374221
0.0369851
0.0366338
0.0363722
0.0362016
0.0361208
0.0361369
0.0362333
-2.38219e-05
-1.34384e-05
-7.54077e-07
1.29806e-05
2.66531e-05
3.91474e-05
4.95318e-05
5.69925e-05
6.08287e-05
6.04613e-05
5.5437e-05
4.54277e-05
3.02235e-05
9.72458e-06
-1.60693e-05
-4.70702e-05
-8.31137e-05
-0.000123972
-0.000169367
-0.000218983
-0.000272487
-0.000329537
-0.000389799
-0.000452948
-0.000518665
-0.000586664
-0.00065672
-0.000728677
-0.000802438
-0.000877961
-0.000955263
-0.00103443
-0.00111561
-0.00119902
-0.00128496
-0.0013738
-0.00146596
-0.00156195
-0.00166234
-0.00176776
-0.00187891
-0.00199655
-0.00212147
-0.00225454
-0.00239666
-0.00254876
-0.00271183
-0.00288688
-0.00307496
-0.00327714
-0.00349454
-0.00372831
-0.00397962
-0.00424968
-0.00453974
-0.00485108
-0.005185
-0.00554282
-0.00592584
-0.00633538
-0.00677271
-0.00723899
-0.0077353
-0.00826255
-0.00882141
-0.00941228
-0.0100352
-0.0106898
-0.011375
-0.0120894
-0.0128306
-0.0135955
-0.0143801
-0.0151792
-0.0159865
-0.0167947
-0.017595
-0.0183773
-0.0191305
-0.0198418
-0.0204974
-0.0210823
-0.0215808
-0.0219759
-0.0222506
-0.0223872
-0.0223683
-0.0221766
-0.0217959
-0.0212107
-0.0204073
-0.0193741
-0.0181015
-0.0165832
-0.014816
-0.0128005
-0.0105415
-0.00804915
-0.00533579
-0.00242099
0.000669922
0.00390727
0.00725639
0.0106779
0.0141275
0.0175578
0.0209195
0.0241622
0.0272362
0.0300942
0.0326935
0.0349978
0.0369792
0.0386194
0.0399113
0.0408591
0.0414785
0.0417956
0.0418452
0.041669
0.0413127
0.0408233
0.0402466
0.039625
0.0389953
0.0383883
0.0378279
0.0373314
0.0369107
0.0365724
0.0363203
0.0361553
0.0360769
0.0360953
0.0361961
-3.25022e-05
-2.04937e-05
-6.96358e-06
6.91976e-06
2.03788e-05
3.24298e-05
4.22468e-05
4.90958e-05
5.2335e-05
5.14251e-05
4.59398e-05
3.55667e-05
2.0105e-05
-5.41935e-07
-2.63747e-05
-5.73087e-05
-9.31847e-05
-0.000133782
-0.000178829
-0.000228021
-0.000281031
-0.000337528
-0.000397188
-0.00045969
-0.000524724
-0.000592012
-0.000661334
-0.00073254
-0.000805535
-0.000880281
-0.000956793
-0.00103515
-0.00111551
-0.00119808
-0.00128314
-0.00137105
-0.00146223
-0.00155717
-0.00165642
-0.00176061
-0.00187039
-0.0019865
-0.00210973
-0.0022409
-0.00238089
-0.00253061
-0.00269101
-0.00286306
-0.0030478
-0.00324626
-0.00345953
-0.00368872
-0.00393499
-0.00419954
-0.00448358
-0.0047884
-0.00511528
-0.00546556
-0.00584059
-0.00624171
-0.00667024
-0.00712744
-0.00761449
-0.00813242
-0.00868205
-0.00926397
-0.0098784
-0.0105252
-0.0112036
-0.0119124
-0.0126495
-0.0134121
-0.0141964
-0.0149974
-0.0158093
-0.0166247
-0.0174351
-0.0182305
-0.0189997
-0.01973
-0.0204076
-0.0210173
-0.0215431
-0.021968
-0.0222745
-0.0224447
-0.022461
-0.0223058
-0.0219623
-0.021415
-0.0206499
-0.0196547
-0.01842
-0.0169389
-0.015208
-0.0132275
-0.0110018
-0.00854047
-0.00585591
-0.00296707
0.000101456
0.00332025
0.00665501
0.010067
0.0135125
0.016944
0.0203125
0.0235674
0.0266587
0.0295389
0.0321644
0.0344982
0.0365113
0.0381843
0.0395092
0.0404893
0.0411394
0.0414852
0.0415613
0.0414093
0.0410753
0.0406066
0.0400496
0.0394469
0.0388357
0.0382466
0.0377034
0.0372229
0.0368162
0.0364896
0.0362457
0.0360858
0.0360095
0.0360291
0.0361317
-4.16405e-05
-2.78918e-05
-1.33288e-05
9.15779e-07
1.43734e-05
2.61789e-05
3.56024e-05
4.19857e-05
4.47432e-05
4.33769e-05
3.74882e-05
2.67834e-05
1.10729e-05
-9.73359e-06
-3.56342e-05
-6.65445e-05
-0.000102308
-0.000142707
-0.000187476
-0.000236314
-0.000288902
-0.000344916
-0.000404036
-0.000465949
-0.00053035
-0.000596964
-0.000665579
-0.000736047
-0.000808277
-0.000882228
-0.00095792
-0.00103543
-0.0011149
-0.00119654
-0.00128063
-0.0013675
-0.00145758
-0.00155133
-0.0016493
-0.00175207
-0.0018603
-0.00197471
-0.00209604
-0.00222511
-0.00236276
-0.00250988
-0.00266738
-0.00283622
-0.00301738
-0.00321189
-0.00342079
-0.00364519
-0.00388622
-0.00414504
-0.00442289
-0.00472104
-0.00504079
-0.0053835
-0.00575058
-0.00614341
-0.00656342
-0.00701197
-0.00749036
-0.0079998
-0.0085413
-0.00911567
-0.00972339
-0.0103646
-0.0110388
-0.011745
-0.0124816
-0.0132459
-0.0140344
-0.0148426
-0.0156645
-0.0164932
-0.0173201
-0.0181354
-0.0189277
-0.0196843
-0.0203911
-0.0210328
-0.021593
-0.0220544
-0.0223992
-0.0226092
-0.0226662
-0.0225524
-0.0222507
-0.0217452
-0.0210215
-0.0200672
-0.0188724
-0.01743
-0.0157363
-0.0137912
-0.0115988
-0.00916783
-0.00651083
-0.00364614
-0.000597632
0.00260568
0.00592984
0.00933679
0.0127833
0.016222
0.0196038
0.0228783
0.0259951
0.0289059
0.0315665
0.0339389
0.0359926
0.0377074
0.0390736
0.0400934
0.0407808
0.0411607
0.0412674
0.0411425
0.0408322
0.0403847
0.0398467
0.0392614
0.0386666
0.0380931
0.0375647
0.0370979
0.0367032
0.0363864
0.0361497
0.0359939
0.035919
0.035938
0.0360395
-5.09829e-05
-3.54339e-05
-1.97073e-05
-4.93513e-06
8.69483e-06
2.04206e-05
2.95996e-05
3.56433e-05
3.80197e-05
3.62712e-05
3.00281e-05
1.90172e-05
3.0622e-06
-1.79179e-05
-4.39165e-05
-7.48462e-05
-0.00011055
-0.000150812
-0.000195368
-0.000243921
-0.000296155
-0.00035175
-0.00041039
-0.000471767
-0.000535579
-0.000601555
-0.000669485
-0.000739226
-0.000810686
-0.000883826
-0.000958663
-0.00103527
-0.00111379
-0.00119443
-0.00127745
-0.00136318
-0.00145204
-0.00154446
-0.00164099
-0.00174219
-0.00184871
-0.00196123
-0.00208049
-0.00220726
-0.00234237
-0.00248668
-0.00264108
-0.00280648
-0.00298387
-0.00317421
-0.00337856
-0.00359798
-0.00383358
-0.00408654
-0.00435808
-0.00464948
-0.00496209
-0.00529731
-0.00565659
-0.00604144
-0.00645337
-0.0068939
-0.00736451
-0.0078666
-0.00840143
-0.00897006
-0.00957327
-0.0102115
-0.0108846
-0.0115919
-0.0123321
-0.0131029
-0.013901
-0.014722
-0.0155604
-0.0164091
-0.0172596
-0.018102
-0.0189249
-0.0197153
-0.0204588
-0.0211397
-0.0217414
-0.022246
-0.0226353
-0.0228907
-0.0229936
-0.0229257
-0.0226697
-0.0222093
-0.0215298
-0.0206185
-0.0194653
-0.0180629
-0.0164071
-0.0144977
-0.0123382
-0.00993709
-0.00730655
-0.00446442
-0.00143391
0.00175658
0.00507344
0.00847919
0.0119313
0.0153825
0.0187838
0.0220847
0.0252344
0.0281841
0.0308886
0.0333085
0.0354123
0.0371779
0.0385943
0.0396623
0.0403945
0.040815
0.0409576
0.0408638
0.0405802
0.0401552
0.0396365
0.0390681
0.0384884
0.0379288
0.037413
0.0369577
0.0365731
0.0362643
0.0360332
0.0358803
0.0358056
0.0358223
0.0359197
-6.0304e-05
-4.29391e-05
-2.59659e-05
-1.05403e-05
3.401e-06
1.51838e-05
2.42438e-05
3.00548e-05
3.21355e-05
3.00672e-05
2.351e-05
1.22117e-05
-3.98779e-06
-2.51589e-05
-5.12869e-05
-8.22796e-05
-0.000117977
-0.000158161
-0.000202567
-0.0002509
-0.000302844
-0.00035808
-0.000416297
-0.000477187
-0.00054045
-0.000605819
-0.000673085
-0.000742104
-0.000812789
-0.000885098
-0.000959047
-0.00103471
-0.00111222
-0.00119177
-0.00127363
-0.00135812
-0.00144563
-0.00153661
-0.00163156
-0.00173104
-0.00183568
-0.00194615
-0.00206315
-0.00218744
-0.00231983
-0.00246114
-0.00261224
-0.00277403
-0.00294745
-0.00313346
-0.00333307
-0.00354736
-0.00377741
-0.00402441
-0.00428959
-0.00457426
-0.00487982
-0.00520773
-0.00555954
-0.00593686
-0.00634137
-0.00677477
-0.00723874
-0.00773494
-0.00826492
-0.00883004
-0.00943143
-0.0100698
-0.0107455
-0.0114582
-0.0122069
-0.0129895
-0.0138031
-0.0146435
-0.0155051
-0.016381
-0.0172627
-0.01814
-0.0190012
-0.019833
-0.0206207
-0.021348
-0.0219978
-0.0225519
-0.0229914
-0.0232973
-0.0234506
-0.0234327
-0.0232257
-0.0228131
-0.0221799
-0.0213134
-0.0202031
-0.0188414
-0.017224
-0.0153503
-0.0132237
-0.0108519
-0.00824695
-0.00542615
-0.002412
0.000767759
0.00408
0.00748772
0.0109492
0.0144177
0.0178438
0.0211772
0.0243669
0.0273631
0.0301199
0.0325964
0.0347596
0.0365857
0.0380618
0.0391871
0.0399726
0.0404414
0.0406264
0.040569
0.0403158
0.039916
0.039418
0.0388668
0.0383015
0.0377544
0.0372496
0.0368039
0.0364273
0.0361247
0.0358976
0.0357462
0.0356703
0.0356825
0.0357731
-6.94176e-05
-5.02519e-05
-3.19845e-05
-1.58124e-05
-1.45118e-06
1.04996e-05
1.95437e-05
2.52109e-05
2.70669e-05
2.473e-05
1.78897e-05
6.31641e-06
-1.01328e-05
-3.15153e-05
-5.78062e-05
-8.8906e-05
-0.000124649
-0.000164813
-0.000209131
-0.000257305
-0.00030902
-0.000363956
-0.000421802
-0.00048225
-0.000545002
-0.000609791
-0.000676408
-0.000744713
-0.000814614
-0.000886071
-0.000959098
-0.00103376
-0.0011102
-0.0011886
-0.00126921
-0.00135235
-0.00143841
-0.00152781
-0.00162104
-0.00171867
-0.00182128
-0.00192953
-0.00204412
-0.00216576
-0.00229525
-0.00243339
-0.00258103
-0.00273903
-0.00290832
-0.00308984
-0.0032846
-0.00349364
-0.00371807
-0.00395908
-0.00421793
-0.00449597
-0.00479467
-0.0051156
-0.0054604
-0.00583086
-0.00622884
-0.00665625
-0.00711504
-0.00760718
-0.00813452
-0.00869882
-0.00930156
-0.00994389
-0.0106265
-0.0113494
-0.0121119
-0.0129124
-0.013748
-0.0146147
-0.0155069
-0.0164177
-0.0173383
-0.0182583
-0.0191656
-0.0200464
-0.0208855
-0.021666
-0.0223703
-0.0229796
-0.0234744
-0.0238353
-0.0240428
-0.0240779
-0.0239225
-0.0235598
-0.0229747
-0.0221542
-0.0210876
-0.0197672
-0.0181886
-0.0163508
-0.0142569
-0.0119142
-0.00933436
-0.00653409
-0.00353525
-0.000364785
0.00294476
0.00635683
0.00983065
0.0133201
0.0167757
0.0201471
0.023383
0.0264331
0.0292502
0.0317923
0.0340244
0.0359208
0.0374667
0.038659
0.0395073
0.040033
0.0402681
0.0402535
0.0400359
0.039665
0.0391901
0.038657
0.0381063
0.0375708
0.0370756
0.0366377
0.0362672
0.035969
0.0357441
0.0355926
0.0355138
0.0355197
0.035601
-7.81597e-05
-5.72323e-05
-3.76521e-05
-2.06696e-05
-5.8063e-06
6.39993e-06
1.55109e-05
2.11068e-05
2.27951e-05
2.02298e-05
1.31288e-05
1.28603e-06
-1.54231e-05
-3.70407e-05
-6.35301e-05
-9.4782e-05
-0.000130622
-0.000170823
-0.000215113
-0.000263189
-0.000314732
-0.000369422
-0.000426946
-0.000486995
-0.000549271
-0.000613504
-0.000679488
-0.00074708
-0.000816188
-0.000886773
-0.000958842
-0.00103246
-0.00110777
-0.00118493
-0.00126422
-0.00134592
-0.00143041
-0.00151812
-0.00160952
-0.00170515
-0.00180559
-0.00191148
-0.00202349
-0.00214234
-0.00226877
-0.00240359
-0.0025476
-0.00270167
-0.0028667
-0.00304362
-0.00323342
-0.00343716
-0.00365595
-0.003891
-0.00414363
-0.00441525
-0.00470742
-0.00502182
-0.00536028
-0.00572474
-0.0061173
-0.00654015
-0.00699556
-0.00748581
-0.00801317
-0.00857978
-0.00918756
-0.00983806
-0.0105324
-0.011271
-0.0120534
-0.0128782
-0.0137428
-0.0146432
-0.0155738
-0.0165273
-0.0174947
-0.0184652
-0.0194262
-0.0203633
-0.0212605
-0.0221006
-0.022865
-0.0235344
-0.0240889
-0.0245084
-0.0247732
-0.0248638
-0.024762
-0.0244508
-0.0239149
-0.0231412
-0.022119
-0.0208404
-0.0193009
-0.0174992
-0.0154382
-0.0131247
-0.0105699
-0.00778997
-0.00480603
-0.00164422
0.00166373
0.00508175
0.00857
0.0120832
0.015572
0.018986
0.0222739
0.0253845
0.0282698
0.030886
0.0331965
0.0351734
0.0367996
0.0380697
0.038991
0.0395833
0.0398772
0.039913
0.0397372
0.0393999
0.0389513
0.0384384
0.0379029
0.0373788
0.036892
0.0364604
0.0360942
0.0357984
0.0355739
0.0354204
0.0353371
0.0353348
0.0354046
-8.63973e-05
-6.37619e-05
-4.2871e-05
-2.50368e-05
-9.61157e-06
2.91654e-06
1.21591e-05
1.77401e-05
1.93046e-05
1.65402e-05
9.19256e-06
-2.92064e-06
-1.99046e-05
-4.17846e-05
-6.85103e-05
-9.99602e-05
-0.000135951
-0.000176245
-0.000220563
-0.000268598
-0.000320026
-0.000374523
-0.000431771
-0.000491461
-0.000553291
-0.000616991
-0.000682354
-0.000749234
-0.000817541
-0.000887229
-0.000958308
-0.00103084
-0.00110495
-0.00118082
-0.00125869
-0.00133886
-0.00142169
-0.00150759
-0.00159703
-0.00169054
-0.00178868
-0.00189207
-0.00200137
-0.00211728
-0.00224052
-0.00237187
-0.00251214
-0.00266216
-0.00282283
-0.00299506
-0.00317985
-0.00337827
-0.00359146
-0.00382067
-0.00406728
-0.0043328
-0.00461889
-0.00492739
-0.00526033
-0.00561988
-0.00600842
-0.00642844
-0.00688258
-0.00737354
-0.00790398
-0.00847651
-0.0090935
-0.00975696
-0.0104684
-0.0112286
-0.0120374
-0.0128936
-0.0137946
-0.0147364
-0.0157131
-0.0167173
-0.0177394
-0.018768
-0.0197899
-0.02079
-0.0217516
-0.0226567
-0.0234862
-0.0242199
-0.0248375
-0.0253186
-0.0256429
-0.0257909
-0.025744
-0.0254853
-0.0249994
-0.0242731
-0.0232957
-0.0220594
-0.0205594
-0.0187944
-0.0167667
-0.0144829
-0.0119537
-0.00919456
-0.00622585
-0.00307284
0.000233762
0.0036585
0.00716238
0.0107011
0.0142261
0.0176866
0.0210313
0.0242086
0.0271692
0.0298681
0.0322665
0.0343342
0.0360515
0.0374105
0.038416
0.0390855
0.0394481
0.0395429
0.0394162
0.0391184
0.0387003
0.0382103
0.0376913
0.0371788
0.0366998
0.0362731
0.0359095
0.0356141
0.0353881
0.0352308
0.0351411
0.0351291
0.0351854
-9.40122e-05
-6.97341e-05
-4.75518e-05
-2.88443e-05
-1.28169e-05
8.10485e-08
9.5035e-06
1.51111e-05
1.6584e-05
1.36396e-05
6.0513e-06
-6.33998e-06
-2.36184e-05
-4.57917e-05
-7.27935e-05
-0.000104489
-0.000140681
-0.000181124
-0.000225529
-0.000273579
-0.000324945
-0.000379298
-0.000436314
-0.000495682
-0.000557095
-0.000620283
-0.000685035
-0.000751204
-0.000818697
-0.000887468
-0.000957523
-0.00102892
-0.00110179
-0.00117629
-0.00125267
-0.00133122
-0.00141229
-0.00149628
-0.00158366
-0.00167493
-0.00177064
-0.00187141
-0.00197787
-0.00209071
-0.00221064
-0.00233841
-0.00247483
-0.00262071
-0.00277693
-0.00294444
-0.00312422
-0.00331736
-0.00352506
-0.00374862
-0.00398951
-0.00424935
-0.00452996
-0.00483337
-0.00516182
-0.00551779
-0.00590395
-0.0063232
-0.00677856
-0.00727317
-0.0078102
-0.00839273
-0.00902359
-0.00970526
-0.0104396
-0.0112278
-0.0120699
-0.0129648
-0.0139099
-0.0149009
-0.0159317
-0.0169943
-0.0180787
-0.0191726
-0.0202621
-0.0213313
-0.0223628
-0.0233377
-0.0242361
-0.0250376
-0.0257211
-0.0262657
-0.0266512
-0.0268577
-0.0268667
-0.0266611
-0.0262256
-0.0255472
-0.0246152
-0.0234216
-0.0219617
-0.020234
-0.0182406
-0.0159875
-0.0134849
-0.0107477
-0.0077953
-0.00465199
-0.00134735
0.00208399
0.00560385
0.00916917
0.0127321
0.0162422
0.0196479
0.0228973
0.0259401
0.0287297
0.0312253
0.0333941
0.0352138
0.0366733
0.0377747
0.0385329
0.0389749
0.0391385
0.0390693
0.0388176
0.0384353
0.0379717
0.0374713
0.0369711
0.0364997
0.0360767
0.0357141
0.0354174
0.0351877
0.0350248
0.0349271
0.0349035
0.0349448
-0.00010091
-7.50601e-05
-5.16168e-05
-3.20292e-05
-1.53757e-05
-2.07568e-06
7.55951e-06
1.32226e-05
1.46239e-05
1.15093e-05
3.67835e-06
-9.00454e-06
-2.66019e-05
-4.91026e-05
-7.64226e-05
-0.000108411
-0.000144859
-0.000185506
-0.000230052
-0.000278173
-0.000329529
-0.000383784
-0.000440611
-0.000499691
-0.000560715
-0.000623409
-0.000687559
-0.000753016
-0.000819685
-0.000887516
-0.000956515
-0.00102674
-0.0010983
-0.00117138
-0.00124619
-0.00132304
-0.00140226
-0.00148425
-0.00156946
-0.00165838
-0.00175157
-0.0018496
-0.00195311
-0.00206277
-0.00217928
-0.00230338
-0.00243585
-0.00257753
-0.00272928
-0.00289205
-0.00306686
-0.00325484
-0.00345722
-0.00367541
-0.00391098
-0.0041657
-0.00444158
-0.00474087
-0.00506609
-0.00542004
-0.00580578
-0.00622661
-0.00668603
-0.00718767
-0.00773521
-0.00833224
-0.00898209
-0.00968768
-0.0104513
-0.0112743
-0.0121569
-0.013098
-0.0140949
-0.0151429
-0.0162355
-0.0173641
-0.0185177
-0.0196836
-0.0208467
-0.0219904
-0.0230963
-0.0241449
-0.0251156
-0.0259873
-0.0267385
-0.0273482
-0.0277958
-0.0280615
-0.0281267
-0.0279746
-0.0275899
-0.0269597
-0.0260735
-0.0249233
-0.0235044
-0.0218151
-0.0198571
-0.0176362
-0.015162
-0.0124483
-0.00951384
-0.00638184
-0.00308059
0.000356366
0.00389172
0.00748372
0.0110856
0.0146473
0.0181174
0.0214436
0.0245746
0.0274625
0.0300642
0.0323445
0.0342777
0.0358499
0.0370595
0.0379186
0.0384518
0.0386948
0.0386924
0.0384948
0.0381542
0.0377214
0.0372424
0.0367559
0.036292
0.0358721
0.035509
0.035209
0.0349739
0.0348033
0.034696
0.0346592
0.0346842
-0.000107007
-7.96591e-05
-5.49943e-05
-3.45329e-05
-1.72436e-05
-3.52346e-06
6.34398e-06
1.20791e-05
1.34185e-05
1.01345e-05
2.05143e-06
-1.09424e-05
-2.8888e-05
-5.17533e-05
-7.9436e-05
-0.000111768
-0.000148523
-0.000189429
-0.000234172
-0.000282415
-0.000333811
-0.000388015
-0.000444692
-0.000503517
-0.000564178
-0.000626395
-0.000689951
-0.000754695
-0.000820527
-0.000887398
-0.000955309
-0.00102432
-0.00109453
-0.00116612
-0.0012393
-0.00131438
-0.00139167
-0.00147156
-0.00155451
-0.00164099
-0.00173154
-0.00182674
-0.0019272
-0.00203359
-0.00214659
-0.00226694
-0.00239542
-0.00253285
-0.00268013
-0.0028382
-0.00300814
-0.00319111
-0.00338844
-0.00360164
-0.00383241
-0.0040827
-0.00435475
-0.00465109
-0.00497455
-0.00532831
-0.00571586
-0.00614097
-0.00660765
-0.00712007
-0.00768245
-0.00829891
-0.00897327
-0.00970887
-0.0105083
-0.0113731
-0.0123036
-0.0132986
-0.014355
-0.0154677
-0.0166295
-0.017831
-0.0190605
-0.0203042
-0.0215462
-0.0227689
-0.023953
-0.0250782
-0.0261235
-0.027067
-0.0278872
-0.0285627
-0.0290729
-0.029398
-0.0295197
-0.0294212
-0.0290875
-0.028506
-0.027666
-0.02656
-0.0251831
-0.0235335
-0.0216127
-0.0194258
-0.0169819
-0.014294
-0.0113797
-0.00826129
-0.00496557
-0.00152477
0.00202477
0.00564277
0.0092837
0.0128981
0.0164349
0.0198416
0.0230662
0.0260592
0.0287756
0.0311773
0.0332354
0.0349322
0.0362629
0.0372357
0.0378724
0.0382066
0.0382813
0.0381465
0.0378548
0.037458
0.0370038
0.0365327
0.036077
0.0356595
0.0352947
0.0349898
0.0347472
0.0345672
0.0344486
0.0343972
0.0344049
-0.000112234
-8.3464e-05
-5.76225e-05
-3.63032e-05
-1.83796e-05
-4.23352e-06
5.87409e-06
1.16866e-05
1.2964e-05
9.50288e-06
1.15131e-06
-1.21787e-05
-3.05058e-05
-5.37764e-05
-8.18681e-05
-0.000114594
-0.000151711
-0.000192929
-0.000237923
-0.000286341
-0.000337826
-0.000392022
-0.000448586
-0.000507188
-0.000567509
-0.000629264
-0.000692234
-0.000756262
-0.000821248
-0.000887139
-0.000953933
-0.00102168
-0.0010905
-0.00116054
-0.00123204
-0.00130527
-0.00138055
-0.00145828
-0.00153888
-0.00162283
-0.00171066
-0.00180294
-0.00190027
-0.00200331
-0.00211274
-0.00222929
-0.00235374
-0.00248693
-0.00262976
-0.00278322
-0.00294843
-0.00312664
-0.00331925
-0.00352792
-0.00375453
-0.00400123
-0.00427054
-0.00456528
-0.00488869
-0.00524436
-0.00563625
-0.00606865
-0.00654615
-0.00707347
-0.0076554
-0.00829658
-0.00900132
-0.00977332
-0.0106154
-0.0115293
-0.0125152
-0.0135716
-0.0146949
-0.0158796
-0.0171175
-0.0183985
-0.0197097
-0.0210363
-0.0223615
-0.0236668
-0.0249319
-0.026136
-0.0272573
-0.0282737
-0.0291634
-0.0299049
-0.0304777
-0.0308622
-0.0310402
-0.0309953
-0.0307128
-0.0301803
-0.0293873
-0.0283264
-0.0269927
-0.0253844
-0.0235026
-0.0213519
-0.0189407
-0.0162812
-0.0133899
-0.0102878
-0.00700035
-0.00355823
3.46798e-06
0.00364591
0.00732496
0.0109922
0.014597
0.018087
0.0214095
0.0245137
0.0273525
0.029885
0.0320789
0.0339127
0.0353773
0.0364772
0.0372306
0.0376683
0.0378315
0.0377692
0.0375342
0.0371795
0.0367542
0.0363011
0.0358545
0.0354392
0.0350716
0.0347602
0.0345085
0.0343171
0.0341858
0.0341183
0.034108
-0.000116531
-8.64123e-05
-5.94436e-05
-3.72906e-05
-1.87443e-05
-4.17728e-06
6.16791e-06
1.20531e-05
1.32596e-05
9.60557e-06
9.62745e-07
-1.27341e-05
-3.14801e-05
-5.51998e-05
-8.37491e-05
-0.000116921
-0.000154453
-0.000196039
-0.000241336
-0.00028998
-0.0003416
-0.00039583
-0.000452319
-0.000510727
-0.00057073
-0.000632039
-0.000694429
-0.00075774
-0.000821868
-0.000886759
-0.00095241
-0.00101887
-0.00108624
-0.0011547
-0.00122445
-0.00129576
-0.00136897
-0.00144445
-0.00152263
-0.00160398
-0.00168902
-0.0017783
-0.00187244
-0.00197207
-0.00207788
-0.0021906
-0.00231102
-0.00243999
-0.00257845
-0.00272745
-0.00288814
-0.00306188
-0.00325021
-0.00345493
-0.00367813
-0.00392224
-0.00419005
-0.00448478
-0.00481007
-0.00516999
-0.00556905
-0.00601209
-0.00650429
-0.00705097
-0.00765749
-0.00832902
-0.00907029
-0.00988532
-0.0107771
-0.0117473
-0.0127959
-0.0139211
-0.0151186
-0.016382
-0.0177024
-0.0190685
-0.0204664
-0.0218803
-0.0232922
-0.0246827
-0.0260309
-0.0273152
-0.0285133
-0.0296029
-0.0305621
-0.0313694
-0.0320045
-0.032448
-0.0326821
-0.0326907
-0.0324595
-0.0319762
-0.0312308
-0.030216
-0.028927
-0.0273616
-0.0255209
-0.0234088
-0.021033
-0.0184049
-0.0155397
-0.0124572
-0.00918139
-0.00574114
-0.00217007
0.00149436
0.00520976
0.00892906
0.0126021
0.0161771
0.0196008
0.0228211
0.0257892
0.0284612
0.0308013
0.0327839
0.0343954
0.035636
0.0365198
0.0370741
0.0373379
0.0373587
0.0371894
0.0368835
0.0364921
0.03606
0.035624
0.0352112
0.03484
0.0345207
0.0342582
0.0340535
0.0339081
0.0338234
0.0337944
-0.000119848
-8.84526e-05
-6.04079e-05
-3.74509e-05
-1.83016e-05
-3.3272e-06
7.24335e-06
1.31878e-05
1.43058e-05
1.04361e-05
1.47283e-06
-1.26263e-05
-3.18328e-05
-5.60483e-05
-8.51056e-05
-0.000118777
-0.000156779
-0.000198786