/*--------------------------------*- C++ -*----------------------------------*\
  =========                 |
  \\      /  F ield         | OpenFOAM: The Open Source CFD Toolbox
   \\    /   O peration     | Website:  https://openfoam.org
    \\  /    A nd           | Version:  12
     \\/     M anipulation  |
\*---------------------------------------------------------------------------*/
FoamFile
{
    format      ascii;
    class       surfaceScalarField;
    location    "4";
    object      phi;
}
// * * * * * * * * * * * * * * * * * * * * * * * * * * * * * * * * * * * * * //

dimensions      [0 3 -1 0 0 0 0];

internalField   nonuniform List<scalar> 
36180
(
-4.95825e-11
4.96924e-11
-8.36897e-11
3.40841e-11
-6.19567e-11
-2.17823e-11
2.73794e-11
-8.93846e-11
1.83987e-10
-1.56646e-10
4.02706e-10
-2.18742e-10
6.76297e-10
-2.73602e-10
9.96737e-10
-3.20441e-10
1.3558e-09
-3.59062e-10
1.74535e-09
-3.8954e-10
2.1575e-09
-4.12143e-10
2.58474e-09
-4.2724e-10
3.02003e-09
-4.353e-10
3.45688e-09
-4.36859e-10
3.88939e-09
-4.3252e-10
4.31231e-09
-4.2293e-10
4.72108e-09
-4.08781e-10
5.11185e-09
-3.90782e-10
5.4815e-09
-3.69661e-10
5.82763e-09
-3.46136e-10
6.14854e-09
-3.2092e-10
6.44322e-09
-2.94685e-10
6.71128e-09
-2.6807e-10
6.95293e-09
-2.41654e-10
7.16891e-09
-2.15978e-10
7.36045e-09
-1.91543e-10
7.52921e-09
-1.68763e-10
7.67717e-09
-1.47965e-10
7.80658e-09
-1.29411e-10
7.91987e-09
-1.13296e-10
8.01961e-09
-9.97397e-11
8.10839e-09
-8.87857e-11
8.18879e-09
-8.03976e-11
8.26325e-09
-7.44601e-11
8.33402e-09
-7.07788e-11
8.4031e-09
-6.90805e-11
8.47212e-09
-6.90142e-11
8.54227e-09
-7.01533e-11
8.61426e-09
-7.19925e-11
8.68823e-09
-7.39696e-11
8.76371e-09
-7.54821e-11
8.83951e-09
-7.58e-11
8.91375e-09
-7.42398e-11
8.98376e-09
-7.00112e-11
9.04611e-09
-6.23466e-11
9.09656e-09
-5.04504e-11
9.13009e-09
-3.35287e-11
9.14085e-09
-1.07562e-11
9.12222e-09
1.86277e-11
9.06683e-09
5.53845e-11
8.96653e-09
1.00306e-10
8.81238e-09
1.54152e-10
8.59468e-09
2.17693e-10
8.30297e-09
2.91715e-10
7.92594e-09
3.77028e-10
7.45143e-09
4.74507e-10
6.86642e-09
5.8501e-10
6.15702e-09
7.09405e-10
5.30826e-09
8.48756e-10
4.3044e-09
1.00387e-09
3.12868e-09
1.17572e-09
1.76346e-09
1.36522e-09
1.90267e-10
1.57319e-09
-1.61001e-09
1.80027e-09
-3.65703e-09
2.04702e-09
-5.97074e-09
2.31371e-09
-8.57095e-09
2.60021e-09
-1.14771e-08
2.90617e-09
-1.4708e-08
3.23088e-09
-1.82812e-08
3.57318e-09
-2.22126e-08
3.93144e-09
-2.65161e-08
4.30352e-09
-3.12029e-08
4.68675e-09
-3.62808e-08
5.07795e-09
-4.17542e-08
5.47338e-09
-4.7623e-08
5.86881e-09
-5.38825e-08
6.25947e-09
-6.05227e-08
6.64018e-09
-6.7528e-08
7.00532e-09
-7.4877e-08
7.34896e-09
-8.25418e-08
7.66487e-09
-9.04885e-08
7.94663e-09
-9.86761e-08
8.18769e-09
-1.07058e-07
8.38146e-09
-1.15579e-07
8.52137e-09
-1.2418e-07
8.60095e-09
-1.32794e-07
8.61388e-09
-1.41348e-07
8.55407e-09
-1.49764e-07
8.41572e-09
-1.57957e-07
8.1934e-09
-1.65839e-07
7.88212e-09
-1.73317e-07
7.47743e-09
-1.80292e-07
6.97557e-09
-1.86666e-07
6.37357e-09
-1.92335e-07
5.66942e-09
-1.97196e-07
4.86132e-09
-2.01139e-07
3.94235e-09
-2.04063e-07
2.92408e-09
-2.05895e-07
1.8324e-09
-2.06534e-07
6.38535e-10
-2.05887e-07
-6.46455e-10
-2.03901e-07
-1.98626e-09
-2.00519e-07
-3.38211e-09
-1.95712e-07
-4.80722e-09
-1.89475e-07
-6.23683e-09
-1.81831e-07
-7.64389e-09
-1.72833e-07
-8.99758e-09
-1.6257e-07
-1.02639e-08
-1.51162e-07
-1.14073e-08
-1.38771e-07
-1.23917e-08
-1.25588e-07
-1.31829e-08
-1.11837e-07
-1.37501e-08
-9.77692e-08
-1.40683e-08
-8.36491e-08
-1.41201e-08
-6.97512e-08
-1.38979e-08
-5.63459e-08
-1.34053e-08
-4.36887e-08
-1.26572e-08
-3.20083e-08
-1.16804e-08
-2.14968e-08
-1.05115e-08
-1.23012e-08
-9.19566e-09
-4.5179e-09
-7.78326e-09
1.80883e-09
-6.32673e-09
6.68591e-09
-4.87707e-09
1.01662e-08
-3.48026e-09
1.23422e-08
-2.176e-09
1.33373e-08
-9.95167e-10
1.32968e-08
4.05045e-11
1.23822e-08
9.14648e-10
1.0767e-08
1.61522e-09
8.63771e-09
2.12924e-09
6.20805e-09
2.42967e-09
3.74032e-09
2.46772e-09
1.57706e-09
2.16326e-09
1.91975e-10
1.38509e-09
1.91975e-10
-7.91154e-11
1.28814e-10
-1.09456e-10
6.43875e-11
3.59701e-12
-1.34895e-10
2.91899e-10
-3.77748e-10
7.58903e-10
-6.23698e-10
1.39354e-09
-8.53411e-10
2.17818e-09
-1.05826e-09
3.09215e-09
-1.23441e-09
4.11357e-09
-1.38048e-09
5.22039e-09
-1.49636e-09
6.39101e-09
-1.58275e-09
7.60465e-09
-1.64089e-09
8.84175e-09
-1.6724e-09
1.00841e-08
-1.67925e-09
1.13152e-08
-1.66365e-09
1.25203e-08
-1.628e-09
1.36864e-08
-1.57488e-09
1.48025e-08
-1.50695e-09
1.58598e-08
-1.42695e-09
1.68512e-08
-1.33757e-09
1.77718e-08
-1.24147e-09
1.86183e-08
-1.14122e-09
1.93894e-08
-1.03923e-09
2.00855e-08
-9.37714e-10
2.07082e-08
-8.3872e-10
2.12607e-08
-7.44067e-10
2.17473e-08
-6.55312e-10
2.21731e-08
-5.73734e-10
2.2544e-08
-5.00342e-10
2.28666e-08
-4.35866e-10
2.31476e-08
-3.80744e-10
2.33939e-08
-3.35113e-10
2.36123e-08
-2.98809e-10
2.38092e-08
-2.71361e-10
2.39904e-08
-2.51991e-10
2.41609e-08
-2.39615e-10
2.43248e-08
-2.32849e-10
2.44846e-08
-2.30013e-10
2.46417e-08
-2.29133e-10
2.47958e-08
-2.28003e-10
2.49445e-08
-2.24231e-10
2.50837e-08
-2.15013e-10
2.52071e-08
-1.9763e-10
2.53061e-08
-1.69008e-10
2.53699e-08
-1.26132e-10
2.53853e-08
-6.5834e-11
2.53368e-08
1.49867e-11
2.52065e-08
1.19543e-10
2.49742e-08
2.50931e-10
2.46174e-08
4.12188e-10
2.41113e-08
6.06412e-10
2.34288e-08
8.36649e-10
2.25405e-08
1.10596e-09
2.14148e-08
1.41745e-09
2.00175e-08
1.7743e-09
1.83122e-08
2.17983e-09
1.62598e-08
2.63736e-09
1.3819e-08
3.1502e-09
1.09458e-08
3.72202e-09
7.59372e-09
4.35592e-09
3.71411e-09
5.05533e-09
-7.43725e-10
5.82305e-09
-5.83271e-09
6.66218e-09
-1.16073e-08
7.57484e-09
-1.8122e-08
8.5617e-09
-2.54309e-08
9.62265e-09
-3.35875e-08
1.07568e-08
-4.26433e-08
1.1962e-08
-5.26465e-08
1.32341e-08
-6.36407e-08
1.45674e-08
-7.56637e-08
1.59544e-08
-8.87458e-08
1.73856e-08
-1.02909e-07
1.88495e-08
-1.18163e-07
2.03327e-08
-1.34509e-07
2.18196e-08
-1.51934e-07
2.32929e-08
-1.70408e-07
2.47336e-08
-1.89889e-07
2.61211e-08
-2.10317e-07
2.74336e-08
-2.31616e-07
2.86482e-08
-2.53693e-07
2.97414e-08
-2.76435e-07
3.06891e-08
-2.99715e-07
3.14674e-08
-3.23386e-07
3.20523e-08
-3.47285e-07
3.24205e-08
-3.71233e-07
3.25493e-08
-3.95036e-07
3.24173e-08
-4.18486e-07
3.20039e-08
-4.41361e-07
3.12902e-08
-4.63426e-07
3.02591e-08
-4.8444e-07
2.88953e-08
-5.04148e-07
2.71859e-08
-5.22293e-07
2.51208e-08
-5.38613e-07
2.2693e-08
-5.52842e-07
1.9899e-08
-5.64719e-07
1.67384e-08
-5.73985e-07
1.32077e-08
-5.80367e-07
9.30691e-09
-5.83674e-07
5.13868e-09
-5.83697e-07
6.61982e-10
-5.80264e-07
-4.07941e-09
-5.732e-07
-9.05061e-09
-5.62414e-07
-1.41682e-08
-5.47862e-07
-1.9359e-08
-5.29564e-07
-2.45347e-08
-5.07609e-07
-2.95992e-08
-4.82162e-07
-3.44448e-08
-4.53471e-07
-3.89544e-08
-4.21872e-07
-4.3006e-08
-3.87787e-07
-4.64774e-08
-3.51717e-07
-4.92525e-08
-3.1424e-07
-5.12273e-08
-2.75991e-07
-5.23173e-08
-2.37647e-07
-5.2464e-08
-1.99904e-07
-5.16414e-08
-1.63449e-07
-4.98603e-08
-1.28935e-07
-4.71708e-08
-9.69537e-08
-4.36618e-08
-6.80073e-08
-3.94578e-08
-4.24906e-08
-3.47124e-08
-2.06751e-08
-2.95987e-08
-2.70245e-09
-2.42994e-08
1.14152e-08
-1.89947e-08
2.1786e-08
-1.38511e-08
2.86245e-08
-9.01445e-09
3.22317e-08
-4.60239e-09
3.29782e-08
-7.05954e-10
3.12868e-08
2.60605e-09
2.76241e-08
5.27788e-09
2.25033e-08
7.25008e-09
1.65132e-08
8.41979e-09
1.03533e-08
8.62755e-09
4.88613e-09
7.63048e-09
1.15374e-09
5.11747e-09
1.34572e-09
-7.07272e-11
1.99642e-10
-4.33709e-11
3.70384e-11
2.01831e-10
-3.80143e-10
7.10216e-10
-8.86189e-10
1.48867e-09
-1.4022e-09
2.52335e-09
-1.88812e-09
3.7894e-09
-2.32432e-09
5.25636e-09
-2.70137e-09
6.89122e-09
-3.01534e-09
8.66022e-09
-3.26534e-09
1.05299e-08
-3.45244e-09
1.2468e-08
-3.57894e-09
1.44437e-08
-3.64817e-09
1.64286e-08
-3.66415e-09
1.83965e-08
-3.63155e-09
2.0324e-08
-3.55549e-09
2.21905e-08
-3.44145e-09
2.39787e-08
-3.29511e-09
2.5674e-08
-3.12229e-09
2.72653e-08
-2.92881e-09
2.87441e-08
-2.72037e-09
3.01054e-08
-2.50245e-09
3.13464e-08
-2.28026e-09
3.24673e-08
-2.0586e-09
3.34704e-08
-1.84186e-09
3.43603e-08
-1.63391e-09
3.51431e-08
-1.43812e-09
3.58266e-08
-1.25724e-09
3.64197e-08
-1.09345e-09
3.69321e-08
-9.48309e-10
3.73741e-08
-8.22724e-10
3.77559e-08
-7.16956e-10
3.80877e-08
-6.306e-10
3.83789e-08
-5.62576e-10
3.86381e-08
-5.11136e-10
3.88723e-08
-4.73857e-10
3.90871e-08
-4.47655e-10
3.92859e-08
-4.28799e-10
3.94697e-08
-4.12914e-10
3.96368e-08
-3.95106e-10
3.97826e-08
-3.7005e-10
3.98992e-08
-3.31577e-10
3.99752e-08
-2.7363e-10
3.99956e-08
-1.89393e-10
3.99416e-08
-7.22018e-11
3.97908e-08
8.4967e-11
3.95166e-08
2.8918e-10
3.90888e-08
5.47377e-10
3.84731e-08
8.6658e-10
3.76317e-08
1.25364e-09
3.65226e-08
1.71546e-09
3.51004e-08
2.25886e-09
3.33157e-08
2.89068e-09
3.11154e-08
3.61781e-09
2.84424e-08
4.44727e-09
2.52359e-08
5.38631e-09
2.14312e-08
6.44204e-09
1.69596e-08
7.62184e-09
1.17491e-08
8.93244e-09
5.72416e-09
1.03809e-08
-1.19508e-09
1.19746e-08
-9.09154e-09
1.37195e-08
-1.80493e-08
1.56199e-08
-2.8153e-08
1.76785e-08
-3.94878e-08
1.98966e-08
-5.2138e-08
2.22728e-08
-6.61844e-08
2.48033e-08
-8.17034e-08
2.7481e-08
-9.87646e-08
3.02952e-08
-1.17428e-07
3.32313e-08
-1.37744e-07
3.62704e-08
-1.59748e-07
3.93896e-08
-1.83461e-07
4.25616e-08
-2.08883e-07
4.57548e-08
-2.35996e-07
4.89334e-08
-2.64762e-07
5.2058e-08
-2.95114e-07
5.50857e-08
-3.26963e-07
5.79707e-08
-3.60195e-07
6.06651e-08
-3.94666e-07
6.31192e-08
-4.30207e-07
6.52823e-08
-4.66621e-07
6.71039e-08
-5.03688e-07
6.85336e-08
-5.41158e-07
6.95224e-08
-5.7876e-07
7.0023e-08
-6.16201e-07
6.99903e-08
-6.53166e-07
6.93824e-08
-6.89323e-07
6.81603e-08
-7.24322e-07
6.62889e-08
-7.578e-07
6.37375e-08
-7.89385e-07
6.048e-08
-8.18694e-07
5.64954e-08
-8.45343e-07
5.17692e-08
-8.68943e-07
4.62936e-08
-8.89113e-07
4.00686e-08
-9.05477e-07
3.31026e-08
-9.17681e-07
2.54111e-08
-9.2533e-07
1.6956e-08
-9.28185e-07
7.99388e-09
-9.2598e-07
-1.54338e-09
-9.18443e-07
-1.16158e-08
-9.05411e-07
-2.2083e-08
-8.86778e-07
-3.28006e-08
-8.6252e-07
-4.3617e-08
-8.32704e-07
-5.43508e-08
-7.97497e-07
-6.48064e-08
-7.57174e-07
-7.47682e-08
-7.12125e-07
-8.40031e-08
-6.62861e-07
-9.22697e-08
-6.10011e-07
-9.93275e-08
-5.54316e-07
-1.04948e-07
-4.96616e-07
-1.08927e-07
-4.37834e-07
-1.11099e-07
-3.78951e-07
-1.11347e-07
-3.20973e-07
-1.09619e-07
-2.649e-07
-1.05933e-07
-2.11685e-07
-1.00385e-07
-1.622e-07
-9.31475e-08
-1.17194e-07
-8.4463e-08
-7.72722e-08
-7.46347e-08
-4.28631e-08
-6.40078e-08
-1.42129e-08
-5.29496e-08
8.62007e-09
-4.18277e-08
2.57563e-08
-3.09873e-08
3.74782e-08
-2.07364e-08
4.42067e-08
-1.13308e-08
4.64759e-08
-2.97525e-09
4.49146e-08
4.1674e-09
4.02292e-08
9.9633e-09
3.32089e-08
1.42703e-08
2.47555e-08
1.68732e-08
1.59173e-08
1.74658e-08
7.9324e-09
1.56154e-08
2.20198e-09
1.08479e-08
3.54769e-09
-3.66857e-11
2.3637e-10
8.53356e-11
-8.49915e-11
4.93049e-10
-7.87907e-10
1.23788e-09
-1.63108e-09
2.32913e-09
-2.4935e-09
3.75104e-09
-3.31007e-09
5.47349e-09
-4.04678e-09
7.45842e-09
-4.68629e-09
9.66377e-09
-5.22068e-09
1.20459e-08
-5.64751e-09
1.45614e-08
-5.96786e-09
1.71677e-08
-6.18524e-09
1.98244e-08
-6.30493e-09
2.24938e-08
-6.33359e-09
2.51412e-08
-6.27898e-09
2.77355e-08
-6.14973e-09
3.02491e-08
-5.95507e-09
3.26586e-08
-5.70464e-09
3.49446e-08
-5.40833e-09
3.70918e-08
-5.07598e-09
3.90887e-08
-4.71732e-09
4.09279e-08
-4.34167e-09
4.26056e-08
-3.95792e-09
4.41212e-08
-3.57424e-09
4.54775e-08
-3.19813e-09
4.66797e-08
-2.83619e-09
4.77358e-08
-2.49413e-09
4.86552e-08
-2.17668e-09
4.94493e-08
-1.88753e-09
5.01302e-08
-1.62928e-09
5.0711e-08
-1.40346e-09
5.12044e-08
-1.21042e-09
5.16232e-08
-1.04941e-09
5.19791e-08
-9.18472e-10
5.22825e-08
-8.1449e-10
5.25418e-08
-7.33185e-10
5.27633e-08
-6.69118e-10
5.29502e-08
-6.15729e-10
5.31026e-08
-5.65344e-10
5.32169e-08
-5.09376e-10
5.32853e-08
-4.38434e-10
5.32955e-08
-3.41757e-10
5.32305e-08
-2.08665e-10
5.30684e-08
-2.72904e-11
5.27819e-08
2.14252e-10
5.23387e-08
5.28162e-10
5.1701e-08
9.26909e-10
5.08256e-08
1.42279e-09
4.9664e-08
2.02819e-09
4.81624e-08
2.75527e-09
4.62616e-08
3.61621e-09
4.38974e-08
4.62306e-09
4.10002e-08
5.78789e-09
3.74952e-08
7.12279e-09
3.33025e-08
8.63999e-09
2.83368e-08
1.0352e-08
2.25082e-08
1.22706e-08
1.57219e-08
1.44082e-08
7.87766e-09
1.67766e-08
-1.1299e-09
1.93885e-08
-1.14088e-08
2.22535e-08
-2.30696e-08
2.53803e-08
-3.62247e-08
2.8775e-08
-5.09873e-08
3.24411e-08
-6.74688e-08
3.63781e-08
-8.57775e-08
4.05815e-08
-1.06016e-07
4.50414e-08
-1.28277e-07
4.97423e-08
-1.52644e-07
5.46622e-08
-1.79185e-07
5.97721e-08
-2.0795e-07
6.50358e-08
-2.3897e-07
7.04096e-08
-2.72251e-07
7.58428e-08
-3.07774e-07
8.12771e-08
-3.45488e-07
8.66478e-08
-3.85314e-07
9.1884e-08
-4.27138e-07
9.69099e-08
-4.70813e-07
1.01645e-07
-5.16154e-07
1.06007e-07
-5.62944e-07
1.09909e-07
-6.1093e-07
1.13268e-07
-6.59825e-07
1.15999e-07
-7.0931e-07
1.18018e-07
-7.59035e-07
1.19247e-07
-8.08623e-07
1.19612e-07
-8.57674e-07
1.19041e-07
-9.05763e-07
1.17472e-07
-9.52449e-07
1.14846e-07
-9.97274e-07
1.11114e-07
-1.03977e-06
1.06234e-07
-1.07946e-06
1.00172e-07
-1.11587e-06
9.29043e-08
-1.14852e-06
8.44169e-08
-1.17693e-06
7.47082e-08
-1.20065e-06
6.37892e-08
-1.21924e-06
5.16849e-08
-1.23226e-06
3.84322e-08
-1.23935e-06
2.40504e-08
-1.24015e-06
8.79587e-09
-1.23438e-06
-7.31927e-09
-1.22179e-06
-2.42086e-08
-1.20222e-06
-4.16533e-08
-1.17559e-06
-5.94306e-08
-1.14191e-06
-7.72907e-08
-1.10132e-06
-9.4941e-08
-1.05406e-06
-1.12067e-07
-1.0005e-06
-1.28326e-07
-9.41156e-07
-1.43351e-07
-8.76664e-07
-1.56761e-07
-8.07812e-07
-1.6818e-07
-7.3551e-07
-1.7725e-07
-6.60788e-07
-1.8365e-07
-5.8477e-07
-1.87117e-07
-5.08649e-07
-1.87468e-07
-4.33655e-07
-1.84614e-07
-3.61009e-07
-1.78579e-07
-2.91889e-07
-1.69505e-07
-2.27379e-07
-1.57658e-07
-1.68428e-07
-1.43413e-07
-1.15815e-07
-1.27248e-07
-7.01157e-08
-1.09707e-07
-3.16838e-08
-9.13815e-08
-6.45422e-10
-7.28661e-08
2.30985e-08
-5.47313e-08
3.98533e-08
-3.74911e-08
5.01096e-08
-2.15872e-08
5.45154e-08
-7.38104e-09
5.38509e-08
4.83197e-09
4.90125e-08
1.48017e-08
4.1017e-08
2.22658e-08
3.10144e-08
2.68757e-08
2.03246e-08
2.81556e-08
1.04619e-08
2.54781e-08
3.10499e-09
1.82048e-08
6.65269e-09
1.27908e-11
2.23677e-10
2.55144e-10
-3.27321e-10
8.47174e-10
-1.37997e-09
1.84069e-09
-2.62464e-09
3.24525e-09
-3.8981e-09
5.04327e-09
-5.10813e-09
7.20048e-09
-6.20399e-09
9.67273e-09
-7.15855e-09
1.24106e-08
-7.95851e-09
1.53621e-08
-8.59907e-09
1.84752e-08
-9.08095e-09
2.16987e-08
-9.40874e-09
2.49837e-08
-9.58991e-09
2.82843e-08
-9.63412e-09
3.1558e-08
-9.55278e-09
3.47669e-08
-9.35864e-09
3.78773e-08
-9.06543e-09
4.08602e-08
-8.68755e-09
4.36916e-08
-8.23972e-09
4.63523e-08
-7.73671e-09
4.8828e-08
-7.19304e-09
5.1109e-08
-6.62271e-09
5.31901e-08
-6.039e-09
5.50701e-08
-5.45424e-09
5.67516e-08
-4.87961e-09
5.82404e-08
-4.32505e-09
5.95454e-08
-3.79913e-09
6.06776e-08
-3.3089e-09
6.165e-08
-2.85986e-09
6.24766e-08
-2.45589e-09
6.31723e-08
-2.09917e-09
6.3752e-08
-1.79017e-09
6.42302e-08
-1.52757e-09
6.462e-08
-1.30831e-09
6.4933e-08
-1.12749e-09
6.51783e-08
-9.7846e-10
6.53619e-08
-8.52787e-10
6.54865e-08
-7.40317e-10
6.55504e-08
-6.29202e-10
6.55472e-08
-5.06222e-10
6.54655e-08
-3.56706e-10
6.5288e-08
-1.64266e-10
6.49915e-08
8.78356e-11
6.45466e-08
4.17667e-10
6.39171e-08
8.43741e-10
6.30603e-08
1.38496e-09
6.19266e-08
2.06057e-09
6.04597e-08
2.88973e-09
5.85963e-08
3.89161e-09
5.62663e-08
5.08519e-09
5.33932e-08
6.48934e-09
4.98935e-08
8.12276e-09
4.56773e-08
1.00041e-08
4.0648e-08
1.21521e-08
3.47027e-08
1.45853e-08
2.77327e-08
1.73221e-08
1.96224e-08
2.03809e-08
1.02501e-08
2.37805e-08
-5.11007e-10
2.75378e-08
-1.27919e-08
3.16694e-08
-2.67275e-08
3.61891e-08
-4.2455e-08
4.11078e-08
-6.01124e-08
4.64325e-08
-7.98365e-08
5.21652e-08
-1.0176e-07
5.83019e-08
-1.2601e-07
6.48313e-08
-1.52703e-07
7.1734e-08
-1.81941e-07
7.89811e-08
-2.13813e-07
8.65338e-08
-2.48383e-07
9.43424e-08
-2.85694e-07
1.02346e-07
-3.25756e-07
1.10472e-07
-3.68553e-07
1.18639e-07
-4.14028e-07
1.26752e-07
-4.62089e-07
1.34709e-07
-5.12604e-07
1.42399e-07
-5.65397e-07
1.49703e-07
-6.20252e-07
1.565e-07
-6.76907e-07
1.62662e-07
-7.35063e-07
1.68065e-07
-7.94375e-07
1.72581e-07
-8.54464e-07
1.76088e-07
-9.14915e-07
1.78469e-07
-9.7528e-07
1.79613e-07
-1.03509e-06
1.79417e-07
-1.09383e-06
1.77788e-07
-1.151e-06
1.74642e-07
-1.20606e-06
1.69908e-07
-1.25848e-06
1.63526e-07
-1.30769e-06
1.55448e-07
-1.35316e-06
1.45641e-07
-1.39434e-06
1.34084e-07
-1.4307e-06
1.20775e-07
-1.46171e-06
1.05725e-07
-1.48689e-06
8.89659e-08
-1.50576e-06
7.05508e-08
-1.51788e-06
5.05518e-08
-1.52288e-06
2.90534e-08
-1.52039e-06
6.31109e-09
-1.51014e-06
-1.75721e-08
-1.49192e-06
-4.24325e-08
-1.4656e-06
-6.79745e-08
-1.43114e-06
-9.38881e-08
-1.38861e-06
-1.19817e-07
-1.33821e-06
-1.45348e-07
-1.28023e-06
-1.70038e-07
-1.21515e-06
-1.9341e-07
-1.14355e-06
-2.14953e-07
-1.06617e-06
-2.3414e-07
-9.83899e-07
-2.50451e-07
-8.97762e-07
-2.63387e-07
-8.08908e-07
-2.72504e-07
-7.18593e-07
-2.77432e-07
-6.2815e-07
-2.7791e-07
-5.38957e-07
-2.73807e-07
-4.52394e-07
-2.65142e-07
-3.69799e-07
-2.52101e-07
-2.92418e-07
-2.35039e-07
-2.21361e-07
-2.14471e-07
-1.57556e-07
-1.91053e-07
-1.01713e-07
-1.6555e-07
-5.42984e-08
-1.38796e-07
-1.55221e-08
-1.11642e-07
1.46647e-08
-8.49181e-08
3.65565e-08
-5.9383e-08
5.06722e-08
-3.57029e-08
5.77282e-08
-1.44371e-08
5.86123e-08
3.94791e-09
5.43657e-08
1.90483e-08
4.61801e-08
3.04514e-08
3.54028e-08
3.7653e-08
2.35632e-08
3.99952e-08
1.23903e-08
3.6651e-08
3.80531e-09
2.67898e-08
1.0458e-08
7.09385e-11
1.52788e-10
4.49932e-10
-7.06313e-10
1.24096e-09
-2.17104e-09
2.4913e-09
-3.87505e-09
4.20845e-09
-5.6153e-09
6.37242e-09
-7.27213e-09
8.94526e-09
-8.77684e-09
1.18778e-08
-1.00911e-08
1.51143e-08
-1.1195e-08
1.8596e-08
-1.20808e-08
2.22633e-08
-1.27483e-08
2.60576e-08
-1.3203e-08
2.99225e-08
-1.34548e-08
3.38048e-08
-1.35165e-08
3.76556e-08
-1.34036e-08
4.14304e-08
-1.31335e-08
4.50902e-08
-1.27252e-08
4.86008e-08
-1.21982e-08
5.19342e-08
-1.15731e-08
5.50676e-08
-1.08701e-08
5.79838e-08
-1.01093e-08
6.0671e-08
-9.30994e-09
6.31225e-08
-8.49051e-09
6.53363e-08
-7.66798e-09
6.73145e-08
-6.85787e-09
6.90634e-08
-6.0739e-09
7.05921e-08
-5.32789e-09
7.19128e-08
-4.62957e-09
7.30394e-08
-3.98652e-09
7.39875e-08
-3.40398e-09
7.47732e-08
-2.88488e-09
7.54127e-08
-2.4297e-09
7.59216e-08
-2.03642e-09
7.63138e-08
-1.70055e-09
7.66014e-08
-1.41504e-09
7.67932e-08
-1.17033e-09
7.68948e-08
-9.54355e-10
7.69071e-08
-7.52623e-10
7.68262e-08
-5.48308e-10
7.66425e-08
-3.22497e-10
7.63399e-08
-5.41349e-11
7.58959e-08
2.79754e-10
7.52804e-08
7.03289e-10
7.4456e-08
1.24209e-09
7.33772e-08
1.92258e-09
7.19904e-08
2.77179e-09
7.02338e-08
3.81715e-09
6.80374e-08
5.0861e-09
6.53229e-08
6.60607e-09
6.20039e-08
8.40423e-09
5.79857e-08
1.05076e-08
5.31657e-08
1.29428e-08
4.74334e-08
1.57364e-08
4.06707e-08
1.89148e-08
3.27518e-08
2.25041e-08
2.35438e-08
2.65301e-08
1.29063e-08
3.10184e-08
6.93136e-10
3.59936e-08
-1.32477e-08
4.14786e-08
-2.90726e-08
4.74942e-08
-4.69409e-08
5.40574e-08
-6.70135e-08
6.11803e-08
-8.94499e-08
6.88689e-08
-1.14406e-07
7.71214e-08
-1.42031e-07
8.59269e-08
-1.72463e-07
9.52635e-08
-2.05827e-07
1.05097e-07
-2.42225e-07
1.1538e-07
-2.81741e-07
1.2605e-07
-3.24427e-07
1.37028e-07
-3.70303e-07
1.48222e-07
-4.19354e-07
1.59523e-07
-4.71523e-07
1.70807e-07
-5.26707e-07
1.81936e-07
-5.84758e-07
1.92761e-07
-6.45481e-07
2.03121e-07
-7.08628e-07
2.1285e-07
-7.73904e-07
2.21775e-07
-8.40964e-07
2.29723e-07
-9.0942e-07
2.3652e-07
-9.78836e-07
2.41997e-07
-1.04874e-06
2.45994e-07
-1.11863e-06
2.48357e-07
-1.18796e-06
2.48946e-07
-1.25618e-06
2.47635e-07
-1.32271e-06
2.44312e-07
-1.38694e-06
2.3888e-07
-1.4483e-06
2.3126e-07
-1.50616e-06
2.2139e-07
-1.55994e-06
2.09227e-07
-1.60904e-06
1.94746e-07
-1.6529e-06
1.77941e-07
-1.69095e-06
1.58828e-07
-1.72267e-06
1.37445e-07
-1.74756e-06
1.13854e-07
-1.76515e-06
8.81433e-08
-1.77503e-06
6.04313e-08
-1.77685e-06
3.08662e-08
-1.77026e-06
-2.77803e-10
-1.75502e-06
-3.28111e-08
-1.73097e-06
-6.64787e-08
-1.69804e-06
-1.00909e-07
-1.65623e-06
-1.35698e-07
-1.60566e-06
-1.70384e-07
-1.54658e-06
-2.04432e-07
-1.47935e-06
-2.3727e-07
-1.40447e-06
-2.68283e-07
-1.32261e-06
-2.96818e-07
-1.23455e-06
-3.22202e-07
-1.14123e-06
-3.43764e-07
-1.04375e-06
-3.60865e-07
-9.43329e-07
-3.72929e-07
-8.41287e-07
-3.79475e-07
-7.39044e-07
-3.80153e-07
-6.38072e-07
-3.74778e-07
-5.39858e-07
-3.63356e-07
-4.45853e-07
-3.46105e-07
-3.5743e-07
-3.23461e-07
-2.75829e-07
-2.96072e-07
-2.02107e-07
-2.64774e-07
-1.37103e-07
-2.30555e-07
-8.13966e-08
-1.94502e-07
-3.52936e-08
-1.57745e-07
1.1839e-09
-1.21396e-07
2.82907e-08
-8.64897e-08
4.65402e-08
-5.39524e-08
5.66809e-08
-2.45778e-08
5.96691e-08
9.59758e-10
5.66509e-08
2.20665e-08
4.89482e-08
3.81541e-08
3.80609e-08
4.85404e-08
2.56819e-08
5.23741e-08
1.37143e-08
4.86187e-08
4.2962e-09
3.62078e-08
1.47542e-08
1.333e-10
1.95753e-11
6.57915e-10
-1.2309e-09
1.65675e-09
-3.1699e-09
3.16835e-09
-5.3867e-09
5.19585e-09
-7.64284e-09
7.71595e-09
-9.79227e-09
1.06871e-08
-1.1748e-08
1.40555e-08
-1.34595e-08
1.77604e-08
-1.48999e-08
2.17369e-08
-1.60573e-08
2.5919e-08
-1.69304e-08
3.02417e-08
-1.75257e-08
3.4642e-08
-1.78551e-08
3.90606e-08
-1.7935e-08
4.34424e-08
-1.77854e-08
4.77376e-08
-1.74288e-08
5.1902e-08
-1.68895e-08
5.58972e-08
-1.61934e-08
5.9691e-08
-1.5367e-08
6.32575e-08
-1.44366e-08
6.6577e-08
-1.34287e-08
6.96354e-08
-1.23683e-08
7.24245e-08
-1.12796e-08
7.49413e-08
-1.01848e-08
7.71875e-08
-9.10409e-09
7.91691e-08
-8.05548e-09
8.08956e-08
-7.05438e-09
8.23795e-08
-6.11347e-09
8.36355e-08
-5.24255e-09
8.46799e-08
-4.44839e-09
8.55296e-08
-3.73461e-09
8.62016e-08
-3.10163e-09
8.67117e-08
-2.54654e-09
8.70743e-08
-2.06312e-09
8.7301e-08
-1.64175e-09
8.74001e-08
-1.26943e-09
8.73756e-08
-9.29865e-10
8.72264e-08
-6.03466e-10
8.69457e-08
-2.67565e-10
8.65198e-08
1.03409e-10
8.59278e-08
5.37822e-10
8.51411e-08
1.06649e-09
8.41223e-08
1.72204e-09
8.28255e-08
2.53895e-09
8.11952e-08
3.55287e-09
7.91667e-08
4.80029e-09
7.66656e-08
6.31825e-09
7.36078e-08
8.14385e-09
6.98997e-08
1.03142e-08
6.54381e-08
1.28659e-08
6.011e-08
1.58356e-08
5.37937e-08
1.92591e-08
4.63581e-08
2.3172e-08
3.76633e-08
2.76096e-08
2.75611e-08
3.26064e-08
1.58949e-08
3.81962e-08
2.50113e-09
4.44122e-08
-1.27906e-08
5.12854e-08
-3.01561e-08
5.88441e-08
-4.97746e-08
6.71128e-08
-7.18276e-08
7.61104e-08
-9.64957e-08
8.58485e-08
-1.23956e-07
9.63294e-08
-1.54379e-07
1.07544e-07
-1.87923e-07
1.19471e-07
-2.24733e-07
1.32073e-07
-2.64929e-07
1.45294e-07
-3.0861e-07
1.59061e-07
-3.55842e-07
1.73281e-07
-4.06655e-07
1.87841e-07
-4.61037e-07
2.02604e-07
-5.18931e-07
2.17417e-07
-5.8023e-07
2.32106e-07
-6.44775e-07
2.46481e-07
-7.1235e-07
2.60336e-07
-7.82686e-07
2.73457e-07
-8.55456e-07
2.8562e-07
-9.3028e-07
2.96599e-07
-1.00673e-06
3.06169e-07
-1.08432e-06
3.14109e-07
-1.16253e-06
3.20208e-07
-1.2408e-06
3.24267e-07
-1.31854e-06
3.26103e-07
-1.39515e-06
3.25552e-07
-1.46999e-06
3.22471e-07
-1.54241e-06
3.16736e-07
-1.61178e-06
3.08248e-07
-1.67745e-06
2.96932e-07
-1.73879e-06
2.82733e-07
-1.79519e-06
2.65622e-07
-1.84604e-06
2.45596e-07
-1.89077e-06
2.22671e-07
-1.92883e-06
1.96894e-07
-1.95973e-06
1.68336e-07
-1.98297e-06
1.37098e-07
-1.99814e-06
1.03312e-07
-2.00485e-06
6.71479e-08
-2.0028e-06
2.88155e-08
-1.9917e-06
-1.13781e-08
-1.97135e-06
-5.31593e-08
-1.94165e-06
-9.6185e-08
-1.90255e-06
-1.40007e-07
-1.85412e-06
-1.84129e-07
-1.79652e-06
-2.27986e-07
-1.73002e-06
-2.70931e-07
-1.65502e-06
-3.12264e-07
-1.57207e-06
-3.51238e-07
-1.48182e-06
-3.87063e-07
-1.38511e-06
-4.18917e-07
-1.28289e-06
-4.45986e-07
-1.17626e-06
-4.67488e-07
-1.06648e-06
-4.82709e-07
-9.54908e-07
-4.91051e-07
-8.42995e-07
-4.92065e-07
-7.32272e-07
-4.85501e-07
-6.24293e-07
-4.71336e-07
-5.20593e-07
-4.49806e-07
-4.22641e-07
-4.21413e-07
-3.31787e-07
-3.86926e-07
-2.49207e-07
-3.47354e-07
-1.75857e-07
-3.03905e-07
-1.12435e-07
-2.57925e-07
-5.93495e-08
-2.10831e-07
-1.67101e-08
-1.64035e-07
1.56765e-08
-1.18876e-07
3.82924e-08
-7.65684e-08
5.18883e-08
-3.81736e-08
5.74565e-08
-4.60846e-09
5.62112e-08
2.33117e-08
4.95695e-08
4.47958e-08
3.91471e-08
5.89628e-08
2.67651e-08
6.4756e-08
1.44707e-08
6.09131e-08
4.59135e-09
4.60872e-08
1.93455e-08
1.96889e-10
-1.7727e-10
8.70967e-10
-1.90497e-09
2.08153e-09
-4.38049e-09
3.85542e-09
-7.16065e-09
6.18935e-09
-9.97681e-09
9.0557e-09
-1.26587e-08
1.2409e-08
-1.51012e-08
1.61913e-08
-1.72418e-08
2.0337e-08
-1.90456e-08
2.47761e-08
-2.04964e-08
2.94372e-08
-2.15915e-08
3.42495e-08
-2.23379e-08
3.91443e-08
-2.27499e-08
4.40569e-08
-2.28476e-08
4.8927e-08
-2.26555e-08
5.36998e-08
-2.22016e-08
5.83266e-08
-2.15163e-08
6.27651e-08
-2.06319e-08
6.69796e-08
-1.95815e-08
7.09411e-08
-1.83982e-08
7.46275e-08
-1.7115e-08
7.80227e-08
-1.57635e-08
8.11169e-08
-1.43739e-08
8.39061e-08
-1.2974e-08
8.63912e-08
-1.15892e-08
8.85778e-08
-1.02421e-08
9.04754e-08
-8.95198e-09
9.20966e-08
-7.73463e-09
9.34563e-08
-6.60224e-09
9.4571e-08
-5.56313e-09
9.5458e-08
-4.62162e-09
9.61343e-08
-3.77792e-09
9.66158e-08
-3.02802e-09
9.69163e-08
-2.36363e-09
9.70467e-08
-1.77215e-09
9.70139e-08
-1.23664e-09
9.68199e-08
-7.35898e-10
9.6461e-08
-2.44539e-10
9.59266e-08
2.66806e-10
9.51987e-08
8.31281e-10
9.4251e-08
1.48557e-09
9.3048e-08
2.26945e-09
9.15448e-08
3.22525e-09
8.96862e-08
4.39753e-09
8.74066e-08
5.83246e-09
8.46296e-08
7.57733e-09
8.12677e-08
9.6801e-09
7.72227e-08
1.21889e-08
7.2385e-08
1.51518e-08
6.66344e-08
1.86165e-08
5.984e-08
2.26299e-08
5.18604e-08
2.72387e-08
4.25441e-08
3.24884e-08
3.17298e-08
3.84239e-08
1.92471e-08
4.50891e-08
4.91696e-09
5.25263e-08
-1.1447e-08
6.07762e-08
-3.00376e-08
6.9876e-08
-5.10523e-08
7.98588e-08
-7.46911e-08
9.07516e-08
-1.01154e-07
1.02573e-07
-1.30638e-07
1.15333e-07
-1.63333e-07
1.29024e-07
-1.99418e-07
1.43629e-07
-2.39054e-07
1.59108e-07
-2.82384e-07
1.75402e-07
-3.29519e-07
1.92429e-07
-3.8054e-07
2.10082e-07
-4.35487e-07
2.28229e-07
-4.94358e-07
2.46711e-07
-5.57095e-07
2.65342e-07
-6.23592e-07
2.83914e-07
-6.9368e-07
3.02194e-07
-7.6713e-07
3.19932e-07
-8.43654e-07
3.3686e-07
-9.22898e-07
3.52701e-07
-1.00445e-06
3.67174e-07
-1.08785e-06
3.79995e-07
-1.17257e-06
3.90888e-07
-1.25804e-06
3.99585e-07
-1.34367e-06
4.05838e-07
-1.42882e-06
4.09416e-07
-1.51283e-06
4.10114e-07
-1.59503e-06
4.07752e-07
-1.67474e-06
4.02179e-07
-1.75128e-06
3.93274e-07
-1.82398e-06
3.80945e-07
-1.89218e-06
3.65131e-07
-1.95524e-06
3.45799e-07
-2.01257e-06
3.22946e-07
-2.06357e-06
2.96596e-07
-2.1077e-06
2.66803e-07
-2.14445e-06
2.33649e-07
-2.17336e-06
1.97246e-07
-2.19401e-06
1.57741e-07
-2.20601e-06
1.15313e-07
-2.20904e-06
7.0184e-08
-2.20285e-06
2.26224e-08
-2.1872e-06
-2.70234e-08
-2.16196e-06
-7.84028e-08
-2.12705e-06
-1.31093e-07
-2.08249e-06
-1.84573e-07
-2.02836e-06
-2.38261e-07
-1.96485e-06
-2.91494e-07
-1.89225e-06
-3.43526e-07
-1.81098e-06
-3.93534e-07
-1.72157e-06
-4.40649e-07
-1.62469e-06
-4.83947e-07
-1.52114e-06
-5.22467e-07
-1.41188e-06
-5.55249e-07
-1.298e-06
-5.81366e-07
-1.18074e-06
-5.99969e-07
-1.06146e-06
-6.10327e-07
-9.41638e-07
-6.11888e-07
-8.22823e-07
-6.04317e-07
-7.06611e-07
-5.87548e-07
-5.94601e-07
-5.61816e-07
-4.8834e-07
-5.27673e-07
-3.89273e-07
-4.85993e-07
-2.98683e-07
-4.37944e-07
-2.17642e-07
-3.84945e-07
-1.46964e-07
-3.28603e-07
-8.71701e-08
-2.70625e-07
-3.84661e-08
-2.12739e-07
-7.37069e-10
-1.56605e-07
2.64481e-08
-1.03754e-07
4.38175e-08
-5.55431e-08
5.23742e-08
-1.31651e-08
5.33698e-08
2.23161e-08
4.82876e-08
4.98781e-08
3.88294e-08
6.84211e-08
2.69168e-08
7.66686e-08
1.47164e-08
7.31136e-08
4.71338e-09
5.60902e-08
2.40589e-08
2.59646e-10
-4.36836e-10
1.08324e-09
-2.72853e-09
2.50567e-09
-5.80294e-09
4.54004e-09
-9.19507e-09
7.17491e-09
-1.26117e-08
1.03773e-08
-1.58611e-08
1.40974e-08
-1.88213e-08
1.82731e-08
-2.14176e-08
2.28345e-08
-2.36069e-08
2.7707e-08
-2.53688e-08
3.28142e-08
-2.66987e-08
3.80804e-08
-2.76041e-08
4.3432e-08
-2.81016e-08
4.87994e-08
-2.8215e-08
5.41177e-08
-2.79739e-08
5.93279e-08
-2.74118e-08
6.43772e-08
-2.65657e-08
6.92198e-08
-2.54745e-08
7.38168e-08
-2.41785e-08
7.81365e-08
-2.2718e-08
8.21544e-08
-2.11329e-08
8.58526e-08
-1.94618e-08
8.92199e-08
-1.77411e-08
9.22508e-08
-1.60049e-08
9.49456e-08
-1.4284e-08
9.73093e-08
-1.26058e-08
9.93509e-08
-1.09936e-08
1.01083e-07
-9.46653e-09
1.0252e-07
-8.03926e-09
1.03678e-07
-6.72164e-09
1.04575e-07
-5.51863e-09
1.05228e-07
-4.43008e-09
1.0565e-07
-3.45061e-09
1.05856e-07
-2.56957e-09
1.05855e-07
-1.7709e-09
1.05651e-07
-1.03319e-09
1.05245e-07
-3.29727e-10
1.04629e-07
3.7142e-10
1.03789e-07
1.10715e-09
1.02701e-07
1.91909e-09
1.01333e-07
2.85324e-09
9.96434e-08
3.95947e-09
9.75777e-08
5.29089e-09
9.50718e-08
6.90342e-09
9.20493e-08
8.85498e-09
8.84217e-08
1.1205e-08
8.40882e-08
1.40136e-08
7.89358e-08
1.73413e-08
7.28392e-08
2.12484e-08
6.5661e-08
2.57947e-08
5.72519e-08
3.10391e-08
4.74511e-08
3.70394e-08
3.60869e-08
4.38526e-08
2.29771e-08
5.15338e-08
7.92968e-09
6.01365e-08
-9.2558e-09
6.97118e-08
-2.87872e-08
8.03076e-08
-5.08781e-08
9.19668e-08
-7.57453e-08
1.04726e-07
-1.03607e-07
1.18613e-07
-1.34677e-07
1.33644e-07
-1.69165e-07
1.49821e-07
-2.07268e-07
1.67127e-07
-2.49167e-07
1.85528e-07
-2.9502e-07
2.04961e-07
-3.44958e-07
2.2534e-07
-3.99075e-07
2.46546e-07
-4.57425e-07
2.68432e-07
-5.20011e-07
2.90816e-07
-5.86786e-07
3.13486e-07
-6.57641e-07
3.36197e-07
-7.32404e-07
3.58677e-07
-8.10837e-07
3.80627e-07
-8.92636e-07
4.0173e-07
-9.77426e-07
4.2165e-07
-1.06477e-06
4.40047e-07
-1.15418e-06
4.56577e-07
-1.24508e-06
4.70901e-07
-1.33689e-06
4.82694e-07
-1.42895e-06
4.9165e-07
-1.5206e-06
4.97486e-07
-1.61113e-06
4.99951e-07
-1.69985e-06
4.98827e-07
-1.78603e-06
4.93931e-07
-1.86896e-06
4.85117e-07
-1.94797e-06
4.7228e-07
-2.02237e-06
4.55347e-07
-2.09153e-06
4.34285e-07
-2.15482e-06
4.09091e-07
-2.21167e-06
3.798e-07
-2.26155e-06
3.46476e-07
-2.30396e-06
3.09212e-07
-2.33845e-06
2.68135e-07
-2.3646e-06
2.23404e-07
-2.38207e-06
1.75208e-07
-2.39054e-06
1.23778e-07
-2.38974e-06
6.9384e-08
-2.37946e-06
1.23477e-08
-2.35955e-06
-4.69397e-08
-2.32989e-06
-1.08061e-07
-2.29046e-06
-1.70524e-07
-2.24129e-06
-2.33743e-07
-2.18249e-06
-2.97059e-07
-2.11426e-06
-3.59725e-07
-2.03688e-06
-4.20901e-07
-1.95076e-06
-4.79659e-07
-1.8564e-06
-5.3501e-07