/*--------------------------------*- C++ -*----------------------------------*\
  =========                 |
  \\      /  F ield         | OpenFOAM: The Open Source CFD Toolbox
   \\    /   O peration     | Website:  https://openfoam.org
    \\  /    A nd           | Version:  12
     \\/     M anipulation  |
\*---------------------------------------------------------------------------*/
FoamFile
{
    format      ascii;
    class       volScalarField;
    location    "6";
    object      k;
}
// * * * * * * * * * * * * * * * * * * * * * * * * * * * * * * * * * * * * * //

dimensions      [0 2 -2 0 0 0 0];

internalField   nonuniform List<scalar> 
5625
(
1.77142e-10
1.19815e-09
2.66663e-09
4.41184e-09
6.3524e-09
8.43746e-09
1.06328e-08
1.29163e-08
1.52771e-08
1.7714e-08
2.02357e-08
2.28604e-08
2.56146e-08
2.85334e-08
3.16591e-08
3.50408e-08
3.87339e-08
4.27992e-08
4.73022e-08
5.23124e-08
5.7903e-08
6.41497e-08
7.11301e-08
7.89232e-08
8.7608e-08
9.72633e-08
1.07966e-07
1.19791e-07
1.32809e-07
1.47087e-07
1.62687e-07
1.79666e-07
1.98074e-07
2.17953e-07
2.39339e-07
2.62261e-07
2.86737e-07
3.12777e-07
3.40382e-07
3.69536e-07
4.00209e-07
4.32349e-07
4.65877e-07
5.00678e-07
5.36588e-07
5.73382e-07
6.10759e-07
6.48324e-07
6.85569e-07
7.21855e-07
7.56393e-07
7.88234e-07
8.16243e-07
8.3903e-07
8.54458e-07
8.61382e-07
8.61655e-07
8.50596e-07
8.27596e-07
7.92555e-07
7.45834e-07
6.88484e-07
6.22345e-07
5.49968e-07
4.74408e-07
3.98888e-07
3.26435e-07
2.59531e-07
1.99878e-07
1.48318e-07
1.04902e-07
6.91107e-08
4.01881e-08
1.76646e-08
2.60186e-09
1.33886e-09
1.06703e-08
2.39274e-08
3.96523e-08
5.71275e-08
7.58991e-08
9.56598e-08
1.16213e-07
1.37457e-07
1.59385e-07
1.82075e-07
2.05689e-07
2.30468e-07
2.56726e-07
2.84844e-07
3.15265e-07
3.48486e-07
3.85054e-07
4.2556e-07
4.7063e-07
5.20922e-07
5.77118e-07
6.39917e-07
7.10028e-07
7.88164e-07
8.75031e-07
9.71325e-07
1.07772e-06
1.19484e-06
1.32331e-06
1.46368e-06
1.61645e-06
1.78207e-06
1.96093e-06
2.15336e-06
2.35959e-06
2.57981e-06
2.8141e-06
3.06245e-06
3.32475e-06
3.60071e-06
3.88987e-06
4.19152e-06
4.50463e-06
4.82772e-06
5.1588e-06
5.49515e-06
5.83323e-06
6.16849e-06
6.49518e-06
6.80624e-06
7.09314e-06
7.34569e-06
7.55151e-06
7.6909e-06
7.75145e-06
7.75287e-06
7.65154e-06
7.44284e-06
7.12606e-06
6.70453e-06
6.1878e-06
5.59243e-06
4.94136e-06
4.262e-06
3.58324e-06
2.93219e-06
2.33107e-06
1.79514e-06
1.33191e-06
9.41831e-07
6.20176e-07
3.60032e-07
1.57089e-07
1.96465e-08
2.84447e-09
2.43747e-08
5.50143e-08
9.13579e-08
1.31737e-07
1.75101e-07
2.20739e-07
2.68196e-07
3.17241e-07
3.67854e-07
4.20216e-07
4.74703e-07
5.31873e-07
5.92453e-07
6.57325e-07
7.27514e-07
8.04173e-07
8.88568e-07
9.82066e-07
1.08612e-06
1.20225e-06
1.33205e-06
1.47713e-06
1.63916e-06
1.81977e-06
2.02064e-06
2.24337e-06
2.48955e-06
2.76068e-06
3.05817e-06
3.38335e-06
3.73742e-06
4.12146e-06
4.53638e-06
4.98296e-06
5.46179e-06
5.97329e-06
6.51765e-06
7.09483e-06
7.70447e-06
8.34584e-06
9.01776e-06
9.7184e-06
1.04452e-05
1.11945e-05
1.19614e-05
1.27393e-05
1.352e-05
1.42925e-05
1.50436e-05
1.57568e-05
1.64125e-05
1.69874e-05
1.74543e-05
1.77653e-05
1.78952e-05
1.78948e-05
1.76549e-05
1.7168e-05
1.64329e-05
1.54569e-05
1.42621e-05
1.28863e-05
1.13825e-05
9.81406e-06
8.24773e-06
6.74616e-06
5.3606e-06
4.12611e-06
3.05975e-06
2.16228e-06
1.4225e-06
8.24256e-07
3.57412e-07
4.15741e-08
4.65443e-09
4.0876e-08
9.27019e-08
1.54252e-07
2.22646e-07
2.96085e-07
3.73357e-07
4.53688e-07
5.36683e-07
6.22311e-07
7.1088e-07
8.03029e-07
8.99707e-07
1.00215e-06
1.11186e-06
1.23057e-06
1.36026e-06
1.50307e-06
1.66133e-06
1.83752e-06
2.03424e-06
2.25419e-06
2.50016e-06
2.77496e-06
3.08145e-06
3.42247e-06
3.80081e-06
4.21921e-06
4.68027e-06
5.18646e-06
5.7401e-06
6.34326e-06
6.99782e-06
7.70537e-06
8.46721e-06
9.2843e-06
1.01572e-05
1.10862e-05
1.20708e-05
1.31101e-05
1.42024e-05
1.53451e-05
1.65346e-05
1.77659e-05
1.90321e-05
2.03244e-05
2.16315e-05
2.29388e-05
2.42283e-05
2.54779e-05
2.66607e-05
2.77448e-05
2.86926e-05
2.94618e-05
2.99671e-05
3.01728e-05
3.01696e-05
2.97629e-05
2.89434e-05
2.77078e-05
2.60667e-05
2.40547e-05
2.17348e-05
1.9196e-05
1.65456e-05
1.3898e-05
1.13601e-05
9.01985e-06
6.93677e-06
5.1395e-06
3.62859e-06
2.38432e-06
1.37885e-06
5.95132e-07
6.75411e-08
6.71444e-09
5.95555e-08
1.3553e-07
2.25912e-07
3.26387e-07
4.34269e-07
5.47759e-07
6.65707e-07
7.87532e-07
9.13184e-07
1.04312e-06
1.17829e-06
1.3201e-06
1.47036e-06
1.6313e-06
1.80551e-06
1.99587e-06
2.20559e-06
2.4381e-06
2.69709e-06
2.98642e-06
3.3101e-06
3.67228e-06
4.07719e-06
4.5291e-06
5.03226e-06
5.59089e-06
6.2091e-06
6.89083e-06
7.63982e-06
8.45952e-06
9.35305e-06
1.03231e-05
1.13721e-05
1.25015e-05
1.37126e-05
1.50056e-05
1.63802e-05
1.78349e-05
1.93673e-05
2.09737e-05
2.26489e-05
2.43862e-05
2.61769e-05
2.80101e-05
2.98723e-05
3.17467e-05
3.36129e-05
3.5446e-05
3.72158e-05
3.88862e-05
4.04143e-05
4.17494e-05
4.28349e-05
4.35484e-05
4.3839e-05
4.38419e-05
4.32692e-05
4.21029e-05
4.03358e-05
3.79771e-05
3.50718e-05
3.17078e-05
2.80134e-05
2.41462e-05
2.0276e-05
1.65631e-05
1.31395e-05
1.00945e-05
7.47066e-06
5.26824e-06
3.45712e-06
1.99549e-06
8.58367e-07
9.64413e-08
8.98798e-09
8.00956e-08
1.82722e-07
3.05016e-07
4.41047e-07
5.87115e-07
7.4075e-07
9.00373e-07
1.06519e-06
1.23513e-06
1.41083e-06
1.59358e-06
1.78529e-06
1.98847e-06
2.20614e-06
2.44182e-06
2.6995e-06
2.98353e-06
3.29864e-06
3.64986e-06
4.04252e-06
4.48213e-06
4.97442e-06
5.52523e-06
6.14046e-06
6.82605e-06
7.58782e-06
8.4315e-06
9.36255e-06
1.03861e-05
1.15068e-05
1.27289e-05
1.40557e-05
1.54899e-05
1.70332e-05
1.8686e-05
2.04476e-05
2.23157e-05
2.42865e-05
2.63545e-05
2.85124e-05
3.0751e-05
3.3059e-05
3.54232e-05
3.78281e-05
4.02556e-05
4.26846e-05
4.50902e-05
4.74432e-05
4.97082e-05
5.1843e-05
5.37966e-05
5.55076e-05
5.69062e-05
5.78427e-05
5.82375e-05
5.82646e-05
5.7556e-05
5.60664e-05
5.3783e-05
5.07081e-05
4.68926e-05
4.24464e-05
3.75368e-05
3.23746e-05
2.71905e-05
2.22059e-05
1.76042e-05
1.35114e-05
9.98763e-06
7.03409e-06
4.6094e-06
2.65597e-06
1.1396e-06
1.27422e-07
1.14536e-08
1.02323e-07
2.33842e-07
3.90804e-07
5.65508e-07
7.53126e-07
9.50431e-07
1.15537e-06
1.36691e-06
1.58496e-06
1.81034e-06
2.04474e-06
2.29065e-06
2.55131e-06
2.83066e-06
3.1333e-06
3.46437e-06
3.82956e-06
4.23504e-06
4.68737e-06
5.19349e-06
5.76065e-06
6.39635e-06
7.10826e-06
7.90414e-06
8.7918e-06
9.77889e-06
1.08729e-05
1.20809e-05
1.34094e-05
1.48642e-05
1.64502e-05
1.81712e-05
2.00293e-05
2.20251e-05
2.41574e-05
2.64226e-05
2.88149e-05
3.13263e-05
3.39462e-05
3.66619e-05
3.94588e-05
4.23204e-05
4.52287e-05
4.81646e-05
5.1107e-05
5.40331e-05
5.69173e-05
5.97293e-05
6.24328e-05
6.49828e-05
6.73233e-05
6.93847e-05
7.1084e-05
7.22592e-05
7.27804e-05
7.28526e-05
7.20538e-05
7.02866e-05
6.75347e-05
6.37886e-05
5.90993e-05
5.35933e-05
4.74728e-05
4.09993e-05
3.44659e-05
2.81591e-05
2.23209e-05
1.71207e-05
1.26429e-05
8.89292e-06
5.81921e-06
3.34766e-06
1.4336e-06
1.5987e-07
1.40996e-08
1.26148e-07
2.88655e-07
4.82854e-07
6.99133e-07
9.3143e-07
1.17569e-06
1.42932e-06
1.69103e-06
1.96072e-06
2.23943e-06
2.52926e-06
2.83335e-06
3.15577e-06
3.50149e-06
3.87624e-06
4.28653e-06
4.73948e-06
5.24286e-06
5.80495e-06
6.4345e-06
7.14066e-06
7.93293e-06
8.821e-06
9.81469e-06
1.09238e-05
1.2158e-05
1.35266e-05
1.50381e-05
1.67003e-05
1.85199e-05
2.05017e-05
2.26488e-05
2.49619e-05
2.7439e-05
3.00752e-05
3.28621e-05
3.57883e-05
3.88392e-05
4.19976e-05
4.5244e-05
4.85578e-05
5.19176e-05
5.53023e-05
5.86912e-05
6.20641e-05
6.54002e-05
6.86771e-05
7.18679e-05
7.49385e-05
7.7844e-05
8.05251e-05
8.29047e-05
8.48862e-05
8.63058e-05
8.69678e-05
8.71001e-05
8.62556e-05
8.42642e-05
8.11105e-05
7.67698e-05
7.12878e-05
6.48003e-05
5.75351e-05
4.97971e-05
4.19369e-05
3.43061e-05
2.72101e-05
2.08696e-05
1.54011e-05
1.08211e-05
7.07124e-06
4.06175e-06
1.73662e-06
1.93352e-07
1.69209e-08
1.51532e-07
3.47059e-07
5.80965e-07
8.41604e-07
1.12158e-06
1.41592e-06
1.72148e-06
2.03666e-06
2.36136e-06
2.69685e-06
3.04571e-06
3.41181e-06
3.80013e-06
4.21673e-06
4.66866e-06
5.16387e-06
5.7111e-06
6.31988e-06
7.00035e-06
7.76329e-06
8.61994e-06
9.58194e-06
1.06612e-05
1.18698e-05
1.32196e-05
1.47222e-05
1.63887e-05
1.82288e-05
2.02512e-05
2.24624e-05
2.48664e-05
2.74644e-05
3.02537e-05
3.32279e-05
3.63759e-05
3.96825e-05
4.31283e-05
4.66906e-05
5.03441e-05
5.40625e-05
5.782e-05
6.15924e-05
6.53585e-05
6.91e-05
7.28018e-05
7.64495e-05
8.00274e-05
8.35146e-05
8.6881e-05
9.00822e-05
9.30551e-05
9.57143e-05
9.79501e-05
9.96005e-05
0.000100399
0.000100595
9.97373e-05
9.75733e-05
9.4094e-05
8.92582e-05
8.31008e-05
7.5757e-05
6.74679e-05
5.85687e-05
4.94575e-05
4.05466e-05
3.22066e-05
2.47172e-05
1.82369e-05
1.28025e-05
8.35533e-06
4.79233e-06
2.04609e-06
2.2759e-07
1.99169e-08
1.78474e-07
4.09041e-07
6.85096e-07
9.92832e-07
1.32342e-06
1.67092e-06
2.03155e-06
2.40342e-06
2.7864e-06
3.18204e-06
3.59347e-06
4.02532e-06
4.48358e-06
4.97554e-06
5.50967e-06
6.0955e-06
6.74356e-06
7.46526e-06
8.27283e-06
9.17918e-06
1.01979e-05
1.13428e-05
1.26283e-05
1.40686e-05
1.56777e-05
1.74691e-05
1.94552e-05
2.16467e-05
2.4052e-05
2.66766e-05
2.95224e-05
3.25865e-05
3.5861e-05
3.93326e-05
4.29819e-05
4.67846e-05
5.07117e-05
5.47312e-05
5.88101e-05
6.29165e-05
6.70221e-05
7.11033e-05
7.51434e-05
7.91311e-05
8.30603e-05
8.69263e-05
9.0722e-05
9.44329e-05
9.80314e-05
0.000101472
0.000104685
0.000107577
0.000110025
0.000111869
0.000112781
0.000113031
0.000112177
0.000109888
0.000106164
0.000100948
9.42575e-05
8.62172e-05
7.70664e-05
6.71539e-05
5.69107e-05
4.68013e-05
3.72609e-05
2.86345e-05
2.1134e-05
1.48278e-05
9.66561e-06
5.5359e-06
2.36032e-06
2.62457e-07
2.30903e-08
2.07001e-07
4.74657e-07
7.95323e-07
1.1529e-06
1.53705e-06
1.94077e-06
2.3596e-06
2.79134e-06
3.23585e-06
3.69499e-06
4.17247e-06
4.67377e-06
5.20602e-06
5.77782e-06
6.39919e-06
7.08139e-06
7.83686e-06
8.67908e-06
9.6225e-06
1.06824e-05
1.18746e-05
1.32156e-05
1.47219e-05
1.64102e-05
1.82964e-05
2.03954e-05
2.27206e-05
2.52826e-05
2.80887e-05
3.11421e-05
3.44402e-05
3.79744e-05
4.17292e-05
4.56819e-05
4.9803e-05
5.40571e-05
5.8405e-05
6.28061e-05
6.72211e-05
7.16158e-05
7.59631e-05
8.02455e-05
8.44548e-05
8.85913e-05
9.26604e-05
9.6668e-05
0.000100615
0.000104491
0.000108267
0.000111893
0.000115293
0.000118361
0.000120965
0.000122945
0.000123933
0.000124217
0.000123369
0.000121001
0.000117115
0.000111638
0.00010457
9.60124e-05
8.61869e-05
7.5438e-05
6.42124e-05
5.30144e-05
4.23398e-05
3.26042e-05
2.4084e-05
1.68928e-05
1.09998e-05
6.29098e-06
2.6786e-06
2.97825e-07
2.64462e-08
2.37162e-07
5.44013e-07
9.11813e-07
1.32204e-06
1.76273e-06
2.22575e-06
2.70595e-06
3.20076e-06
3.71005e-06
4.23603e-06
4.78305e-06
5.35755e-06
5.96783e-06
6.62397e-06
7.33764e-06
8.12199e-06
8.9915e-06
9.96189e-06
1.10499e-05
1.22733e-05
1.36504e-05
1.52002e-05
1.69416e-05
1.88931e-05
2.10725e-05
2.34958e-05
2.61762e-05
2.91235e-05
3.23424e-05
3.58316e-05
3.95826e-05
4.35785e-05
4.77938e-05
5.21947e-05
5.67398e-05
6.13823e-05
6.60733e-05
7.07654e-05
7.54168e-05
7.99952e-05
8.44802e-05
8.88648e-05
9.31539e-05
9.73614e-05
0.000101505
0.0001056
0.00010965
0.000113646
0.000117554
0.000121315
0.000124843
0.000128025
0.000130722
0.00013277
0.000133792
0.00013409
0.000133236
0.00013083
0.00012686
0.00012124
0.000113946
0.000105051
9.47453e-05
8.335e-05
7.13087e-05
5.91503e-05
4.7424e-05
3.66183e-05
2.70855e-05
1.89984e-05
1.23587e-05
7.0577e-06
3.00087e-06
3.33671e-07
2.99921e-08
2.69024e-07
6.1726e-07
1.03481e-06
1.50057e-06
2.00086e-06
2.52636e-06
3.07113e-06
3.63226e-06
4.20964e-06
4.80582e-06
5.42591e-06
6.07733e-06
6.76972e-06
7.51471e-06
8.32578e-06
9.21807e-06
1.02083e-05
1.13144e-05
1.25557e-05
1.39524e-05
1.55255e-05
1.72961e-05
1.92856e-05
2.15143e-05
2.40011e-05
2.67621e-05
2.98099e-05
3.31516e-05
3.6788e-05
4.07113e-05
4.49047e-05
4.9341e-05
5.39827e-05
5.87834e-05
6.36893e-05
6.8643e-05
7.35883e-05
7.84746e-05
8.32622e-05
8.7926e-05
9.24577e-05
9.68647e-05
0.000101168
0.000105394
0.000109572
0.000113722
0.000117847
0.00012193
0.000125931
0.00012978
0.000133381
0.000136615
0.000139341
0.000141391
0.000142407
0.0001427
0.000141825
0.000139411
0.000135424
0.000129761
0.000122378
0.00011331
0.000102709
9.08547e-05
7.81697e-05
6.5189e-05
5.25043e-05
4.06763e-05
3.01419e-05
2.11488e-05
1.37452e-05
7.83747e-06
3.32757e-06
3.70034e-07
3.37368e-08
3.02669e-07
6.94583e-07
1.16461e-06
1.68891e-06
2.25198e-06
2.84321e-06
3.45586e-06
4.08663e-06
4.73543e-06
5.40524e-06
6.10193e-06
6.83404e-06
7.61262e-06
8.45097e-06
9.3645e-06
1.03705e-05
1.14879e-05
1.27372e-05
1.41402e-05
1.57196e-05
1.7499e-05
1.95018e-05
2.17512e-05
2.42689e-05
2.70744e-05
3.01831e-05
3.36054e-05
3.73446e-05
4.13952e-05
4.57413e-05
5.03554e-05
5.51982e-05
6.02191e-05
6.53582e-05
7.05506e-05
7.57303e-05
8.08374e-05
8.58231e-05
9.06554e-05
9.5322e-05
9.98307e-05
0.000104206
0.000108485
0.000112706
0.000116902
0.000121094
0.00012528
0.000129431
0.000133495
0.000137392
0.000141018
0.000144251
0.000146954
0.000148951
0.000149929
0.0001502
0.00014929
0.00014688
0.000142926
0.000137296
0.000129927
0.000120822
0.000110084
9.79437e-05
8.47814e-05
7.11198e-05
5.75771e-05
4.47809e-05
3.32598e-05
2.33505e-05
1.5164e-05
8.63262e-06
3.65949e-06
4.06994e-07
3.76908e-08
3.38193e-07
7.76198e-07
1.30156e-06
1.88756e-06
2.51671e-06
3.17706e-06
3.861e-06
4.56481e-06
5.28844e-06
6.03533e-06
6.81218e-06
7.62873e-06
8.49755e-06
9.43373e-06
1.04547e-05
1.158e-05
1.2831e-05
1.42306e-05
1.58033e-05
1.75743e-05
1.95694e-05
2.18142e-05
2.43335e-05
2.71498e-05
3.0282e-05
3.3744e-05
3.75425e-05
4.16752e-05
4.61285e-05
5.08763e-05
5.58788e-05
6.10832e-05
6.64251e-05
7.18324e-05
7.72306e-05
8.25494e-05
8.77297e-05
9.27304e-05
9.75326e-05
0.000102141
0.000106584
0.000110901
0.000115145
0.00011936
0.000123581
0.000127821
0.000132067
0.000136278
0.000140387
0.000144305
0.000147923
0.00015112
0.000153762
0.00015567
0.000156587
0.000156824
0.000155862
0.000153456
0.000149554
0.000144
0.000136711
0.000127663
0.000116911
0.000104628
9.11399e-05
7.69352e-05
6.26392e-05
4.89355e-05
3.64463e-05
2.56111e-05
1.66206e-05
9.44603e-06
3.99766e-06
4.4466e-07
4.1866e-08
3.75701e-07
8.62345e-07
1.44607e-06
2.09706e-06
2.79576e-06
3.52876e-06
4.2875e-06
5.06785e-06
5.86979e-06
6.69724e-06
7.5578e-06
8.46252e-06
9.42556e-06
1.04639e-05
1.15972e-05
1.28472e-05
1.42378e-05
1.57946e-05
1.75443e-05
1.95147e-05
2.17338e-05
2.42291e-05
2.7026e-05
3.01473e-05
3.36106e-05
3.74267e-05
4.15972e-05
4.61122e-05
5.09484e-05
5.60677e-05
6.14168e-05
6.69287e-05
7.25261e-05
7.81265e-05
8.36495e-05
8.90249e-05
9.42005e-05
9.91483e-05
0.000103868
0.000108384
0.000112744
0.000117005
0.000121227
0.000125459
0.000129729
0.000134037
0.000138357
0.000142632
0.000146783
0.000150712
0.000154309
0.000157453
0.000160019
0.000161817
0.000162661
0.000162855
0.000161823
0.000159406
0.000155542
0.000150073
0.000142886
0.00013394
0.000123251
0.000110934
9.72474e-05
8.26281e-05
6.76851e-05
5.31407e-05
3.97074e-05
2.79381e-05
1.81208e-05
1.02809e-05
4.3432e-06
4.83153e-07
4.62751e-08
4.1531e-07
9.53287e-07
1.59856e-06
2.31804e-06
3.08992e-06
3.89924e-06
4.73644e-06
5.59692e-06
6.48068e-06
7.39217e-06
8.33998e-06
9.3365e-06
1.03976e-05
1.15424e-05
1.27926e-05
1.41724e-05
1.57083e-05
1.74282e-05
1.93615e-05
2.15383e-05
2.39883e-05
2.67402e-05
2.98201e-05
3.32497e-05
3.70442e-05
4.121e-05
4.57419e-05
5.0621e-05
5.58125e-05
6.12651e-05
6.69113e-05
7.26706e-05
7.84542e-05
8.41727e-05
8.97442e-05
9.51042e-05
0.000100213
0.000105061
0.00010967
0.000114085
0.000118373
0.000122603
0.00012684
0.000131127
0.000135483
0.000139893
0.000144313
0.000148672
0.000152879
0.00015683
0.000160411
0.000163508
0.000166002
0.000167687
0.000168453
0.000168599
0.000167475
0.000165022
0.000161159
0.00015574
0.000148636
0.000139788
0.000129189
0.0001169
0.000103111
8.81903e-05
7.27048e-05
5.73927e-05
4.30459e-05
3.03374e-05
1.96702e-05
1.11403e-05
4.69724e-06
5.22595e-07
5.09321e-08
4.57145e-07
1.04931e-06
1.7595e-06
2.55114e-06
3.40002e-06
4.2895e-06
5.20895e-06
6.15321e-06
7.12235e-06
8.12136e-06
9.15986e-06
1.02517e-05
1.14146e-05
1.26697e-05
1.40411e-05
1.55554e-05
1.72416e-05
1.91301e-05
2.12526e-05
2.36412e-05
2.63272e-05
2.93399e-05
3.27051e-05
3.64426e-05
4.0564e-05
4.50698e-05
4.99467e-05
5.5165e-05
6.06773e-05
6.64184e-05
7.2307e-05
7.82504e-05
8.41514e-05
8.99174e-05
9.54709e-05
0.000100759
0.000105759
0.000110484
0.000114978
0.000119309
0.000123558
0.000127802
0.000132104
0.0001365
0.000140992
0.000145549
0.000150109
0.000154586
0.000158879
0.000162879
0.000166472
0.000169547
0.000171989
0.000173573
0.000174263
0.000174356
0.000173119
0.000170592
0.000166677
0.000161242
0.000154161
0.000145361
0.000134826
0.000122581
0.000108747
9.36139e-05
7.76843e-05
6.16823e-05
4.64608e-05
3.28132e-05
2.12733e-05
1.20271e-05
5.06084e-06
5.63102e-07
5.58516e-08
5.0134e-07
1.15071e-06
1.9294e-06
2.79706e-06
3.72696e-06
4.70061e-06
5.7062e-06
6.738e-06
7.79608e-06
8.88603e-06
1.00186e-05
1.12091e-05
1.24772e-05
1.38462e-05
1.53426e-05
1.69955e-05
1.88363e-05
2.08979e-05
2.3214e-05
2.58184e-05
2.87435e-05
3.20186e-05
3.56684e-05
3.97097e-05
4.41492e-05
4.89802e-05
5.41798e-05
5.97065e-05
6.54996e-05
7.148e-05
7.75537e-05
8.36183e-05
8.95719e-05
9.5324e-05
0.000100806
0.000105983
0.000110853
0.000115454
0.000119854
0.000124139
0.0001284
0.00013272
0.000137152
0.000141719
0.000146406
0.000151163
0.000155912
0.000160554
0.000164979
0.000169072
0.000172719
0.000175809
0.000178234
0.000179742
0.000180364
0.000180401
0.000179032
0.00017639
0.000172358
0.000166821
0.00015967
0.000150828
0.000140285
0.000128047
0.000114181
9.88949e-05
8.26068e-05
6.59952e-05
4.99464e-05
3.53665e-05
2.29336e-05
1.29439e-05
5.4349e-06
6.04773e-07
6.10495e-08
5.48035e-07
1.25782e-06
2.10877e-06
3.05656e-06
4.07167e-06
5.13367e-06
6.22942e-06
7.35255e-06
8.50312e-06
9.68732e-06
1.0917e-05
1.22093e-05
1.35857e-05
1.50719e-05
1.66967e-05
1.84916e-05
2.04906e-05
2.27286e-05
2.52413e-05
2.80637e-05
3.12288e-05
3.47653e-05
3.86955e-05
4.30326e-05
4.7777e-05
5.29136e-05
5.84087e-05
6.42084e-05
7.02384e-05
7.64066e-05
8.26084e-05
8.87348e-05
9.4684e-05
0.000100372
0.000105747
0.000110792
0.000115533
0.000120031
0.000124376
0.00012867
0.000133011
0.000137476
0.00014211
0.000146917
0.000151865
0.000156885
0.000161882
0.000166746
0.000171357
0.000175596
0.000179348
0.000182501
0.000184947
0.000186413
0.00018699
0.00018696
0.000185453
0.000182655
0.000178442
0.00017271
0.000165374
0.000156371
0.000145704
0.000133388
0.000119455
0.000104038
8.74567e-05
7.03133e-05
5.34925e-05
3.79958e-05
2.46532e-05
1.38926e-05
5.82016e-06
6.4769e-07
6.65421e-08
5.97378e-07
1.37097e-06
2.29817e-06
3.33039e-06
4.43515e-06
5.58983e-06
6.77987e-06
7.99814e-06
9.24468e-06
1.05263e-05
1.18561e-05
1.32529e-05
1.47404e-05
1.63463e-05
1.81021e-05
2.00418e-05
2.22014e-05
2.4618e-05
2.73288e-05
3.03696e-05
3.37733e-05
3.75673e-05
4.17708e-05
4.63918e-05
5.14238e-05
5.6842e-05
6.26014e-05
6.86351e-05
7.48561e-05
8.11608e-05
8.74366e-05
9.35723e-05
9.94704e-05
0.00010506
0.000110307
0.00011522
0.000119851
0.000124285
0.000128632
0.000133003
0.000137499
0.000142187
0.000147098
0.000152219
0.000157497
0.000162846
0.000168155
0.000173302
0.00017816
0.000182604
0.000186515
0.00018978
0.000192288
0.000193751
0.000194312
0.000194208
0.000192564
0.000189581
0.000185131
0.000179116
0.000171475
0.000162172
0.000151237
0.000138714
0.000124629
0.000109059
9.22229e-05
7.46172e-05
5.70852e-05
4.06961e-05
2.64326e-05
1.48747e-05
6.21714e-06
6.91913e-07
7.23472e-08
6.49523e-07
1.4905e-06
2.49817e-06
3.61937e-06
4.81839e-06
6.07026e-06
7.3588e-06
8.67603e-06
1.00219e-05
1.14039e-05
1.28365e-05
1.43402e-05
1.59409e-05
1.76687e-05
1.95575e-05
2.16436e-05
2.39653e-05
2.65612e-05
2.94699e-05
3.27275e-05
3.63661e-05
4.04108e-05
4.48771e-05
4.97669e-05
5.50654e-05
6.07378e-05
6.67272e-05
7.29543e-05
7.93202e-05
8.57125e-05
9.20138e-05
9.81149e-05
0.000103928
0.000109398
0.000114515
0.000119314
0.000123871
0.000128296
0.000132712
0.000137238
0.000141967
0.000146958
0.000152224
0.000157733
0.000163411
0.000169154
0.000174839
0.000180331
0.000185495
0.0001902
0.000194322
0.000197745
0.000200358
0.000201858
0.000202424
0.000202261
0.000200492
0.000197309
0.000192582
0.000186215
0.000178159
0.000168412
0.000157045
0.000144152
0.000129785
0.000113993
9.69032e-05
7.88885e-05
6.07081e-05
4.34599e-05
2.82706e-05
1.58909e-05
6.62616e-06
7.37479e-07
7.84849e-08
7.04629e-07
1.6168e-06
2.70938e-06
3.92433e-06
5.22246e-06
6.57617e-06
7.96748e-06
9.38745e-06
1.08359e-05
1.2321e-05
1.38586e-05
1.54711e-05
1.71866e-05
1.90377e-05
2.10606e-05
2.3294e-05
2.57778e-05
2.85525e-05
3.16572e-05
3.51278e-05
3.89951e-05
4.32812e-05
4.79967e-05
5.31369e-05
5.8678e-05
6.45746e-05
7.07581e-05
7.71376e-05
8.36045e-05
9.00398e-05
9.63257e-05
0.000102359
0.000108066
0.000113412
0.000118413
0.00012313
0.000127665
0.000132146
0.000136706
0.000141465
0.000146509
0.000151882
0.000157578
0.000163544
0.000169688
0.00017589
0.00018201
0.000187902
0.000193424
0.000198437
0.000202815
0.000206438
0.000209195
0.000210768
0.000211357
0.000211167
0.000209296
0.00020592
0.000200902
0.000194137
0.000185579
0.000175256
0.000163289
0.000149841
0.000135021
0.00011889
0.000101508
8.31135e-05
6.43436e-05
4.62774e-05
3.01648e-05
1.69416e-05
7.04736e-06
7.84403e-07
8.49741e-08
7.62866e-07
1.75024e-06
2.93244e-06
4.24616e-06
5.64842e-06
7.10876e-06
8.60716e-06
1.01336e-05
1.16876e-05
1.32782e-05
1.49226e-05
1.66452e-05
1.84765e-05
2.04515e-05
2.26087e-05
2.4989e-05
2.7634e-05
3.05853e-05
3.38822e-05
3.75601e-05
4.16475e-05
4.6163e-05
5.11117e-05
5.64812e-05
6.22387e-05
6.8328e-05
7.46693e-05
8.11618e-05
8.76891e-05
9.41293e-05
0.000100368
0.000106312
0.000111905
0.000117138
0.00012205
0.000126731
0.000131304
0.000135912
0.000140694
0.000145766
0.000151204
0.000157034
0.000163229
0.000169717
0.000176387
0.000183101
0.000189706
0.000196044
0.000201963
0.00020732
0.000211985
0.00021584
0.000218772
0.000220455
0.000221086
0.000220905
0.000218971
0.000215433
0.000210138
0.000202962
0.00019385
0.000182845
0.000170122
0.000155924
0.000140453
0.000123822
0.000106061
8.72854e-05
6.79749e-05
4.9137e-05
3.21114e-05
1.80263e-05
7.48067e-06
8.32682e-07
9.18338e-08
8.24415e-07
1.89122e-06
3.16798e-06
4.58574e-06
6.09739e-06
7.66928e-06
9.27909e-06
1.09155e-05
1.25779e-05
1.4276e-05
1.60284e-05
1.78619e-05
1.98092e-05
2.19078e-05
2.41986e-05
2.67242e-05
2.9528e-05
3.26522e-05
3.61359e-05
4.00133e-05
4.43102e-05
4.90409e-05
5.42043e-05
5.97803e-05
6.57264e-05
7.19764e-05
7.84405e-05
8.50093e-05
9.15618e-05
9.79764e-05
0.000104146
0.000109991
0.000115477
0.000120618
0.000125482
0.000130181
0.000134859
0.000139669
0.00014475
0.000150212
0.000156117
0.00016247
0.000169226
0.000176291
0.000183535
0.000190804
0.00019793
0.000204743
0.000211085
0.000216806
0.000221777
0.000225881
0.000229011
0.000230838
0.000231532
0.000231399
0.000229454
0.000225804
0.000220277
0.000212716
0.000203039
0.000191287
0.000177679
0.000162544
0.000146205
0.000128877
0.000110605
9.14073e-05
7.15878e-05
5.20261e-05
3.41053e-05
1.91441e-05
7.92587e-06
8.82294e-07
9.90851e-08
8.89465e-07
2.04018e-06
3.4167e-06
4.94401e-06
6.5705e-06
8.25895e-06
9.98447e-06
1.17343e-05
1.35074e-05
1.53145e-05
1.71758e-05
1.91201e-05
2.11828e-05
2.34039e-05
2.58264e-05
2.84948e-05
3.14536e-05
3.47453e-05
3.84087e-05
4.24759e-05
4.69697e-05
5.18994e-05
5.72574e-05
6.30157e-05
6.91225e-05
7.5502e-05
8.20558e-05
8.86686e-05
9.52172e-05
0.000101584
0.000107672
0.000113421
0.000118816
0.000123899
0.000128763
0.000133543
0.000138395
0.00014348
0.000148935
0.000154857
0.000161292
0.000168226
0.000175594
0.000183279
0.000191133
0.000198984
0.00020665
0.000213952
0.000220723
0.000226813
0.000232093
0.000236452
0.000239791
0.000241794
0.000242573
0.000242519
0.000240627
0.000236936
0.000231249
0.000223366
0.000213159
0.000200643
0.000186063
0.000169829
0.000152406
0.000134154
0.000115197
9.54937e-05
7.51724e-05
5.49318e-05
3.61404e-05
2.02937e-05
8.38261e-06
9.332e-07
1.0675e-07
9.58211e-07
2.19754e-06
3.6793e-06
5.32194e-06
7.06891e-06
8.87902e-06
1.07245e-05
1.25908e-05
1.44768e-05
1.63937e-05
1.83639e-05
2.04184e-05
2.25951e-05
2.49365e-05
2.74878e-05
3.02951e-05
3.34037e-05
3.68563e-05
4.06905e-05
4.49364e-05
4.96127e-05
5.47238e-05
6.02553e-05
6.61711e-05
7.24109e-05
7.88905e-05
8.55046e-05
9.21342e-05
9.86573e-05
0.000104963
0.000110969
0.000116633
0.000121965
0.000127033
0.000131952
0.000136875
0.000141971
0.000147401
0.000153296
0.00015974
0.000166759
0.000174321
0.000182337
0.00019067
0.000199153
0.000207596
0.000215806
0.000223592
0.000230783
0.00023723
0.000242807
0.000247413
0.00025096
0.000253167
0.000254065
0.000254104
0.000252336
0.000248686
0.000242935
0.000234826
0.000224171
0.000210929
0.00019534
0.000177886
0.000159177
0.000139763
0.000119907
9.95716e-05
7.87247e-05
5.78421e-05
3.82097e-05
2.14732e-05
8.85041e-06
9.85349e-07
1.14851e-07
1.03086e-06
2.36377e-06
3.95651e-06
5.72052e-06
7.5938e-06
9.53072e-06
1.15002e-05
1.34859e-05
1.54862e-05
1.75135e-05
1.95918e-05
2.17549e-05
2.40433e-05
2.65019e-05
2.91781e-05
3.21192e-05
3.53713e-05
3.89766e-05
4.29715e-05
4.73832e-05
5.22266e-05
5.75004e-05
6.31838e-05
6.92328e-05
7.55794e-05
8.21323e-05
8.87815e-05
9.54068e-05
0.00010189
0.000108131
0.000114062
0.000119663
0.000124968
0.000130068
0.0001351
0.000140231
0.000145637
0.000151475
0.000157868
0.000164885
0.000172531
0.000180753
0.00018944
0.000198434
0.000207547
0.000216577
0.000225314
0.000233564
0.00024115
0.000247927
0.000253778
0.000258612
0.000262355
0.000264785
0.000265839
0.000265976
0.000264401
0.000260881
0.000255175
0.000246964
0.000235981
0.000222107
0.000205535
0.00018679
0.000166628
0.000145814
0.000124819
0.00010368
8.22481e-05
6.07462e-05
4.03058e-05
2.26805e-05
9.32869e-06
1.03867e-06
1.23414e-07
1.10762e-06
2.53934e-06
4.24911e-06
6.14078e-06
8.14637e-06
1.02153e-05
1.23128e-05
1.44203e-05
1.6536e-05
1.86732e-05
2.08583e-05
2.31276e-05
2.55244e-05
2.80962e-05
3.08921e-05
3.39608e-05
3.73488e-05
4.10976e-05
4.52417e-05
4.98054e-05
5.47994e-05
6.0217e-05
6.60307e-05
7.21897e-05
7.8619e-05
8.52221e-05
9.18863e-05
9.84927e-05
0.00010493
0.00011111
0.000116983
0.00012255
0.000127869
0.000133053
0.000138256
0.000143657
0.000149432
0.000155734
0.000162674
0.000170302
0.000178604
0.000187504
0.000196867
0.000206518
0.000216249
0.000225841
0.000235076
0.000243754
0.000251699
0.00025877
0.000264862
0.000269898
0.000273818
0.000276479
0.00027771
0.00027796
0.000276634
0.00027333
0.000267783
0.000259611
0.000248454
0.000234088
0.000216622
0.000196582
0.000174844
0.00015241
0.00013002
0.00010787
8.57539e-05
6.3636e-05
4.24206e-05
2.39128e-05
9.81672e-06
1.0931e-06
1.32462e-07
1.18873e-06
2.72475e-06
4.55789e-06
6.58378e-06
8.72785e-06
1.09339e-05
1.31631e-05
1.53946e-05
1.76262e-05
1.98723e-05
2.21618e-05
2.4534e-05
2.7035e-05
2.97148e-05
3.26244e-05
3.58136e-05
3.93288e-05
4.32106e-05
4.74917e-05
5.21929e-05
5.73208e-05
6.28632e-05
6.87866e-05
7.5034e-05
8.1525e-05
8.81593e-05
9.48239e-05
0.000101404
0.000107796
0.000113927
0.000119766
0.000125334
0.000130712
0.000136032
0.000141463
0.00014719
0.000153387
0.000160199
0.000167722
0.000175987
0.00018496
0.00019454
0.000204572
0.000214859
0.000225178
0.000235295
0.000244985
0.000254045
0.000262302
0.000269624
0.000275919
0.000281126
0.000285202
0.000288083
0.000289509
0.000289887
0.00028885
0.00028584
0.000280565
0.000272577
0.000261419
0.000246743
0.000228529
0.000207256
0.000183882
0.000159644
0.000135602
0.000112202
8.92621e-05
6.65065e-05
4.45461e-05
2.5167e-05
1.03137e-05
1.14852e-06
1.42023e-07
1.2744e-06
2.92052e-06
4.88368e-06
7.05061e-06
9.33948e-06
1.16879e-05
1.40523e-05
1.64093e-05
1.87564e-05
2.11096e-05
2.35004e-05
2.59713e-05
2.85714e-05
3.13533e-05
3.43697e-05
3.76712e-05
4.1304e-05
4.53078e-05
4.97127e-05
5.45366e-05
5.97816e-05
6.54305e-05
7.14445e-05
7.77612e-05
8.42963e-05
9.09477e-05
9.76037e-05
0.000104155
0.000110511
0.000116611
0.000122445
0.000128054
0.000133538
0.000139046
0.000144758
0.000150861
0.000157524
0.00016488
0.00017301
0.000181925
0.000191568
0.000201816
0.000212493
0.000223383
0.000234246
0.00024484
0.000254933
0.000264321
0.000272838
0.000280365
0.000286822
0.000292169
0.000296385
0.000299447
0.00030109
0.000301612
0.000300886
0.000298231
0.000293327
0.000285664
0.000274684
0.000259904
0.000241141
0.000218766
0.000193766
0.00016759
0.000141652
0.000116741
9.28005e-05
6.93566e-05
4.66746e-05
2.64395e-05
1.08185e-05
1.20484e-06
1.52125e-07
1.3649e-06
3.1272e-06
5.22735e-06
7.54242e-06
9.98252e-06
1.24783e-05
1.4981e-05
1.74646e-05
1.99263e-05
2.23839e-05
2.48721e-05
2.74366e-05
3.01298e-05
3.30069e-05
3.61222e-05
3.95271e-05
4.32674e-05
4.73814e-05
5.1897e-05
5.68288e-05
6.21747e-05
6.79131e-05
7.40004e-05
8.03703e-05
8.69359e-05
9.35951e-05
0.00010024
0.000106768
0.0001131
0.000119195
0.000125057
0.000130748
0.000136386
0.00014213
0.000148171
0.000154693
0.000161855
0.000169779
0.000178527
0.000188091
0.00019839
0.00020928
0.000220565
0.000232011
0.000243365
0.000254378
0.000264814
0.000274474
0.0002832
0.000290884
0.000297466
0.000302922
0.000307253
0.000310463
0.000312336
0.000313014
0.000312603
0.000310348
0.000305893
0.000298678
0.000288049
0.000273384
0.000254306
0.000231022
0.000204481
0.000176294
0.000148249
0.000121557
9.64048e-05
7.21898e-05
4.87986e-05
2.77261e-05
1.13301e-05
1.26191e-06
1.62796e-07
1.46047e-06
3.34537e-06
5.58979e-06
8.06036e-06
1.06583e-05
1.33063e-05
1.59501e-05
1.85607e-05
2.11352e-05
2.36938e-05
2.62744e-05
2.89265e-05
3.17062e-05
3.46709e-05
3.78767e-05
4.13755e-05
4.52127e-05
4.94251e-05
5.40381e-05
5.90634e-05
6.44952e-05
7.03078e-05
7.64538e-05
8.28641e-05
8.94509e-05
9.61135e-05
0.000102749
0.000109265
0.000115594
0.00012171
0.000127637
0.000133453
0.000139289
0.000145315
0.000151727
0.0001587
0.000166384
0.000174887
0.000184253
0.00019445
0.000205379
0.000216872
0.000228716
0.000240662
0.000252447
0.000263815
0.000274534
0.000284408
0.000293292
0.000301091
0.000307761
0.000313297
0.00031772
0.000321053
0.000323156
0.000324008
0.000323891
0.000322061
0.000318112
0.000311445
0.000301321
0.000286982
0.000267846
0.000243899
0.000215972
0.000185776
0.000155456