/*--------------------------------*- C++ -*----------------------------------*\
  =========                 |
  \\      /  F ield         | OpenFOAM: The Open Source CFD Toolbox
   \\    /   O peration     | Website:  https://openfoam.org
    \\  /    A nd           | Version:  12
     \\/     M anipulation  |
\*---------------------------------------------------------------------------*/
FoamFile
{
    format      ascii;
    class       volScalarField;
    location    "6";
    object      p;
}
// * * * * * * * * * * * * * * * * * * * * * * * * * * * * * * * * * * * * * //

dimensions      [0 2 -2 0 0 0 0];

internalField   nonuniform List<scalar> 
5625
(
2.22333e-08
3.41093e-05
6.37069e-05
7.30381e-05
5.55888e-05
9.32201e-06
-6.5355e-05
-0.00016693
-0.000293476
-0.00044305
-0.000613923
-0.000804725
-0.00101451
-0.00124281
-0.00148961
-0.00175536
-0.00204099
-0.00234785
-0.00267769
-0.00303262
-0.0034151
-0.00382788
-0.00427392
-0.00475641
-0.00527861
-0.00584378
-0.0064551
-0.00711547
-0.0078273
-0.00859235
-0.00941137
-0.0102838
-0.0112072
-0.0121772
-0.0131862
-0.0142236
-0.0152745
-0.0163195
-0.0173338
-0.0182869
-0.0191419
-0.0198561
-0.0203802
-0.0206597
-0.0206356
-0.0202459
-0.0194282
-0.0181222
-0.0162732
-0.0138364
-0.0107806
-0.00709207
-0.00279617
0.00206649
0.00745073
0.013238
0.0192741
0.0253983
0.0314177
0.037127
0.0423236
0.0468241
0.0504831
0.0532089
0.0549759
0.0558282
0.0558756
0.0552804
0.054238
0.0529552
0.0516305
0.050442
0.0495377
0.049041
0.0489513
-7.29733e-06
2.18661e-05
4.5501e-05
5.01433e-05
3.00859e-05
-1.69305e-05
-9.08935e-05
-0.000190677
-0.000314677
-0.000461201
-0.000628702
-0.000815929
-0.00102201
-0.00124649
-0.00148936
-0.00175101
-0.00203231
-0.00233451
-0.00265925
-0.00300852
-0.00338461
-0.00379011
-0.00422782
-0.00470072
-0.00521189
-0.0057644
-0.0063612
-0.00700498
-0.00769803
-0.00844191
-0.00923727
-0.0100835
-0.0109782
-0.011917
-0.0128927
-0.0138948
-0.0149093
-0.0159171
-0.0168945
-0.017812
-0.0186342
-0.0193193
-0.01982
-0.0200833
-0.0200517
-0.0196652
-0.0188627
-0.0175854
-0.0157798
-0.0134017
-0.0104203
-0.00682127
-0.00263407
0.00211009
0.00737599
0.0130228
0.0189192
0.0249068
0.0307976
0.0363926
0.0414953
0.0459284
0.0495512
0.0522754
0.0540764
0.054997
0.0551428
0.0546695
0.0537638
0.0526225
0.0514324
0.0503605
0.0495414
0.0490891
0.0490075
-1.89906e-05
8.40187e-06
2.7459e-05
2.78065e-05
5.19487e-06
-4.26258e-05
-0.000115914
-0.000213874
-0.000335203
-0.000478453
-0.00064226
-0.000825496
-0.00102736
-0.00124741
-0.00148565
-0.00174242
-0.00201848
-0.002315
-0.0026335
-0.0029758
-0.00334404
-0.00374062
-0.00416818
-0.00462948
-0.00512737
-0.00566472
-0.00624428
-0.00686856
-0.00753967
-0.00825906
-0.00902731
-0.00984381
-0.0107063
-0.0116107
-0.01255
-0.0135146
-0.0144907
-0.0154607
-0.0164016
-0.0172853
-0.0180779
-0.0187393
-0.0192238
-0.0194799
-0.0194521
-0.0190815
-0.0183086
-0.0170754
-0.0153291
-0.0130257
-0.010134
-0.00663928
-0.00257271
0.00205439
0.00719067
0.0126961
0.0184584
0.0243177
0.0300916
0.0355861
0.0406098
0.0449894
0.0485877
0.0513182
0.0531567
0.0541447
0.0543846
0.0540267
0.0532504
0.0522437
0.0511835
0.0502237
0.049486
0.0490752
0.048999
-3.16603e-05
-2.80997e-06
1.44755e-05
1.21519e-05
-1.22768e-05
-6.07526e-05
-0.000133568
-0.00023009
-0.00034921
-0.000489649
-0.000650178
-0.000829766
-0.00102766
-0.00124346
-0.00147712
-0.00172896
-0.00199966
-0.00229031
-0.00260229
-0.0029373
-0.00329736
-0.0036847
-0.00410176
-0.00455116
-0.00503556
-0.00555765
-0.00612006
-0.00672517
-0.00737499
-0.00807096
-0.00881371
-0.00960276
-0.0104362
-0.0113101
-0.0122183
-0.0131516
-0.0140975
-0.015039
-0.0159548
-0.0168179
-0.0175957
-0.0182499
-0.0187359
-0.0190037
-0.0189987
-0.0186629
-0.0179371
-0.0167635
-0.0150888
-0.0128681
-0.0100692
-0.00667682
-0.0027136
0.00181416
0.00683557
0.012239
0.0179071
0.0236828
0.0293871
0.0348286
0.0398175
0.0441813
0.0477828
0.0505349
0.0524124
0.0534552
0.053764
0.0534869
0.0527999
0.051886
0.0509158
0.0500333
0.0493515
0.0489668
0.0488869
-4.25189e-05
-1.07835e-05
6.41076e-06
2.54854e-06
-2.3145e-05
-7.21543e-05
-0.000144649
-0.000240038
-0.000357312
-0.000495306
-0.000652883
-0.000829082
-0.00102319
-0.00123482
-0.0014639
-0.00171074
-0.00197592
-0.00226044
-0.00256561
-0.00289301
-0.00324451
-0.00362221
-0.0040284
-0.00446553
-0.00493615
-0.00544285
-0.00598813
-0.00657434
-0.00720347
-0.00787706
-0.00859589
-0.00935977
-0.0101672
-0.0110149
-0.0118973
-0.0128064
-0.0137305
-0.014654
-0.0155568
-0.0164135
-0.0171928
-0.0178576
-0.0183645
-0.0186644
-0.018703
-0.0184225
-0.0177633
-0.0166666
-0.0150777
-0.0129501
-0.0102493
-0.00695794
-0.00308932
0.00134312
0.00627311
0.0116006
0.0172058
0.0229341
0.0286083
0.0340377
0.0390315
0.0434157
0.0470501
0.0498448
0.0517714
0.0528679
0.0532337
0.0530162
0.0523908
0.0515389
0.0506274
0.049795
0.0491462
0.0487708
0.0486747
-4.96713e-05
-1.47534e-05
3.07076e-06
-1.71953e-06
-2.83647e-05
-7.78537e-05
-0.000150152
-0.000244632
-0.000360325
-0.00049613
-0.000650976
-0.000823945
-0.00101436
-0.00122183
-0.00144627
-0.00168793
-0.00194738
-0.00222551
-0.00252353
-0.00284293
-0.00318544
-0.00355304
-0.00394789
-0.00437236
-0.00482888
-0.00531995
-0.00584806
-0.00641555
-0.00702453
-0.00767671
-0.0083732
-0.00911424
-0.00989892
-0.0107248
-0.0115873
-0.0124793
-0.0133907
-0.0143073
-0.0152104
-0.0160759
-0.016874
-0.0175686
-0.018117
-0.0184706
-0.0185748
-0.0183713
-0.0177992
-0.016798
-0.0153108
-0.0132886
-0.010694
-0.00750672
-0.00373295
0.000610167
0.0054629
0.0107312
0.0162954
0.0220032
0.0276781
0.0331288
0.0381623
0.0426008
0.0462991
0.0491622
0.0511568
0.0523174
0.0527415
0.0525765
0.0519987
0.0511899
0.050316
0.0495126
0.0488787
0.0484973
0.0483715
-5.17795e-05
-1.39398e-05
4.70291e-06
-7.26981e-07
-2.81773e-05
-7.81578e-05
-0.000150393
-0.000244168
-0.000358507
-0.000492341
-0.000644644
-0.000814517
-0.00100131
-0.00120462
-0.00142435
-0.00166072
-0.00191424
-0.00218573
-0.0024763
-0.00278733
-0.00312047
-0.0034776
-0.00386078
-0.00427228
-0.00471449
-0.00518988
-0.00570096
-0.00625019
-0.00683988
-0.00747206
-0.00814829
-0.00886945
-0.00963545
-0.0104448
-0.0112943
-0.0121781
-0.0130875
-0.0140099
-0.0149282
-0.0158198
-0.016656
-0.0174014
-0.0180138
-0.0184442
-0.0186373
-0.0185333
-0.0180694
-0.0171827
-0.0158135
-0.0139096
-0.0114304
-0.00835208
-0.00467528
-0.000417311
0.0043669
0.00958821
0.0151287
0.0208377
0.0265394
0.0320411
0.0371467
0.0416731
0.0454686
0.0484305
0.0505188
0.0517622
0.0522554
0.0521452
0.0516096
0.0508325
0.049981
0.0491898
0.0485549
0.0481532
0.0479857
-4.787e-05
-7.68686e-06
1.16318e-05
5.62321e-06
-2.26186e-05
-7.31658e-05
-0.000145491
-0.000238762
-0.000351967
-0.000484036
-0.000633963
-0.000800871
-0.000984116
-0.00118329
-0.00139828
-0.00162925
-0.00187667
-0.0021413
-0.00242416
-0.00272657
-0.00305007
-0.00339646
-0.00376775
-0.00416615
-0.00459404
-0.00505392
-0.00554843
-0.00608023
-0.00665194
-0.00726607
-0.00792484
-0.00862995
-0.00938236
-0.0101819
-0.0110266
-0.0119124
-0.0128324
-0.0137755
-0.0147262
-0.0156631
-0.0165586
-0.0173777
-0.0180779
-0.0186093
-0.0189152
-0.0189335
-0.0185989
-0.0178453
-0.01661
-0.0148372
-0.0124826
-0.00951906
-0.00594213
-0.00176771
0.00295343
0.00813682
0.0136669
0.019395
0.0251459
0.0307256
0.035934
0.0405821
0.0445098
0.0476049
0.0498179
0.0511697
0.0517501
0.0517047
0.0512128
0.0504617
0.0496217
0.048829
0.0481793
0.0477446
0.0475247
-3.72536e-05
4.49806e-06
2.41186e-05
1.74119e-05
-1.17225e-05
-6.29713e-05
-0.000135563
-0.000228533
-0.000340811
-0.00047131
-0.000619022
-0.000783093
-0.000962864
-0.00115792
-0.00136814
-0.00159364
-0.00183484
-0.00209244
-0.00236742
-0.002661
-0.00297468
-0.00331018
-0.0036695
-0.00405481
-0.00446856
-0.00491337
-0.00539207
-0.00590764
-0.00646319
-0.00706185
-0.00770669
-0.00840048
-0.00914547
-0.00994295
-0.0107928
-0.0116926
-0.0126374
-0.0136178
-0.0146197
-0.0156231
-0.0166007
-0.0175175
-0.01833
-0.0189869
-0.0194292
-0.0195921
-0.0194069
-0.0188044
-0.017718
-0.0160883
-0.0138678
-0.0110254
-0.00755236
-0.00346227
0.00119826
0.00634936
0.0118785
0.0176397
0.0234586
0.0291401
0.0344805
0.0392835
0.0433797
0.0466451
0.0490184
0.05051
0.0512024
0.051238
0.0507975
0.050072
0.0492367
0.0484319
0.0477558
0.0472765
0.0469956
-1.94593e-05
2.29713e-05
4.236e-05
3.46955e-05
4.47191e-06
-4.76662e-05
-0.000120722
-0.000213595
-0.000325147
-0.000454261
-0.000599918
-0.000761263
-0.000937634
-0.00112861
-0.00133403
-0.00155401
-0.00178891
-0.00203938
-0.00230634
-0.00259098
-0.00289473
-0.00321931
-0.00356669
-0.00393911
-0.00433913
-0.00476955
-0.00523353
-0.0057345
-0.00627619
-0.00686258
-0.00749778
-0.0081859
-0.00893072
-0.00973529
-0.0106014
-0.0115288
-0.0125141
-0.01355
-0.0146236
-0.0157157
-0.016799
-0.0178378
-0.0187872
-0.0195936
-0.0201951
-0.0205235
-0.0205066
-0.0200713
-0.0191477
-0.0176728
-0.0155955
-0.0128812
-0.00951747
-0.00551474
-0.000915365
0.00420556
0.00973936
0.0155435
0.0214454
0.0272493
0.0327481
0.0377384
0.0420397
0.0455148
0.0480876
0.0497552
0.0505899
0.050729
0.0503531
0.0496575
0.0488242
0.0479994
0.0472871
0.0467527
0.0464048
5.81438e-06
4.79783e-05
6.6499e-05
5.75138e-05
2.59298e-05
-2.73285e-05
-0.000101066
-0.000194049
-0.000305068
-0.00043297
-0.000576719
-0.000735452
-0.000908501
-0.00109544
-0.00129608
-0.0015105
-0.00173904
-0.00198232
-0.00224121
-0.00251685
-0.00281067
-0.00312439
-0.00346001
-0.00381991
-0.0042068
-0.00462381
-0.00507449
-0.0055629
-0.00609357
-0.00667153
-0.00730218
-0.00799119
-0.00874414
-0.00956612
-0.010461
-0.0114307
-0.0124738
-0.0135845
-0.0147512
-0.0159547
-0.0171676
-0.0183526
-0.0194628
-0.0204414
-0.0212231
-0.0217361
-0.0219043
-0.021651
-0.0209027
-0.0195932
-0.0176682
-0.0150898
-0.0118419
-0.00793172
-0.00339696
0.00169247
0.00723265
0.0130854
0.0190811
0.0250245
0.0307053
0.0359131
0.0404558
0.044181
0.0469954
0.0488794
0.0498918
0.050162
0.0498689
0.0492122
0.0483813
0.0475315
0.046775
0.0461772
0.0457565
3.87433e-05
7.96751e-05
9.663e-05
8.58884e-05
5.26165e-05
-2.02685e-06
-7.6677e-05
-0.00016998
-0.000280654
-0.000407508
-0.000549489
-0.000705721
-0.00087553
-0.00105847
-0.00125436
-0.00146323
-0.00168541
-0.00192148
-0.00217228
-0.00243895
-0.00272292
-0.00302595
-0.00335016
-0.00369807
-0.00407267
-0.00447749
-0.00491666
-0.00539499
-0.00591801
-0.00649201
-0.00712396
-0.0078213
-0.00859171
-0.00944248
-0.0103798
-0.0114077
-0.0125267
-0.0137325
-0.0150139
-0.0163519
-0.0177177
-0.0190721
-0.0203653
-0.0215369
-0.0225179
-0.0232323
-0.0236003
-0.0235416
-0.0229797
-0.0218455
-0.0200817
-0.0176473
-0.0145232
-0.0107128
-0.00624892
-0.00119562
0.00434879
0.0102518
0.0163477
0.0224432
0.0283261
0.033779
0.0385981
0.0426141
0.045714
0.047858
0.0490878
0.0495215
0.0493343
0.0487294
0.047905
0.0470276
0.0462207
0.0455524
0.0450538
7.94056e-05
0.000118142
0.0001328
0.000119817
8.44906e-05
2.81737e-05
-4.76324e-05
-0.000141463
-0.000251975
-0.000377941
-0.000518287
-0.000672128
-0.000838783
-0.0010178
-0.00120897
-0.00141233
-0.00162816
-0.00185705
-0.00209981
-0.00235761
-0.0026319
-0.00292454
-0.00323779
-0.00357443
-0.0039378
-0.00433195
-0.00476173
-0.00523288
-0.00575214
-0.0063273
-0.00696709
-0.00768105
-0.00847912
-0.009371
-0.0103653
-0.0114681
-0.0126818
-0.014003
-0.0154209
-0.0169157
-0.0184567
-0.0200021
-0.0214984
-0.0228815
-0.0240781
-0.0250082
-0.0255884
-0.0257352
-0.0253693
-0.0244193
-0.0228255
-0.0205438
-0.0175525
-0.0138507
-0.00946647
-0.00445706
0.00108575
0.0070362
0.0132344
0.0194902
0.0255906
0.0313126
0.0364404
0.0407869
0.0442169
0.0466671
0.0481578
0.0487919
0.0487381
0.048202
0.0473915
0.0464864
0.0456242
0.0448799
0.0442991
0.000127806
0.000163398
0.000175013
0.000159274
0.000121498
6.32055e-05
-1.40061e-05
-0.000108573
-0.0002191
-0.000344328
-0.00048317
-0.000634729
-0.000798321
-0.000973485
-0.00116
-0.00135789
-0.00156745
-0.00178921
-0.00202405
-0.00227314
-0.00253801
-0.00282066
-0.00312356
-0.00344981
-0.00380322
-0.0041885
-0.00461133
-0.00507862
-0.0055985
-0.00618048
-0.00683534
-0.00757491
-0.00841159
-0.00935762
-0.010424
-0.0116189
-0.0129461
-0.0144031
-0.0159785
-0.0176511
-0.0193879
-0.0211437
-0.0228609
-0.0244712
-0.025897
-0.0270544
-0.0278568
-0.0282179
-0.0280563
-0.0272987
-0.0258833
-0.023763
-0.020914
-0.0173314
-0.0130377
-0.00808259
-0.00255062
0.00344048
0.00973811
0.016157
0.0224855
0.0284958
0.0339609
0.0386754
0.0424797
0.0452835
0.0470816
0.0479571
0.0480686
0.0476225
0.0468365
0.045906
0.0449853
0.0441609
0.0434931
0.000183889
0.000215408
0.000223231
0.000204203
0.00016357
0.000102993
2.41234e-05
-7.13835e-05
-0.000182096
-0.000306733
-0.000444196
-0.000593584
-0.000754207
-0.000925603
-0.00110754
-0.00130005
-0.0015034
-0.00171817
-0.00194524
-0.00218584
-0.00244164
-0.0027148
-0.00300808
-0.00332498
-0.00366992
-0.00404835
-0.00446702
-0.00493412
-0.00545945
-0.00605445
-0.00673216
-0.00750689
-0.0083937
-0.0094074
-0.0105613
-0.0118655
-0.013325
-0.0149371
-0.0166898
-0.0185597
-0.0205107
-0.0224936
-0.0244466
-0.0262969
-0.0279626
-0.0293564
-0.0303886
-0.0309709
-0.0310203
-0.0304623
-0.0292334
-0.0272827
-0.0245859
-0.0211344
-0.0169433
-0.0120551
-0.00654625
-0.000525256
0.00586418
0.0124437
0.0190047
0.0253168
0.0311427
0.0362586
0.0404796
0.0436849
0.0458391
0.0470005
0.0473136
0.0469826
0.0462352
0.045284
0.0443033
0.043396
0.042636
0.000247552
0.000274089
0.000277377
0.000254523
0.00021062
0.000147442
6.6667e-05
-2.99776e-05
-0.000141039
-0.000265226
-0.000401432
-0.000548757
-0.000706512
-0.000874233
-0.00105169
-0.00123891
-0.00143618
-0.00164409
-0.00186359
-0.00209599
-0.00234313
-0.00260739
-0.00289189
-0.00320066
-0.00353877
-0.00391263
-0.00433018
-0.00480113
-0.00533711
-0.00595174
-0.00666051
-0.00748041
-0.00842919
-0.00952427
-0.0107812
-0.0122116
-0.0138211
-0.0156067
-0.0175549
-0.0196393
-0.0218203
-0.0240444
-0.026245
-0.0283449
-0.0302584
-0.0318949
-0.0331623
-0.0339707
-0.0342363
-0.0338836
-0.0328473
-0.0310744
-0.0285407
-0.025234
-0.0211564
-0.0163494
-0.0108786
-0.00484204
0.00162693
0.00835888
0.0151504
0.0217708
0.0279746
0.0335204
0.0381968
0.04185
0.0444101
0.0459051
0.0464599
0.0462735
0.0455822
0.0446178
0.0435775
0.0425844
0.0417275
0.00031865
0.000339316
0.000337336
0.000310123
0.000262554
0.000196423
0.00011352
1.55496e-05
-9.60178e-05
-0.000219887
-0.000354956
-0.000500328
-0.000655319
-0.000819466
-0.000992547
-0.00117459
-0.00136592
-0.00156715
-0.00177931
-0.00200385
-0.00224279
-0.00249883
-0.00277551
-0.00307745
-0.00341057
-0.00378232
-0.00420204
-0.00468113
-0.00523328
-0.00587446
-0.00662282
-0.00749809
-0.00852082
-0.00971091
-0.0110859
-0.0126586
-0.0144349
-0.0164108
-0.0185704
-0.0208841
-0.0233081
-0.0257842
-0.0282413
-0.0305976
-0.032764
-0.0346469
-0.0361525
-0.03719
-0.0376748
-0.03753
-0.0366863
-0.0351043
-0.032745
-0.0295913
-0.0256416
-0.0209325
-0.0155167
-0.00948197
-0.00295008
0.00392036
0.0109337
0.0178616
0.0244525
0.0304496
0.0356149
0.0397599
0.0427753
0.0446537
0.045494
0.0454858
0.044872
0.0439045
0.0428071
0.0417253
0.0407673
0.000397001
0.000410923
0.000402952
0.000370859
0.00031922
0.000249809
0.000164561
6.50845e-05
-4.7137e-05
-0.000170817
-0.000304864
-0.000448392
-0.000600724
-0.000761406
-0.000930224
-0.00110723
-0.00129276
-0.00148751
-0.0016926
-0.00190965
-0.00214091
-0.00238945
-0.00265934
-0.00295589
-0.00328595
-0.00365823
-0.00408359
-0.00457533
-0.00514936
-0.00582422
-0.0066208
-0.00756172
-0.00867021
-0.00996856
-0.011476
-0.0132061
-0.0151644
-0.0173452
-0.0197298
-0.022285
-0.024962
-0.027698
-0.0304172
-0.0330339
-0.0354553
-0.037586
-0.0393306
-0.0405978
-0.0413026
-0.0413654
-0.0407252
-0.03934
-0.0371598
-0.0341669
-0.0303614
-0.0257646
-0.0204217
-0.0144086
-0.00783414
-0.00084445
0.00637517
0.0136015
0.0205805
0.0270419
0.0327228
0.0373984
0.040917
0.0432292
0.044402
0.0446095
0.0440985
0.0431411
0.0419906
0.0408181
0.0397551
0.000482387
0.000488704
0.000474033
0.000436538
0.000380419
0.000307473
0.000219644
0.000118489
5.47345e-06
-0.000118138
-0.000251276
-0.000393067
-0.000542848
-0.000700175
-0.000864848
-0.00103694
-0.00121684
-0.00140533
-0.00160363
-0.00181357
-0.00203771
-0.00227953
-0.0025437
-0.00283636
-0.00316541
-0.00354095
-0.00397554
-0.00448455
-0.0050863
-0.00580202
-0.00665545
-0.00767208
-0.00887778
-0.0102969
-0.0119501
-0.0138513
-0.0160049
-0.0184032
-0.0210239
-0.0238296
-0.0267668
-0.0297676
-0.0327517
-0.0356295
-0.0383059
-0.0406832
-0.0426654
-0.044161
-0.0450843
-0.0453599
-0.0449319
-0.0437406
-0.0417438
-0.038921
-0.0352691
-0.0307994
-0.0255477
-0.0195775
-0.012984
-0.00589901
0.00150475
0.00901249
0.0163711
0.0233005
0.0295149
0.0347535
0.0388194
0.0416158
0.0431702
0.0436345
0.0432554
0.0423244
0.0411269
0.0398626
0.0386904
0.000574553
0.000572411
0.000550339
0.000506934
0.000445952
0.000369219
0.000278588
0.000175594
6.16539e-05
-6.20043e-05
-0.000194339
-0.000334498
-0.000481833
-0.000635914
-0.000796562
-0.000963881
-0.00113832
-0.00132074
-0.00151254
-0.00171577
-0.00193335
-0.00216924
-0.00242881
-0.00271911
-0.00304925
-0.00343083
-0.0038783
-0.00440924
-0.00504454
-0.0058082
-0.0067269
-0.00782893
-0.00914263
-0.0106943
-0.0125053
-0.0145894
-0.0169496
-0.0195754
-0.0224407
-0.0255031
-0.0287045
-0.031972
-0.035221
-0.0383585
-0.0412869
-0.0439075
-0.0461239
-0.0478449
-0.0489863
-0.0494753
-0.0492507
-0.048254
-0.0464465
-0.0438032
-0.0403146
-0.0359859
-0.0308433
-0.024938
-0.0183509
-0.0111985
-0.00363849
0.00412582
0.0118462
0.019237
0.0259928
0.0318186
0.0364703
0.039799
0.0417852
0.0425509
0.0423365
0.0414515
0.0402149
0.0388585
0.0375737
0.000673201
0.000661754
0.000631589
0.000581783
0.000515583
0.000434799
0.000341174
0.000236193
0.000121209
-2.60304e-06
-0.000134236
-0.000272862
-0.000417852
-0.000568793
-0.000725526
-0.000888196
-0.00105732
-0.00123388
-0.00141945
-0.00161636
-0.00182792
-0.00205868
-0.00231476
-0.00260423
-0.00293754
-0.00332795
-0.00379192
-0.0043494
-0.00502394
-0.00584242
-0.00683441
-0.00803093
-0.00946258
-0.0111571
-0.0131365
-0.0154137
-0.0179895
-0.0208503
-0.0239657
-0.0272884
-0.0307552
-0.0342885
-0.0377997
-0.0411929
-0.0443685
-0.0472268
-0.0496716
-0.0516127
-0.0529672
-0.0536631
-0.0536384
-0.0528378
-0.0512219
-0.0487625
-0.0454454
-0.0412698
-0.036253
-0.0304343
-0.0238803
-0.0166909
-0.00900746
-0.00101846
0.00703681
0.0148717
0.022166
0.0285931
0.0338619
0.0377671
0.0402348
0.0413487
0.0413357
0.0405195
0.039254
0.0378061
0.0364058
0.000778004
0.000756395
0.000717459
0.000660779
0.000589015
0.000503932
0.00040714
0.00030004
0.0001839
5.98364e-05
-7.1188e-05
-0.000208375
-0.000351112
-0.000499005
-0.000651921
-0.000810051
-0.000973993
-0.00114486
-0.00132444
-0.00151539
-0.00172145
-0.00194782
-0.00220148
-0.00249163
-0.00283015
-0.00323211
-0.00371609
-0.00430455
-0.00502378
-0.00590356
-0.00697632
-0.00827564
-0.00983414
-0.0116807
-0.0138372
-0.0163154
-0.0191136
-0.0222143
-0.0255827
-0.0291664
-0.0328972
-0.036693
-0.0404615
-0.0441041
-0.0475196
-0.0506082
-0.0532738
-0.0554274
-0.0569878
-0.0578841
-0.0580551
-0.0574479
-0.0560223
-0.0537483
-0.0506081
-0.0465953
-0.0417192
-0.0360078
-0.0295133
-0.0223192
-0.0145485
-0.00637253
0.00198242
0.010234
0.0180524
0.0250838
0.0309916
0.0355116
0.0385089
0.0400191
0.0402472
0.0395259
0.0382442
0.0367067
0.0351881
0.000888586
0.000855941
0.000807573
0.000743556
0.000665903
0.00057629
0.000476174
0.000366836
0.000249443
0.000125038
-5.46257e-06
-0.000141291
-0.000281854
-0.000426775
-0.000575949
-0.00072962
-0.000888476
-0.00105379
-0.00122758
-0.00141285
-0.00161387
-0.00183654
-0.00208877
-0.00238101
-0.00272668
-0.00314276
-0.0036501
-0.00427372
-0.00504271
-0.00598977
-0.00715006
-0.00855956
-0.0102525
-0.0122586
-0.0145992
-0.0172843
-0.0203092
-0.0236523
-0.027274
-0.0311169
-0.0351078
-0.0391604
-0.043179
-0.0470628
-0.0507095
-0.0540189
-0.0568959
-0.0592527
-0.0610101
-0.0620986
-0.0624588
-0.0620394
-0.0608004
-0.0587109
-0.0557502
-0.0519074
-0.0471844
-0.0415988
-0.0351894
-0.0280228
-0.0202031
-0.0118823
-0.00326988
0.00536131
0.013678
0.0213048
0.0278629
0.0330286
0.0365994
0.0385543
0.0390658
0.0384689
0.0371861
0.0355625
0.0339225
0.0010045
0.000959962
0.000901491
0.000829689
0.000745841
0.000651492
0.000547911
0.00043623
0.000317497
0.000192674
6.26251e-05
-7.1912e-05
-0.000210361
-0.00035236
-0.000497835
-0.000647086
-0.000800903
-0.000960729
-0.00112885
-0.00130868
-0.00150503
-0.00172458
-0.00197628
-0.00227187
-0.00262647
-0.00305904
-0.0035928
-0.00425541
-0.00507878
-0.00609844
-0.00735219
-0.00887813
-0.0107119
-0.0128834
-0.0154131
-0.0183087
-0.0215623
-0.0251478
-0.0290207
-0.0331186
-0.0373636
-0.0416653
-0.0459251
-0.0500402
-0.0539074
-0.0574268
-0.0605043
-0.0630536
-0.0649974
-0.0662683
-0.0668088
-0.0665696
-0.0655113
-0.0636028
-0.0608215
-0.0571529
-0.0525926
-0.0471489
-0.0408479
-0.0337401
-0.0259103
-0.0174894
-0.00866693
0.000298615
0.00907708
0.0172784
0.0244865
0.0303191
0.0345021
0.0369485
0.0377876
0.0373474
0.0360811
0.0343767
0.0326122
0.00112526
0.00106796
0.000998706
0.000918692
0.000828364
0.000729093
0.000621923
0.000507809
0.000387664
0.00026236
0.000132705
-5.87875e-07
-0.000136956
-0.000276052
-0.000417827
-0.000562643
-0.000711404
-0.000865742
-0.00102824
-0.00120274
-0.00139468
-0.00161157
-0.00186345
-0.0021635
-0.00252859
-0.00297976
-0.00354266
-0.00424763
-0.00512941
-0.00622624
-0.00757841
-0.00922586
-0.0112052
-0.0135463
-0.0162682
-0.0193759
-0.0228579
-0.0266836
-0.0308034
-0.0351501
-0.0396411
-0.0441825
-0.0486729
-0.0530079
-0.0570839
-0.0608012
-0.0640669
-0.0667965
-0.068915
-0.070357
-0.0710673
-0.0709987
-0.0701133
-0.0683802
-0.0657757
-0.0622827
-0.0578916
-0.0526027
-0.0464305
-0.0394105
-0.0316082
-0.0231328
-0.0141513
-0.00490314
0.00429117
0.0130343
0.0208797
0.0273899
0.0322162
0.0351981
0.0364095
0.036161
0.0349314
0.0331529
0.0312619
0.00125033
0.00117937
0.00109865
0.00101001
0.000912936
0.000808576
0.000697713
0.000581094
0.00045948
0.000333646
0.000204349
7.22788e-05
-6.2009e-05
-0.000198174
-0.000336195
-0.000476494
-0.000620099
-0.000768849
-0.000925652
-0.00109482
-0.00128245
-0.00149696
-0.00174958
-0.00205497
-0.00243182
-0.00290337
-0.00349773
-0.00424792
-0.00519144
-0.00636919
-0.00782367
-0.00959642
-0.0117247
-0.0142379
-0.017153
-0.0204723
-0.0241803
-0.0282418
-0.0326023
-0.0371896
-0.041917
-0.0466872
-0.0513965
-0.055939
-0.0602109
-0.0641131
-0.0675539
-0.0704508
-0.072731
-0.0743318
-0.0752001
-0.0752913
-0.0745692
-0.0730038
-0.0705711
-0.0672522
-0.0630336
-0.057909
-0.0518827
-0.0449761
-0.0372367
-0.0287515
-0.0196633
-0.0101886
-0.000632195
0.00860942
0.0170672
0.0242541
0.0297459
0.0333024
0.0349306
0.0349108
0.0337405
0.031896
0.0298774
0.00137909
0.00129354
0.00120068
0.00110302
0.000998946
0.000889352
0.000774711
0.000655531
0.000532409
0.000406019
0.000277067
0.00014623
1.40652e-05
-0.000119088
-0.000253229
-0.000388847
-0.000527098
-0.000670045
-0.000820945
-0.000984617
-0.00116789
-0.00138011
-0.00163378
-0.00194511
-0.0023347
-0.00282801
-0.00345565
-0.00425332
-0.0052612
-0.00652266
-0.00808223
-0.00998274
-0.0122618
-0.0149477
-0.0180554
-0.0215836
-0.0255134
-0.0298045
-0.0343976
-0.0392159
-0.0441688
-0.0491558
-0.0540712
-0.058808
-0.0632621
-0.0673355
-0.0709377
-0.0739884
-0.0764169
-0.0781633
-0.079177
-0.0794162
-0.0788465
-0.0774394
-0.0751715
-0.0720228
-0.067977
-0.0630224
-0.057155
-0.0503836
-0.0427388
-0.0342859
-0.0251428
-0.0155
-0.00564082
0.00404687
0.0130806
0.0209311
0.0271004
0.0312643
0.0333518
0.033599
0.0325131
0.0306125
0.0284661
0.00151083
0.00140975
0.00130407
0.00119699
0.0010857
0.000970748
0.000852263
0.000730487
0.000605839
0.000478889
0.000350303
0.000220751
9.08038e-05
-3.91891e-05
-0.000169245
-0.000299915
-0.000432496
-0.000569288
-0.000713923
-0.000871767
-0.00105041
-0.00126021
-0.00151497
-0.00183255
-0.00223548
-0.0027515
-0.00341372
-0.00426047
-0.00533451
-0.00668151
-0.0083478
-0.0103772
-0.0128071
-0.0156649
-0.0189626
-0.0226955
-0.0268409
-0.0313538
-0.0361701
-0.0412086
-0.0463749
-0.0515659
-0.0566738
-0.0615911
-0.0662136
-0.0704441
-0.0741939
-0.0773843
-0.0799476
-0.0818261
-0.0829723
-0.0833468
-0.0829178
-0.0816586
-0.0795466
-0.0765618
-0.0726862
-0.0679041
-0.0622045
-0.0555855
-0.0480623
-0.03968
-0.0305312
-0.0207787
-0.0106796
-0.000605373
0.00895752
0.0174469
0.0242942
0.0290905
0.0316767
0.0322297
0.031255
0.0293101
0.0270368
0.00164479
0.00152718
0.001408
0.00129113
0.00117241
0.001052
0.000929627
0.000805243
0.000679074
0.000551593
0.000423429
0.000295264
0.000167695
4.10911e-05
-8.45737e-05
-0.000209915
-0.000336372
-0.0004665
-0.000604331
-0.000755809
-0.000929323
-0.00113631
-0.00139193
-0.00171571
-0.00213219
-0.0026714
-0.00336892
-0.00426565
-0.0054068
-0.00684018
-0.00861363
-0.0107716
-0.0133513
-0.0163784
-0.0198621
-0.0237936
-0.028147
-0.0328725
-0.0379012
-0.043148
-0.048515
-0.0538964
-0.0591832
-0.0642669
-0.0690437
-0.0734174
-0.0773007
-0.0806173
-0.0833017
-0.085299
-0.0865645
-0.0870616
-0.0867609
-0.0856381
-0.0836719
-0.0808429
-0.0771324
-0.0725218
-0.0669948
-0.0605406
-0.0531611
-0.0448826
-0.0357733
-0.0259673
-0.015692
-0.00529579
0.00474073
0.0138331
0.0213476
0.0267919
0.0299116
0.0308089
0.0299739
0.027998
0.0256
0.00178009
0.00164491
0.00151154
0.00138452
0.00125818
0.00113224
0.00100597
0.000878986
0.000751333
0.000623383
0.000495748
0.000369133
0.000244178
0.000121287
4.32191e-07
-0.000119063
-0.000238787
-0.000361565
-0.000491849
-0.000636199
-0.000803846
-0.00100734
-0.00126325
-0.00159282
-0.00202264
-0.00258498
-0.00331792
-0.00426481
-0.00547318
-0.00699275
-0.00887264
-0.0111577
-0.0138845
-0.0170771
-0.0207411
-0.0248635
-0.0294161
-0.0343438
-0.0395735
-0.0450159
-0.0505702
-0.0561284
-0.0615799
-0.066816
-0.0717333
-0.0762364
-0.0802398
-0.0836691
-0.0864614
-0.0885645
-0.0899364
-0.0905434
-0.0903587
-0.0893603
-0.0875288
-0.084846
-0.0812931
-0.0768501
-0.0714967
-0.065215
-0.0579957
-0.0498483
-0.0408184
-0.0310112
-0.0206222
-0.00997088
0.000477152
0.0101272
0.0182861
0.024384
0.0280662
0.0293446
0.0286792
0.0266874
0.0241679
0.00191575
0.00176195
0.00161367
0.00147615
0.00134203
0.0012105
0.00108033
0.000950802
0.000821737
0.000693428
0.000566484
0.000441654
0.000319642
0.000200898
8.54041e-05
-2.75744e-05
-0.000139782
-0.000254326
-0.000376103
-0.000512316
-0.000673081
-0.000872101
-0.00112739
-0.00146196
-0.00190443
-0.00248935
-0.00325719
-0.00425368
-0.0055285
-0.0071331
-0.0091176
-0.011527
-0.014397
-0.0177499
-0.0215874
-0.0258915
-0.0306334
-0.0357522
-0.0411705
-0.0467955
-0.0525235
-0.0582445
-0.063847
-0.0692218
-0.074266
-0.0788852
-0.0829957
-0.086525
-0.0894127
-0.0916091
-0.093075
-0.0937795
-0.0936985
-0.0928124
-0.091104
-0.0885566
-0.0851522
-0.0808701
-0.0756876
-0.0695815
-0.0625333
-0.0545383
-0.0456213
-0.0358597
-0.0254162
-0.0145767
-0.00378354
0.00637093
0.0151407
0.021887
0.0261536
0.0278475
0.0273821
0.0253909
0.0227544
0.00205067
0.00187714
0.00171323
0.00156487
0.00142283
0.0012857
0.00115168
0.00101967
0.000889309
0.000760804
0.000634782
0.000512061
0.000393424
0.00027939
0.000169957
6.4337e-05
-3.93767e-05
-0.000144586
-0.000256654
-0.000383461
-0.000536037
-0.000729281
-0.000982688
-0.00132105
-0.00177504
-0.00238143
-0.00318304
-0.00422784
-0.00556752
-0.00725499
-0.00934119
-0.011871
-0.0148791
-0.0183862
-0.0223892
-0.0268646
-0.0317848
-0.037083
-0.0426772
-0.0484714
-0.0543594
-0.0602296
-0.0659694
-0.0714697
-0.0766278
-0.0813506
-0.0855559
-0.0891734
-0.0921446
-0.0944228
-0.095971
-0.0967612
-0.096772
-0.0959862
-0.094389
-0.0919654
-0.0886988
-0.0845688
-0.0795514
-0.0736198
-0.0667484
-0.0589207
-0.0501431
-0.0404675
-0.0300234
-0.0190604
-0.00799035
0.00260983
0.0119466
0.0193254
0.0241905
0.0263308
0.0260959
0.0241234
0.0213757
0.00218363
0.00198921
0.00180893
0.00164941
0.00149934
0.00135661
0.00121881
0.00108446
0.000952965
0.000824493
0.000699707
0.000579518
0.000464814
0.000356195
0.000253692
0.000156462
6.24322e-05
-3.21083e-05
-0.000133013
-0.000248865
-0.000391646
-0.000577481
-0.000827377
-0.00116792
-0.00163181
-0.00225805
-0.00309167
-0.00418279
-0.0055849
-0.00735222
-0.00953622
-0.0121815
-0.0153214
-0.0189758
-0.0231358
-0.02777
-0.0328576
-0.0383231
-0.0440801
-0.0500301
-0.0560646
-0.0620705
-0.0679346
-0.0735475
-0.0788074
-0.0836221
-0.0879109
-0.0916054
-0.0946495
-0.0969986
-0.0986184
-0.0994833
-0.0995745
-0.0988773
-0.0973793
-0.0950676
-0.0919271
-0.0879386
-0.0830778
-0.0773158
-0.070622
-0.0629703
-0.0543516
-0.0447947
-0.0343973
-0.0233714
-0.0120922
-0.00110794
0.00874369
0.0167279
0.0221976
0.0248105
0.0248359
0.0229013
0.0200494
0.00231327
0.00209674
0.00189934
0.00172834
0.00157016
0.00142188
0.00128043
0.0011439
0.00101151
0.000883376
0.000760237
0.000643122
0.000533048
0.000430716
0.000336196
0.000248594
0.000165667
8.33778e-05
-4.64008e-06
-0.0001077
-0.000238767
-0.000415226
-0.000659614
-0.00100032
-0.00147206
-0.00211598
-0.00297926
-0.00411404
-0.00557542
-0.0074187
-0.00969571
-0.0124504
-0.0157151
-0.0195095
-0.0238178
-0.0285956
-0.0338395
-0.0394607
-0.0453674
-0.0514598
-0.0576275
-0.0637561
-0.0697319
-0.0754456
-0.0807959
-0.0856916
-0.0900535
-0.0938152
-0.0969223
-0.0993326
-0.101014
-0.101944
-0.102104
-0.101485
-0.100074
-0.097862
-0.0948354
-0.0909765
-0.0862617
-0.0806611
-0.074141
-0.0666682
-0.058221
-0.0488078
-0.0384969
-0.0274624
-0.0160388
-0.00473173
0.0055738
0.0141266
0.0201988
0.0233057
0.02362
0.0217435
0.0187956
0.00243808
0.00219816
0.00198285
0.0018001
0.00163375
0.00148002
0.00133509
0.00119661
0.00106362
0.00093623
0.000815262
0.000701898
0.000597311
0.000502317
0.000417038
0.000340531
0.00027037
0.000202176
0.000129047
4.09094e-05
-7.62131e-05
-0.000240993
-0.000477517
-0.000815973
-0.00129306
-0.00195201
-0.00284207
-0.00401721
-0.005534
-0.0074486
-0.009813
-0.0126704
-0.0160518
-0.0199791
-0.0244255
-0.0293311
-0.0347201
-0.0404855
-0.0465288
-0.0527505
-0.0590384
-0.0652774
-0.0713531
-0.0771564
-0.0825865
-0.0875533
-0.0919791
-0.0957989
-0.0989604
-0.101423
-0.103157
-0.104142
-0.104363
-0.10381
-0.102475
-0.100351
-0.0974255
-0.0936833
-0.089102
-0.083652
-0.0772978