/*--------------------------------*- C++ -*----------------------------------*\
  =========                 |
  \\      /  F ield         | OpenFOAM: The Open Source CFD Toolbox
   \\    /   O peration     | Website:  https://openfoam.org
    \\  /    A nd           | Version:  12
     \\/     M anipulation  |
\*---------------------------------------------------------------------------*/
FoamFile
{
    format      ascii;
    class       surfaceScalarField;
    location    "6";
    object      phi;
}
// * * * * * * * * * * * * * * * * * * * * * * * * * * * * * * * * * * * * * //

dimensions      [0 3 -1 0 0 0 0];

internalField   nonuniform List<scalar> 
11100
(
-2.6481e-11
2.59803e-11
4.50976e-10
-4.77436e-10
1.35895e-09
-9.07956e-10
2.52945e-09
-1.17049e-09
3.8273e-09
-1.29786e-09
5.15228e-09
-1.325e-09
6.43428e-09
-1.28202e-09
7.62632e-09
-1.19204e-09
8.69855e-09
-1.07224e-09
9.63357e-09
-9.35016e-10
1.04225e-08
-7.88962e-10
1.10621e-08
-6.39577e-10
1.15521e-08
-4.89948e-10
1.18932e-08
-3.41189e-10
1.20858e-08
-1.9258e-10
1.21287e-08
-4.28415e-11
1.20172e-08
1.11493e-10
1.17428e-08
2.74386e-10
1.12924e-08
4.50345e-10
1.06474e-08
6.45e-10
9.78289e-09
8.64553e-10
8.66675e-09
1.11614e-09
7.25969e-09
1.40705e-09
5.51397e-09
1.74572e-09
3.3733e-09
2.14066e-09
7.7215e-10
2.60115e-09
-2.36446e-09
3.13661e-09
-6.12123e-09
3.75677e-09
-1.05925e-08
4.47122e-09
-1.58814e-08
5.2889e-09
-2.20993e-08
6.21798e-09
-2.93646e-08
7.26528e-09
-3.78e-08
8.43542e-09
-4.75301e-08
9.73004e-09
-5.86769e-08
1.11468e-08
-7.13553e-08
1.26784e-08
-8.56667e-08
1.43114e-08
-1.01692e-07
1.60251e-08
-1.19483e-07
1.77909e-08
-1.39054e-07
1.95709e-08
-1.60371e-07
2.13177e-08
-1.83346e-07
2.29743e-08
-2.0782e-07
2.44744e-08
-2.33563e-07
2.57426e-08
-2.60259e-07
2.66964e-08
-2.87507e-07
2.72478e-08
-3.14812e-07
2.73057e-08
-3.41592e-07
2.67792e-08
-3.67173e-07
2.55813e-08
-3.90807e-07
2.36341e-08
-4.11676e-07
2.08688e-08
-4.28876e-07
1.72004e-08
-4.41539e-07
1.26627e-08
-4.48958e-07
7.4186e-09
-4.5029e-07
1.33197e-09
-4.44817e-07
-5.47271e-09
-4.32174e-07
-1.2643e-08
-4.12186e-07
-1.99877e-08
-3.85032e-07
-2.7154e-08
-3.51285e-07
-3.3747e-08
-3.11944e-07
-3.93413e-08
-2.68424e-07
-4.35197e-08
-2.22502e-07
-4.59217e-08
-1.76205e-07
-4.62971e-08
-1.31652e-07
-4.45538e-08
-9.08621e-08
-4.07894e-08
-5.55675e-08
-3.52946e-08
-2.70436e-08
-2.85239e-08
-6.00572e-09
-2.10379e-08
7.43405e-09
-1.34398e-08
1.37291e-08
-6.29503e-09
1.39058e-08
-1.76685e-10
9.61129e-09
4.29447e-09
3.57893e-09
6.03236e-09
3.57893e-09
2.85693e-10
-2.59677e-10
1.71584e-09
-1.90755e-09
4.14967e-09
-3.34175e-09
7.23522e-09
-4.25605e-09
1.06515e-08
-4.71413e-09
1.41443e-08
-4.81787e-09
1.75266e-08
-4.66435e-09
2.06674e-08
-4.33275e-09
2.34791e-08
-3.88398e-09
2.59071e-08
-3.36298e-09
2.79195e-08
-2.80137e-09
2.94995e-08
-2.21962e-09
3.06388e-08
-1.62926e-09
3.1332e-08
-1.03439e-09
3.1572e-08
-4.32518e-10
3.13472e-08
1.8192e-10
3.06364e-08
8.22305e-10
2.94073e-08
1.50349e-09
2.76143e-08
2.24329e-09
2.51956e-08
3.06368e-09
2.20714e-08
3.98875e-09
1.81419e-08
5.04571e-09
1.32855e-08
6.26342e-09
7.35792e-09
7.67331e-09
1.90466e-10
9.30811e-09
-8.41148e-09
1.12031e-08
-1.86688e-08
1.3394e-08
-3.08274e-08
1.59153e-08
-4.51567e-08
1.88005e-08
-6.1949e-08
2.20812e-08
-8.15153e-08
2.57843e-08
-1.04179e-07
2.99294e-08
-1.30271e-07
3.45267e-08
-1.60114e-07
3.95732e-08
-1.94016e-07
4.50491e-08
-2.32252e-07
5.09142e-08
-2.75044e-07
5.71037e-08
-3.22544e-07
6.35248e-08
-3.74807e-07
7.00535e-08
-4.31768e-07
7.65326e-08
-4.93221e-07
8.27708e-08
-5.5879e-07
8.85435e-08
-6.27911e-07
9.35951e-08
-6.99813e-07
9.7644e-08
-7.73505e-07
1.00388e-07
-8.47771e-07
1.01515e-07
-9.21174e-07
1.00708e-07
-9.92061e-07
9.76665e-08
-1.05859e-06
9.21115e-08
-1.11877e-06
8.3808e-08
-1.17047e-06
7.25742e-08
-1.21154e-06
5.82697e-08
-1.23968e-06
4.08008e-08
-1.25318e-06
2.09252e-08
-1.2503e-06
-1.55044e-09
-1.22963e-06
-2.61428e-08
-1.19029e-06
-5.19834e-08
-1.13221e-06
-7.80671e-08
-1.05612e-06
-1.03245e-07
-9.63678e-07
-1.2619e-07
-8.5753e-07
-1.45489e-07
-7.41276e-07
-1.59774e-07
-6.19331e-07
-1.67867e-07
-4.96676e-07
-1.68952e-07
-3.78505e-07
-1.62725e-07
-2.69797e-07
-1.49497e-07
-1.74877e-07
-1.30215e-07
-9.70182e-08
-1.06383e-07
-3.81645e-08
-7.98916e-08
1.20612e-09
-5.28104e-08
2.21495e-08
-2.72384e-08
2.71572e-08
-5.18436e-09
2.04216e-08
1.10301e-08
8.29663e-09
1.81573e-08
1.18756e-08
7.28642e-10
-9.88317e-10
3.094e-09
-4.27289e-09
6.83569e-09
-7.08343e-09
1.14929e-08
-8.91325e-09
1.66218e-08
-9.84301e-09
2.18557e-08
-1.00518e-08
2.69148e-08
-9.72344e-09
3.15963e-08
-9.01433e-09
3.57605e-08
-8.04818e-09
3.93153e-08
-6.91775e-09
4.22029e-08
-5.68902e-09
4.43883e-08
-4.405e-09
4.5849e-08
-3.08992e-09
4.65668e-08
-1.75214e-09
4.65208e-08
-3.86584e-10
4.56819e-08
1.02088e-09
4.40057e-08
2.49846e-09
4.14306e-08
4.07858e-09
3.78726e-08
5.80131e-09
3.32215e-08
7.71473e-09
2.73382e-08
9.87206e-09
2.0052e-08
1.23319e-08
1.11574e-08
1.5158e-08
4.1174e-10
1.8419e-08
-1.24674e-08
2.21872e-08
-2.78007e-08
2.65364e-08
-4.59475e-08
3.15407e-08
-6.73055e-08
3.72733e-08
-9.23085e-08
4.38035e-08
-1.2142e-07
5.11931e-08
-1.55128e-07
5.94918e-08
-1.9393e-07
6.87317e-08
-2.38324e-07
7.89208e-08
-2.88787e-07
9.00362e-08
-3.45754e-07
1.02016e-07
-4.0959e-07
1.1475e-07
-4.80561e-07
1.28075e-07
-5.588e-07
1.41764e-07
-6.44272e-07
1.55525e-07
-7.36734e-07
1.68994e-07
-8.35704e-07
1.8174e-07
-9.40426e-07
1.93266e-07
-1.04985e-06
2.03017e-07
-1.1626e-06
2.10396e-07
-1.27699e-06
2.14775e-07
-1.39099e-06
2.15521e-07
-1.5023e-06
2.12015e-07
-1.60831e-06
2.0368e-07
-1.70621e-06
1.9001e-07
-1.79301e-06
1.70605e-07
-1.86563e-06
1.452e-07
-1.92106e-06
1.13691e-07
-1.9561e-06
7.58489e-08
-1.96848e-06
3.33061e-08
-1.95601e-06
-1.40251e-08
-1.9169e-06
-6.5258e-08
-1.85037e-06
-1.18506e-07
-1.75665e-06
-1.71791e-07
-1.63707e-06
-2.22827e-07
-1.49424e-06
-2.69018e-07
-1.33209e-06
-3.07638e-07
-1.15581e-06
-3.36053e-07
-9.71672e-07
-3.52007e-07
-7.867e-07
-3.53923e-07
-6.08229e-07
-3.41197e-07
-4.43336e-07
-3.1439e-07
-2.98255e-07
-2.75296e-07
-1.77821e-07
-2.26817e-07
-8.50405e-08
-1.72672e-07
-2.0831e-08
-1.1702e-07
1.60768e-08
-6.41463e-08
2.92018e-08
-1.83093e-08
2.44792e-08
1.57527e-08
1.06152e-08
3.20214e-08
2.24907e-08
1.17378e-09
-2.16206e-09
4.41239e-09
-7.51147e-09
9.27869e-09
-1.19497e-08
1.52237e-08
-1.48582e-08
2.1719e-08
-1.63384e-08
2.83177e-08
-1.66505e-08
3.46691e-08
-1.60748e-08
4.05124e-08
-1.48576e-08
4.5662e-08
-1.31978e-08
4.9991e-08
-1.12467e-08
5.34148e-08
-9.11283e-09
5.58769e-08
-6.86713e-09
5.73365e-08
-4.54945e-09
5.77573e-08
-2.17301e-09
5.70994e-08
2.71327e-10
5.53096e-08
2.81074e-09
5.23159e-08
5.49216e-09
4.80215e-08
8.37295e-09
4.22989e-08
1.15239e-08
3.49859e-08
1.50278e-08
2.58807e-08
1.89773e-08
1.47381e-08
2.34745e-08
1.26505e-09
2.86311e-08
-1.48797e-08
3.45638e-08
-3.40875e-08
4.1395e-08
-5.68011e-08
4.92501e-08
-8.35145e-08
5.8254e-08
-1.14769e-07
6.85276e-08
-1.51147e-07
8.01822e-08
-1.93268e-07
9.33133e-08
-2.41768e-07
1.07992e-07
-2.9729e-07
1.24254e-07
-3.6046e-07
1.42091e-07
-4.3186e-07
1.61436e-07
-5.11993e-07
1.82148e-07
-6.01248e-07
2.04005e-07
-6.99858e-07
2.26685e-07
-8.07853e-07
2.49759e-07
-9.25015e-07
2.72687e-07
-1.05083e-06
2.9481e-07
-1.18446e-06
3.15365e-07
-1.32468e-06
3.33486e-07
-1.46989e-06
3.48231e-07
-1.61809e-06
3.58601e-07
-1.7669e-06
3.63576e-07
-1.91352e-06
3.6215e-07
-2.05488e-06
3.53371e-07
-2.18758e-06
3.36384e-07
-2.30806e-06
3.10481e-07
-2.4126e-06
2.75147e-07
-2.4975e-06
2.30107e-07
-2.55918e-06
1.75364e-07
-2.59442e-06
1.11096e-07
-2.60022e-06
3.90992e-08
-2.57431e-06
-3.99332e-08
-2.51517e-06
-1.24394e-07
-2.42225e-06
-2.1143e-07
-2.29613e-06
-2.97909e-07
-2.13874e-06
-3.80221e-07
-1.95342e-06
-4.54335e-07
-1.74501e-06
-5.16045e-07
-1.51977e-06
-5.61297e-07
-1.28517e-06
-5.86603e-07
-1.04959e-06
-5.89501e-07
-8.21805e-07
-5.68986e-07
-6.10352e-07
-5.25842e-07
-4.22883e-07
-4.62765e-07
-2.65478e-07
-3.84222e-07
-1.42096e-07
-2.96054e-07
-5.41898e-08
-2.04926e-07
-5.12381e-10
-1.17824e-07
2.30451e-08
-4.18669e-08
2.34696e-08
1.53282e-08
1.09904e-08
4.45006e-08
3.34811e-08
1.57432e-09
-3.73638e-09
5.58546e-09
-1.15226e-08
1.13993e-08
-1.77635e-08
1.83802e-08
-2.18392e-08
2.59356e-08
-2.38938e-08
3.35606e-08
-2.42755e-08
4.08519e-08
-2.33662e-08
4.75032e-08
-2.15089e-08
5.32907e-08
-1.89853e-08
5.80557e-08
-1.60118e-08
6.16876e-08
-1.27447e-08
6.41068e-08
-9.28631e-09
6.52509e-08
-5.69353e-09
6.5062e-08
-1.98409e-09
6.34757e-08
1.85759e-09
6.04111e-08
5.87535e-09
5.57634e-08
1.01398e-08
4.93963e-08
1.47401e-08
4.11351e-08
1.97852e-08
3.07611e-08
2.54018e-08
1.80055e-08
3.17328e-08
2.54666e-09
3.89333e-08
-1.5994e-08
4.71717e-08
-3.80552e-08
5.66249e-08
-6.41373e-08
6.74771e-08
-9.48018e-08
7.99146e-08
-1.30669e-07
9.41212e-08
-1.72413e-07
1.10271e-07
-2.20751e-07
1.28521e-07
-2.76434e-07
1.48997e-07
-3.40226e-07
1.71783e-07
-4.12879e-07
1.96907e-07
-4.95107e-07
2.24319e-07
-5.87544e-07
2.53873e-07
-6.90704e-07
2.85309e-07
-8.04933e-07
3.18234e-07
-9.30354e-07
3.52105e-07
-1.06681e-06
3.86217e-07
-1.21382e-06
4.19696e-07
-1.37052e-06
4.51509e-07
-1.53562e-06
4.80471e-07
-1.70741e-06
5.05272e-07
-1.88369e-06
5.24513e-07
-2.06184e-06
5.36745e-07
-2.23879e-06
5.40525e-07
-2.41111e-06
5.34472e-07
-2.57506e-06
5.17322e-07
-2.72667e-06
4.87995e-07
-2.86184e-06
4.45653e-07
-2.97646e-06
3.89761e-07
-3.0665e-06
3.20153e-07
-3.12822e-06
2.3708e-07
-3.15835e-06
1.41229e-07
-3.15389e-06
3.46335e-08
-3.1127e-06
-8.11212e-08
-3.03357e-06
-2.03518e-07
-2.91629e-06
-3.28719e-07
-2.76181e-06
-4.52385e-07
-2.5725e-06
-5.69526e-07
-2.35221e-06
-6.74629e-07
-2.1063e-06
-7.61953e-07
-1.84165e-06
-8.25953e-07
-1.56643e-06
-8.61819e-07
-1.28984e-06
-8.66087e-07
-1.02159e-06
-8.3724e-07
-7.71248e-07
-7.76184e-07
-5.47548e-07
-6.86466e-07
-3.57612e-07
-5.74158e-07
-2.06287e-07
-4.47378e-07
-9.56398e-08
-3.15573e-07
-2.46444e-08
-1.88819e-07
1.09613e-08
-7.74726e-08
1.88036e-08
7.48589e-09
1.00063e-08
5.32979e-08
4.34874e-08
1.91199e-09
-5.64834e-09
6.57276e-09
-1.61833e-08
1.31562e-08
-2.4347e-08
2.09391e-08
-2.9622e-08
2.92751e-08
-3.22299e-08
3.76165e-08
-3.2617e-08
4.55217e-08
-3.12714e-08
5.26495e-08
-2.86367e-08
5.87453e-08
-2.50811e-08
6.36232e-08
-2.08896e-08
6.71471e-08
-1.62687e-08
6.92141e-08
-1.13532e-08
6.97383e-08
-6.21781e-09
6.86374e-08
-8.83115e-10
6.58188e-08
4.67612e-09
6.11703e-08
1.05239e-08
5.45503e-08
1.67598e-08
4.57788e-08
2.35116e-08
3.46294e-08
3.09345e-08
2.08243e-08
3.92069e-08
4.02786e-09
4.85292e-08
-1.61591e-08
5.91203e-08
-4.02024e-08
7.12151e-08
-6.86376e-08
8.50601e-08
-1.0207e-07
1.0091e-07
-1.41174e-07
1.19019e-07
-1.86688e-07
1.39635e-07
-2.39405e-07
1.62988e-07
-3.00162e-07
1.89278e-07
-3.6982e-07
2.18655e-07
-4.49239e-07
2.51203e-07
-5.39247e-07
2.86916e-07
-6.406e-07
3.25672e-07
-7.53935e-07
3.67207e-07
-8.79715e-07
4.11089e-07
-1.01817e-06
4.56693e-07
-1.16925e-06
5.03183e-07
-1.33253e-06
5.49497e-07
-1.50719e-06
5.94356e-07
-1.69195e-06
6.36268e-07
-1.88504e-06
6.73559e-07
-2.08418e-06
7.04419e-07
-2.28662e-06
7.26952e-07
-2.48913e-06
7.39249e-07
-2.68806e-06
7.39458e-07
-2.87945e-06
7.25863e-07
-3.05909e-06
6.96962e-07
-3.22264e-06
6.51538e-07
-3.36572e-06
5.88736e-07
-3.48408e-06
5.08124e-07
-3.57369e-06
4.09763e-07
-3.63089e-06
2.94276e-07
-3.65256e-06
1.62902e-07
-3.63598e-06
1.80556e-08
-3.57931e-06
-1.37796e-07
-3.48166e-06
-3.0117e-07
-3.34311e-06
-4.67269e-07
-3.16492e-06
-6.30573e-07
-2.94969e-06
-7.84751e-07
-2.70148e-06
-9.22838e-07
-2.42587e-06
-1.03756e-06
-2.12996e-06
-1.12186e-06
-1.82226e-06
-1.16953e-06
-1.51237e-06
-1.17597e-06
-1.21061e-06
-1.139e-06
-9.27303e-07
-1.05949e-06
-6.72054e-07
-9.41715e-07
-4.52917e-07
-7.93295e-07
-2.75617e-07
-6.24679e-07
-1.42918e-07
-4.48273e-07
-5.42139e-08
-2.77523e-07
-5.32578e-09
-1.26361e-07
1.15943e-08
-9.43421e-09
8.11526e-09
5.6777e-08
5.16026e-08
2.18107e-09
-7.82939e-09
7.35834e-09
-2.13606e-08
1.45324e-08
-3.1521e-08
2.28941e-08
-3.79837e-08
3.17501e-08
-4.10859e-08
4.052e-08
-4.13869e-08
4.87345e-08
-3.94858e-08
5.6027e-08
-3.59293e-08
6.21186e-08
-3.11727e-08
6.68001e-08
-2.55711e-08
6.99124e-08
-1.93811e-08
7.13302e-08
-1.2771e-08
7.09428e-08
-5.83039e-09
6.864e-08
1.41967e-09
6.42995e-08
9.01656e-09
5.77741e-08
1.70493e-08
4.88815e-08
2.56525e-08
3.73952e-08
3.49979e-08
2.30363e-08
4.52933e-08
5.4658e-09
5.67774e-08
-1.57218e-08
6.97168e-08
-4.10035e-08
8.4402e-08
-7.09314e-08
1.01143e-07
-1.06135e-07
1.20264e-07
-1.4732e-07
1.42095e-07
-1.95267e-07
1.66965e-07
-2.50821e-07
1.95189e-07
-3.14881e-07
2.27048e-07
-3.88383e-07
2.6278e-07
-4.72274e-07
3.02546e-07
-5.6748e-07
3.46408e-07
-6.74864e-07
3.943e-07
-7.9518e-07
4.45988e-07
-9.29013e-07
5.01039e-07
-1.07672e-06
5.58792e-07
-1.23834e-06
6.1832e-07
-1.41358e-06
6.78422e-07
-1.60169e-06
7.37608e-07
-1.80145e-06
7.94114e-07
-2.01111e-06
8.45927e-07
-2.22839e-06
8.90838e-07
-2.45048e-06
9.26504e-07
-2.67406e-06
9.50535e-07
-2.89539e-06
9.60585e-07
-3.11038e-06
9.54449e-07
-3.31468e-06
9.30163e-07
-3.50381e-06
8.8609e-07
-3.67328e-06
8.21002e-07
-3.81869e-06
7.34151e-07
-3.9359e-06
6.25332e-07
-4.02108e-06
4.94947e-07
-4.07087e-06
3.44066e-07
-4.08247e-06
1.74498e-07
-4.05354e-06
-1.0872e-08
-3.98259e-06
-2.08753e-07
-3.86899e-06
-4.14762e-07
-3.71306e-06
-6.23205e-07
-3.51616e-06
-8.27474e-07
-3.28091e-06
-1.02e-06
-3.01132e-06
-1.19243e-06
-2.71287e-06
-1.33601e-06
-2.39261e-06
-1.44213e-06
-2.05905e-06
-1.50309e-06
-1.72198e-06
-1.51304e-06
-1.39206e-06
-1.46892e-06
-1.08021e-06
-1.37134e-06
-7.96811e-07
-1.22511e-06
-5.50812e-07
-1.03929e-06
-3.48843e-07
-8.26648e-07
-1.94465e-07
-6.02651e-07
-8.76505e-08
-3.84337e-07
-2.45272e-08
-1.89484e-07
2.68406e-09
-3.66455e-08
5.65447e-09
5.38065e-08
5.72571e-08
2.38217e-09
-1.02115e-08
7.94005e-09
-2.69184e-08
1.5526e-08
-3.91069e-08
2.42511e-08
-4.67088e-08
3.33801e-08
-5.02149e-08
4.23073e-08
-5.03141e-08
5.05443e-08
-4.77229e-08
5.77067e-08
-4.30917e-08
6.34976e-08
-3.69636e-08
6.76885e-08
-2.9762e-08
7.01002e-08
-2.17928e-08
7.05844e-08
-1.32552e-08
6.90053e-08
-4.25126e-09
6.52246e-08
5.20038e-09
5.90871e-08
1.5154e-08
5.04086e-08
2.57279e-08
3.89645e-08
3.70965e-08
2.44798e-08
4.94826e-08
6.61996e-09
6.31531e-08
-1.50166e-08
7.8414e-08
-4.09053e-08
9.56055e-08
-7.16004e-08
1.15097e-07
-1.07738e-07
1.37281e-07
-1.50039e-07
1.62564e-07
-1.99302e-07
1.91359e-07
-2.56405e-07
2.24068e-07
-3.22288e-07
2.61072e-07
-3.9794e-07
3.027e-07
-4.84374e-07
3.49213e-07
-5.82594e-07
4.00766e-07
-6.93559e-07
4.57373e-07
-8.18128e-07
5.18869e-07
-9.57003e-07
5.84863e-07
-1.11066e-06
6.54699e-07
-1.27929e-06
7.2742e-07
-1.4627e-06
8.01732e-07
-1.66027e-06
8.75992e-07
-1.87088e-06
9.48214e-07
-2.09285e-06
1.01609e-06
-2.32397e-06
1.07704e-06
-2.56143e-06
1.1283e-06
-2.80191e-06
1.16699e-06
-3.04164e-06
1.19027e-06
-3.27647e-06
1.19541e-06
-3.50199e-06
1.17996e-06
-3.71364e-06
1.14182e-06
-3.9069e-06
1.07935e-06
-4.07734e-06
9.9144e-07
-4.22077e-06
8.77579e-07
-4.33334e-06
7.37896e-07
-4.4116e-06
5.73209e-07
-4.4526e-06
3.85074e-07
-4.45396e-06
1.75854e-07
-4.41375e-06
-5.10852e-08
-4.33077e-06
-2.91732e-07
-4.2046e-06
-5.4093e-07
-4.0356e-06
-7.92207e-07
-3.82507e-06
-1.038e-06
-3.57544e-06
-1.26963e-06
-3.29042e-06
-1.47745e-06
-2.97515e-06
-1.65128e-06
-2.63636e-06
-1.78091e-06
-2.28236e-06
-1.85709e-06
-1.92291e-06
-1.87248e-06
-1.56891e-06
-1.82293e-06
-1.23174e-06
-1.70851e-06
-9.22547e-07
-1.53431e-06
-6.51188e-07
-1.31065e-06
-4.25273e-07
-1.05256e-06
-2.4927e-07
-7.78654e-07
-1.23882e-07
-5.09726e-07
-4.57277e-08
-2.67638e-07
-7.31796e-09
-7.50552e-08
2.86306e-09
4.36255e-08
6.01202e-08
2.51899e-09
-1.27305e-08
8.32342e-09
-3.27229e-08
1.61449e-08
-4.69284e-08
2.50239e-08
-5.55879e-08
3.41891e-08
-5.93801e-08
4.3016e-08
-5.9141e-08
5.10035e-08
-5.57104e-08
5.77562e-08
-4.98443e-08
6.29642e-08
-4.21717e-08
6.63844e-08
-3.31821e-08
6.78193e-08
-2.32278e-08
6.7099e-08
-1.25349e-08
6.40627e-08
-1.21492e-09
5.85428e-08
1.07202e-08
5.03506e-08
2.33462e-08
3.9263e-08
3.68155e-08
2.50113e-08
5.13483e-08
7.27006e-09
6.72238e-08
-1.43516e-08
8.47748e-08
-4.03185e-08
1.04381e-07
-7.11755e-08
1.26463e-07
-1.07553e-07
1.51474e-07
-1.50167e-07
1.79896e-07
-1.99824e-07
2.12221e-07
-2.57412e-07
2.48946e-07
-3.23891e-07
2.90548e-07
-4.00284e-07
3.37464e-07
-4.87649e-07
3.90065e-07
-5.87052e-07
4.48617e-07
-6.99529e-07
5.13243e-07
-8.26032e-07
5.83876e-07
-9.67372e-07
6.60209e-07
-1.12415e-06
7.41644e-07
-1.2967e-06
8.27242e-07
-1.48496e-06
9.15681e-07
-1.68846e-06
1.00523e-06
-1.90621e-06
1.09374e-06
-2.13667e-06
1.17868e-06
-2.37771e-06
1.25713e-06
-2.62662e-06
1.32595e-06
-2.88013e-06
1.3818e-06
-3.13447e-06
1.42134e-06
-3.38551e-06
1.4413e-06
-3.62882e-06
1.43872e-06
-3.85985e-06
1.41099e-06
-4.07405e-06
1.35602e-06
-4.26701e-06
1.27231e-06
-4.43457e-06
1.159e-06
-4.57292e-06
1.01593e-06
-4.67864e-06
8.43618e-07
-4.74879e-06
6.43353e-07
-4.78088e-06
4.17165e-07
-4.77294e-06
1.67917e-07
-4.72343e-06
-1.00599e-07
-4.63137e-06
-3.83793e-07
-4.49639e-06
-6.75903e-07
-4.31877e-06
-9.69824e-07
-4.09957e-06
-1.2572e-06
-3.84082e-06
-1.52838e-06
-3.54572e-06
-1.77256e-06
-3.21888e-06
-1.97811e-06
-2.86653e-06
-2.13327e-06
-2.49657e-06
-2.22705e-06
-2.1186e-06
-2.25045e-06
-1.74363e-06
-2.1979e-06
-1.3835e-06
-2.06864e-06
-1.05008e-06
-1.86773e-06
-7.54213e-07
-1.60652e-06
-5.04595e-07
-1.30218e-06
-3.06735e-07
-9.76514e-07
-1.62216e-07
-6.54245e-07
-6.83126e-08
-3.61541e-07
-1.7997e-08
-1.25371e-07
-1.17781e-10
2.57463e-08
6.00024e-08
2.59636e-09
-1.53268e-08
8.51771e-09
-3.86442e-08
1.64019e-08
-5.48125e-08
2.52309e-08
-6.4417e-08
3.4204e-08
-6.83532e-08
4.26836e-08
-6.76206e-08
5.01622e-08
-6.31891e-08
5.62387e-08
-5.59208e-08
6.05957e-08
-4.65287e-08
6.29785e-08
-3.55648e-08
6.31742e-08
-2.34236e-08
6.09928e-08
-1.03535e-08
5.62488e-08
3.52909e-09
4.87452e-08
1.82239e-08
3.82587e-08
3.38327e-08
2.45265e-08
5.05477e-08
7.23453e-09
6.86403e-08
-1.39936e-08
8.8452e-08
-3.96058e-08
1.10387e-07
-7.01294e-08
1.34904e-07
-1.06178e-07
1.62511e-07
-1.48453e-07
1.9375e-07
-1.9775e-07
2.29193e-07
-2.54953e-07
2.69423e-07
-3.21025e-07
3.15018e-07
-3.97003e-07
3.66526e-07
-4.83973e-07
4.24434e-07
-5.83041e-07
4.89134e-07
-6.95302e-07
5.60878e-07
-8.21787e-07
6.39728e-07
-9.63407e-07
7.25496e-07
-1.12088e-06
8.17685e-07
-1.29467e-06
9.15433e-07
-1.48488e-06
1.01745e-06
-1.6912e-06
1.122e-06
-1.9128e-06
1.22683e-06
-2.14831e-06
1.32925e-06
-2.39573e-06
1.4261e-06
-2.65249e-06
1.51389e-06
-2.91542e-06
1.58887e-06
-3.18082e-06
1.64721e-06
-3.44461e-06
1.68512e-06
-3.70238e-06
1.69908e-06
-3.94962e-06
1.68596e-06
-4.18179e-06
1.64316e-06
-4.39452e-06
1.56875e-06
-4.58369e-06
1.46149e-06
-4.74558e-06
1.32089e-06
-4.87685e-06
1.14719e-06
-4.97463e-06
9.41399e-07
-5.03649e-06
7.05219e-07
-5.06045e-06
4.41122e-07
-5.04491e-06
1.52376e-07
-4.98861e-06
-1.56894e-07
-4.89072e-06
-4.8169e-07
-4.75079e-06
-8.1583e-07
-4.56888e-06
-1.15174e-06
-4.34564e-06
-1.48044e-06
-4.08256e-06
-1.79146e-06
-3.78219e-06
-2.07293e-06
-3.44843e-06
-2.31187e-06
-3.08682e-06
-2.49488e-06
-2.70474e-06
-2.60913e-06
-2.31148e-06
-2.6437e-06
-1.91807e-06
-2.59132e-06
-1.53674e-06
-2.44997e-06
-1.18014e-06
-2.22433e-06
-8.60177e-07
-1.92648e-06
-5.86747e-07
-1.57561e-06
-3.66563e-07
-1.1967e-06
-2.02253e-07
-8.18555e-07
-9.19067e-08
-4.71887e-07
-2.90919e-08
-1.88186e-07
-3.1443e-09
-2.01308e-10
5.68581e-08
2.61926e-09
-1.7946e-08
8.53355e-09
-4.45584e-08
1.63123e-08
-6.25913e-08
2.48926e-08
-7.29974e-08
3.34523e-08
-7.69129e-08
4.13469e-08
-7.55152e-08
4.80681e-08
-6.99103e-08
5.32141e-08
-6.10668e-08
5.64645e-08
-4.9779e-08
5.75566e-08
-3.66569e-08
5.62648e-08
-2.21318e-08
5.23804e-08
-6.46907e-09
4.5694e-08
1.02155e-08
3.59793e-08
2.79386e-08
2.29782e-08
4.68338e-08
6.3877e-09
6.71382e-08
-1.4152e-08
8.918e-08
-3.90684e-08
1.13368e-07
-6.88658e-08
1.40184e-07
-1.04133e-07
1.70172e-07
-1.45549e-07
2.03926e-07
-1.93885e-07
2.42086e-07
-2.50007e-07
2.85315e-07
-3.14869e-07
3.34285e-07
-3.89502e-07
3.89652e-07
-4.75001e-07
4.52024e-07
-5.72496e-07
5.21929e-07
-6.83123e-07
5.9976e-07
-8.07973e-07
6.85728e-07
-9.48041e-07
7.79796e-07
-1.10416e-06
8.81612e-07
-1.27691e-06
9.90439e-07
-1.46657e-06
1.10509e-06
-1.67298e-06
1.22387e-06
-1.89552e-06
1.34453e-06
-2.13299e-06
1.4643e-06
-2.38359e-06
1.57985e-06
-2.64491e-06
1.68742e-06
-2.91392e-06
1.7829e-06
-3.18706e-06
1.86201e-06
-3.46031e-06
1.92046e-06
-3.72936e-06
1.95416e-06
-3.9897e-06
1.95942e-06
-4.23685e-06
1.93311e-06
-4.46647e-06
1.87278e-06
-4.67451e-06
1.77679e-06
-4.85731e-06
1.64429e-06
-5.01164e-06
1.47522e-06
-5.13475e-06
1.27031e-06
-5.22434e-06
1.03099e-06
-5.2785e-06
7.5938e-07
-5.29568e-06
4.58296e-07
-5.27461e-06
1.31306e-07
-5.21424e-06
-2.17264e-07
-5.11374e-06
-5.82185e-07
-4.97253e-06
-9.57038e-07
-4.79032e-06
-1.33395e-06
-4.56727e-06
-1.70349e-06
-4.30418e-06
-2.05454e-06
-4.00285e-06
-2.37427e-06
-3.66632e-06
-2.64839e-06
-3.29934e-06
-2.86187e-06
-2.90859e-06
-2.99987e-06
-2.50294e-06
-3.04936e-06
-2.0933e-06
-3.00095e-06
-1.69228e-06
-2.85099e-06
-1.31329e-06
-2.60332e-06
-9.69372e-07
-2.2704e-06
-6.71798e-07
-1.87318e-06
-4.28657e-07
-1.43984e-06
-2.43808e-07
-1.0034e-06
-1.16316e-07
-5.99379e-07
-4.04702e-08
-2.64032e-07
-6.20682e-09
-3.44646e-08
5.06513e-08
2.59226e-09
-2.05382e-08
8.3815e-09
-5.03476e-08
1.58919e-08
-7.01016e-08
2.403e-08
-8.11356e-08
3.19614e-08
-8.48443e-08
3.90413e-08
-8.25951e-08
4.47659e-08
-7.5635e-08
4.87382e-08
-6.50391e-08
5.06386e-08
-5.16793e-08
5.02e-08
-3.62184e-08
4.71862e-08
-1.91181e-08
4.1372e-08
-6.54828e-10
3.2525e-08
1.90625e-08
2.03899e-08
4.00736e-08
4.67423e-09
6.25495e-08
-1.49652e-08
8.67777e-08
-3.89337e-08
1.13148e-07
-6.77092e-08
1.42144e-07
-1.01851e-07
1.74326e-07
-1.42007e-07
2.10328e-07
-1.88919e-07
2.50838e-07
-2.43422e-07
2.9659e-07
-3.06446e-07
3.48339e-07
-3.79005e-07
4.06844e-07
-4.62184e-07
4.72831e-07
-5.57122e-07
5.46962e-07
-6.64973e-07
6.29781e-07
-7.86875e-07
7.21662e-07
-9.23888e-07
8.22742e-07
-1.07694e-06
9.32846e-07
-1.24674e-06
1.05141e-06
-1.4337e-06
1.1774e-06
-1.63786e-06
1.30925e-06
-1.85877e-06
1.44479e-06
-2.09547e-06
1.58123e-06
-2.34637e-06
1.71519e-06
-2.60925e-06
1.84273e-06
-2.88128e-06
1.95945e-06
-3.15905e-06
2.06068e-06
-3.43868e-06
2.14165e-06
-3.71594e-06
2.19772e-06
-3.98638e-06
2.22461e-06
-4.24558e-06
2.21862e-06
-4.48922e-06
2.17675e-06
-4.71329e-06
2.09686e-06
-4.91419e-06
1.9777e-06
-5.0888e-06
1.81889e-06
-5.23447e-06
1.62089e-06
-5.34905e-06
1.38488e-06
-5.43078e-06
1.11272e-06
-5.47824e-06
8.0684e-07
-5.49025e-06
4.70303e-07
-5.4658e-06
1.06863e-07
-5.40397e-06
-2.79099e-07
-5.30387e-06
-6.82286e-07
-5.16468e-06
-1.09622e-06
-4.98572e-06
-1.51291e-06
-4.76658e-06
-1.92264e-06
-4.50735e-06
-2.31378e-06
-4.20893e-06
-2.67268e-06
-3.87346e-06
-2.98386e-06
-3.50473e-06
-3.2306e-06
-3.1086e-06
-3.39599e-06
-2.69335e-06
-3.46461e-06
-2.26968e-06
-3.42463e-06
-1.85043e-06
-3.27024e-06
-1.44978e-06
-3.00397e-06
-1.082e-06
-2.63817e-06
-7.59868e-07
-2.19532e-06
-4.93048e-07
-1.70666e-06
-2.86845e-07
-1.20961e-06
-1.4148e-07
-7.44744e-07
-5.20854e-08
-3.53426e-07
-9.27278e-09
-7.72773e-08
4.13785e-08
2.51935e-09
-2.30576e-08
8.07125e-09
-5.58995e-08
1.51555e-08
-7.71859e-08
2.26632e-08
-8.86432e-08
2.97571e-08
-9.19383e-08
3.57997e-08
-8.86378e-08
4.02977e-08
-8.0133e-08
4.28633e-08
-6.76047e-08
4.31818e-08
-5.19978e-08
4.09853e-08
-3.40218e-08
3.60295e-08
-1.41623e-08
2.80741e-08
7.30055e-09
1.68652e-08
3.02714e-08
2.11949e-09
5.48193e-08
-1.64896e-08
8.11586e-08
-3.93446e-08
1.09633e-07
-6.68955e-08
1.40699e-07
-9.96691e-08
1.74917e-07
-1.38278e-07
2.12935e-07
-1.83426e-07
2.55476e-07
-2.35912e-07
3.03324e-07
-2.9663e-07
3.57308e-07
-3.66565e-07
4.18273e-07
-4.46779e-07
4.87058e-07
-5.38399e-07
5.64452e-07
-6.42588e-07
6.5115e-07
-7.60504e-07
7.47697e-07
-8.9326e-07
8.54417e-07
-1.04186e-06
9.71338e-07
-1.20711e-06
1.0981e-06
-1.38959e-06
1.23389e-06
-1.58949e-06
1.3773e-06
-1.80658e-06
1.52634e-06
-2.04011e-06
1.67831e-06
-2.28873e-06
1.82985e-06
-2.55046e-06
1.97692e-06
-2.82269e-06
2.11497e-06
-3.10222e-06
2.23898e-06
-3.38533e-06
2.34378e-06
-3.6679e-06
2.42421e-06
-3.94558e-06
2.4754e-06
-4.21398e-06
2.49301e-06
-4.46882e-06
2.47346e-06
-4.70611e-06
2.41404e-06
-4.9223e-06
2.31304e-06
-5.11429e-06
2.16969e-06
-5.27954e-06
1.98415e-06
-5.41603e-06
1.75738e-06
-5.52215e-06
1.49101e-06
-5.59668e-06
1.18725e-06
-5.63862e-06
8.48776e-07
-5.64708e-06
4.78763e-07
-5.62126e-06
8.10414e-08
-5.56027e-06
-3.40088e-07
-5.46314e-06
-7.79411e-07
-5.3288e-06
-1.23057e-06
-5.15613e-06
-1.68557e-06
-4.94414e-06
-2.13463e-06
-4.69215e-06
-2.56577e-06
-4.40017e-06
-2.96466e-06
-4.06932e-06
-3.31471e-06
-3.70235e-06
-3.59758e-06
-3.30413e-06
-3.7942e-06
-2.88219e-06
-3.88656e-06
-2.44682e-06
-3.86e-06
-2.01099e-06
-3.70607e-06
-1.58959e-06
-3.42537e-06
-1.19814e-06
-3.02962e-06
-8.51059e-07
-2.5424e-06
-5.59827e-07
-1.99789e-06
-3.31421e-07
-1.43801e-06
-1.67427e-07
-9.08738e-07
-6.3955e-08
-4.56898e-07
-1.23472e-08
-1.28885e-07
2.90313e-08
2.40382e-09
-2.54613e-08
7.61127e-09
-6.11069e-08
1.41168e-08
-8.36915e-08
2.08104e-08
-9.53368e-08
2.68633e-08
-9.79911e-08
3.16528e-08
-9.34274e-08
3.47021e-08
-8.31822e-08
3.56376e-08
-6.85402e-08
3.41539e-08
-5.05141e-08
2.9985e-08
-2.98529e-08
2.28812e-08
-7.05853e-09
1.25892e-08
1.75926e-08
-1.16523e-09
4.40259e-08
-1.86922e-08
7.23463e-08
-4.03514e-08
1.02818e-07
-6.65634e-08
1.35845e-07
-9.78214e-08
1.71957e-07
-1.34699e-07
2.11795e-07
-1.77859e-07
2.56095e-07
-2.28058e-07
3.05674e-07
-2.86145e-07
3.61412e-07
-3.53066e-07
4.24229e-07
-4.2985e-07
4.95057e-07
-5.17599e-07
5.74806e-07
-6.17462e-07
6.64315e-07
-7.30607e-07
7.64295e-07
-8.58176e-07
8.75266e-07
-1.00123e-06
9.9747e-07
-1.16068e-06
1.13079e-06
-1.3372e-06
1.27463e-06
-1.53118e-06
1.42786e-06
-1.74258e-06
1.5887e-06
-1.97086e-06
1.75462e-06
-2.21493e-06
1.92239e-06
-2.47309e-06
2.088e-06
-2.74297e-06
2.24681e-06
-3.02161e-06
2.3936e-06
-3.30548e-06
2.52285e-06
-3.59063e-06
2.62893e-06
-3.87281e-06
2.7064e-06
-4.14769e-06
2.75028e-06
-4.41102e-06
2.75634e-06
-4.65882e-06
2.72125e-06
-4.88751e-06
2.64273e-06
-5.09403e-06
2.51956e-06
-5.27589e-06
2.35154e-06
-5.43113e-06
2.13938e-06
-5.55828e-06
1.88453e-06
-5.6563e-06
1.58903e-06
-5.7244e-06
1.25535e-06
-5.76195e-06
8.86328e-07
-5.7683e-06
4.85113e-07
-5.74278e-06
5.55264e-08
-5.68453e-06
-3.98341e-07
-5.59247e-06
-8.71473e-07
-5.46526e-06
-1.35777e-06
-5.30139e-06
-1.84944e-06
-5.09928e-06
-2.33674e-06
-4.85752e-06
-2.80753e-06
-4.57519e-06
-3.24699e-06
-4.25234e-06
-3.63756e-06
-3.89058e-06
-3.95934e-06
-3.49366e-06
-4.19112e-06
-3.06813e-06
-4.31209e-06
-2.62371e-06
-4.30442e-06
-2.17329e-06
-4.15649e-06
-1.73235e-06
-3.86631e-06
-1.31766e-06
-3.44432e-06
-9.45408e-07
-2.91465e-06
-6.291e-07
-2.3142e-06
-3.77649e-07
-1.68946e-06
-1.94244e-07
-1.09214e-06
-7.61386e-08
-5.75004e-07
-1.54493e-08
-1.89574e-07
1.3582e-08
2.24829e-09
-2.77096e-08
7.00859e-09
-6.58672e-08
1.27873e-08
-8.94702e-08
1.8488e-08
-1.01038e-07
2.33012e-08
-1.02804e-07
2.6628e-08
-9.67542e-08
2.80141e-08
-8.45684e-08
2.71057e-08
-6.76318e-08
2.36104e-08
-4.70188e-08
1.72675e-08
-2.351e-08
7.82427e-09
2.38467e-09
-4.98366e-09
3.04005e-08
-2.14492e-08
6.04914e-08
-4.19079e-08
9.2805e-08
-6.67507e-08
1.27661e-07
-9.64353e-08
1.65529e-07
-1.31495e-07
2.07017e-07
-1.72549e-07
2.52849e-07
-2.20305e-07
3.03851e-07
-2.75567e-07
3.60935e-07
-3.3923e-07
4.25075e-07
-4.12281e-07
4.9728e-07
-4.95783e-07
5.7856e-07
-5.90863e-07
6.69886e-07
-6.98677e-07
7.72129e-07
-8.2038e-07
8.85998e-07
-9.5707e-07
1.01196e-06
-1.10973e-06
1.15013e-06
-1.27916e-06
1.30021e-06
-1.46586e-06
1.46134e-06
-1.67001e-06
1.63201e-06
-1.89129e-06
1.80998e-06
-2.12887e-06
1.9922e-06
-2.38132e-06
2.17483e-06
-2.64655e-06
2.35324e-06
-2.92187e-06
2.52213e-06
-3.204e-06
2.67572e-06
-3.48916e-06
2.80801e-06
-3.77325e-06
2.91302e-06
-4.05202e-06
2.98517e-06
-4.32125e-06
3.01951e-06
-4.57695e-06
3.01204e-06
-4.8155e-06
2.95981e-06
-5.03383e-06
2.86106e-06
-5.22943e-06
2.71515e-06
-5.40036e-06
2.52247e-06
-5.54524e-06
2.28427e-06
-5.66315e-06
2.00244e-06
-5.75349e-06
1.67937e-06
-5.81588e-06
1.31774e-06
-5.85e-06
9.20452e-07
-5.85538e-06
4.9049e-07
-5.83146e-06
3.16064e-08
-5.77736e-06
-4.52433e-07
-5.69193e-06
-9.56911e-07
-5.57361e-06
-1.47609e-06
-5.42052e-06
-2.00253e-06
-5.23056e-06
-2.5267e-06
-5.0016e-06
-3.03649e-06
-4.73183e-06
-3.51676e-06
-4.42021e-06
-3.94918e-06
-4.06709e-06
-4.31246e-06
-3.67498e-06
-4.58323e-06
-3.24926e-06
-4.73781e-06
-2.79881e-06
-4.75486e-06
-2.33623e-06
-4.61908e-06
-1.87738e-06
-4.32516e-06
-1.44024e-06
-3.88146e-06
-1.04285e-06
-3.31203e-06
-7.00945e-07
-2.6561e-06
-4.25655e-07
-1.96475e-06
-2.22045e-07
-1.29575e-06
-8.87162e-08
-7.08332e-07
-1.86102e-08
-2.5968e-07
-5.02823e-09
2.05475e-09
-2.97643e-08
6.26878e-09
-7.00812e-08
1.11765e-08
-9.43779e-08
1.57096e-08
-1.05571e-07
1.90893e-08
-1.06184e-07
2.07496e-08
-9.84145e-08
2.02656e-08
-8.40845e-08
1.73086e-08
-6.46748e-08
1.16032e-08
-4.13134e-08
2.89733e-09
-1.48041e-08
-9.0622e-09
1.43442e-08
-2.45489e-08
4.58872e-08
-4.38724e-08
7.98149e-08
-6.73921e-08
1.16325e-07
-9.55288e-08
1.55797e-07
-1.28774e-07
1.98775e-07
-1.67701e-07
2.45944e-07
-2.12967e-07
2.98115e-07
-2.65324e-07
3.56208e-07
-3.25614e-07
4.21226e-07
-3.94773e-07
4.94234e-07
-4.73818e-07
5.76325e-07
-5.63837e-07
6.68579e-07
-6.65964e-07
7.72012e-07
-7.81345e-07
8.87511e-07
-9.11102e-07
1.01575e-06
-1.05627e-06
1.15712e-06
-1.21772e-06
1.31159e-06
-1.39612e-06
1.4786e-06
-1.59177e-06
1.657e-06
-1.80462e-06
1.84485e-06
-2.03406e-06
2.03942e-06
-2.27894e-06
2.23709e-06
-2.5375e-06
2.43339e-06
-2.80732e-06
2.62306e-06
-3.08538e-06
2.80019e-06
-3.36816e-06
2.9585e-06
-3.65173e-06
3.09158e-06
-3.93194e-06
3.19323e-06
-4.2046e-06
3.25783e-06
-4.46572e-06
3.28063e-06
-4.71165e-06
3.25796e-06
-4.93922e-06
3.18738e-06
-5.14587e-06
3.06771e-06
-5.32965e-06
2.89893e-06
-5.48917e-06
2.682e-06
-5.62359e-06
2.41868e-06
-5.73243e-06
2.11128e-06
-5.81549e-06
1.76243e-06
-5.87271e-06
1.37496e-06
-5.90408e-06
9.51823e-07
-5.90929e-06
4.95691e-07
-5.88784e-06
1.0164e-08
-5.83888e-06
-5.01399e-07
-5.76111e-06
-1.03468e-06
-5.65292e-06
-1.58428e-06
-5.51211e-06
-2.14334e-06
-5.33612e-06
-2.70269e-06
-5.12217e-06
-3.25044e-06