/*--------------------------------*- C++ -*----------------------------------*\
  =========                 |
  \\      /  F ield         | OpenFOAM: The Open Source CFD Toolbox
   \\    /   O peration     | Website:  https://openfoam.org
    \\  /    A nd           | Version:  12
     \\/     M anipulation  |
\*---------------------------------------------------------------------------*/
FoamFile
{
    format      ascii;
    class       volVectorField;
    location    "6";
    object      U;
}
// * * * * * * * * * * * * * * * * * * * * * * * * * * * * * * * * * * * * * //

dimensions      [0 1 -1 0 0 0 0];

internalField   nonuniform List<vector> 
5625
(
(-6.39223e-06 2.57594e-06 0)
(8.22476e-06 -2.60023e-06 0)
(6.24e-05 -6.09802e-06 0)
(0.000142682 -7.99181e-06 0)
(0.000237124 -8.83644e-06 0)
(0.000336894 -8.9702e-06 0)
(0.00043566 -8.65083e-06 0)
(0.000529116 -8.05264e-06 0)
(0.000614461 -7.29663e-06 0)
(0.000689993 -6.46571e-06 0)
(0.000754782 -5.61559e-06 0)
(0.000808419 -4.78055e-06 0)
(0.000850807 -3.97965e-06 0)
(0.000882003 -3.22048e-06 0)
(0.000902067 -2.49589e-06 0)
(0.000910985 -1.80273e-06 0)
(0.000908574 -1.12004e-06 0)
(0.000894335 -4.24139e-07 0)
(0.000867486 3.09741e-07 0)
(0.000826847 1.11281e-06 0)
(0.000770794 2.01957e-06 0)
(0.000697204 3.0712e-06 0)
(0.000603413 4.3114e-06 0)
(0.000486161 5.78901e-06 0)
(0.000341558 7.55708e-06 0)
(0.000165039 9.6686e-06 0)
(-4.86651e-05 1.2184e-05 0)
(-0.000305541 1.51652e-05 0)
(-0.000612313 1.86866e-05 0)
(-0.000976411 2.28175e-05 0)
(-0.0014059 2.76253e-05 0)
(-0.00190944 3.31788e-05 0)
(-0.00249612 3.9541e-05 0)
(-0.00317529 4.67644e-05 0)
(-0.00395628 5.48858e-05 0)
(-0.00484808 6.39195e-05 0)
(-0.00585892 7.38491e-05 0)
(-0.00699579 8.46186e-05 0)
(-0.0082638 9.61231e-05 0)
(-0.0096656 0.0001082 0)
(-0.0112006 0.000120619 0)
(-0.0128644 0.000133075 0)
(-0.0146478 0.000145185 0)
(-0.0165364 0.00015648 0)
(-0.0185098 0.000166414 0)
(-0.020541 0.000174362 0)
(-0.0225965 0.000179633 0)
(-0.0246358 0.000181493 0)
(-0.0266115 0.000179177 0)
(-0.0284704 0.000171947 0)
(-0.0301533 0.000159187 0)
(-0.0315933 0.000139339 0)
(-0.0327303 0.000113659 0)
(-0.0334914 8.15573e-05 0)
(-0.0338299 4.13643e-05 0)
(-0.0336846 -3.26284e-06 0)
(-0.0330073 -5.2472e-05 0)
(-0.031782 -0.000104845 0)
(-0.0300068 -0.000157267 0)
(-0.0277094 -0.000206687 0)
(-0.0249485 -0.000249622 0)
(-0.0218153 -0.000282559 0)
(-0.0184308 -0.000302399 0)
(-0.0149396 -0.00030695 0)
(-0.0114996 -0.000295369 0)
(-0.00826901 -0.000268447 0)
(-0.00539119 -0.000228607 0)
(-0.00298111 -0.000179593 0)
(-0.00111475 -0.000125873 0)
(0.000176386 -7.20741e-05 0)
(0.000905042 -2.21014e-05 0)
(0.00112617 2.03335e-05 0)
(0.000936285 5.20263e-05 0)
(0.000505486 6.34034e-05 0)
(9.11101e-05 4.20726e-05 0)
(-4.46914e-06 -1.20429e-06 0)
(5.55007e-05 -3.72816e-05 0)
(0.000205452 -6.90675e-05 0)
(0.000418519 -8.88628e-05 0)
(0.000667367 -9.85979e-05 0)
(0.00093035 -0.000100758 0)
(0.001191 -9.75592e-05 0)
(0.00143757 -9.07369e-05 0)
(0.00166208 -8.15938e-05 0)
(0.00185937 -7.10751e-05 0)
(0.00202635 -5.98388e-05 0)
(0.00216133 -4.83079e-05 0)
(0.00226347 -3.67199e-05 0)
(0.00233235 -2.51608e-05 0)
(0.00236756 -1.35806e-05 0)
(0.00236847 -1.86719e-06 0)
(0.00233395 1.0227e-05 0)
(0.00226195 2.30232e-05 0)
(0.00214967 3.68611e-05 0)
(0.00199309 5.21772e-05 0)
(0.00178694 6.94544e-05 0)
(0.00152452 8.92322e-05 0)
(0.00119756 0.000112096 0)
(0.000796092 0.000138694 0)
(0.000308413 0.000169642 0)
(-0.000279064 0.000205663 0)
(-0.000981937 0.000247514 0)
(-0.00181778 0.000295934 0)
(-0.0028059 0.000351622 0)
(-0.00396743 0.000415264 0)
(-0.00532509 0.000487479 0)
(-0.00690282 0.000568766 0)
(-0.00872529 0.000659451 0)
(-0.0108172 0.000759625 0)
(-0.0132026 0.000869067 0)
(-0.0159036 0.000987165 0)
(-0.0189392 0.00111283 0)
(-0.0223238 0.00124443 0)
(-0.0260656 0.00137968 0)
(-0.0301648 0.00151563 0)
(-0.0346115 0.00164858 0)
(-0.0393843 0.0017741 0)
(-0.0444483 0.00188707 0)
(-0.0497536 0.00198171 0)
(-0.0552343 0.00205171 0)
(-0.0608076 0.00209036 0)
(-0.0663738 0.00209078 0)
(-0.0718166 0.00204615 0)
(-0.0770044 0.00195002 0)
(-0.0817926 0.00179664 0)
(-0.086026 0.00158114 0)
(-0.0895368 0.00129891 0)
(-0.0921849 0.000948108 0)
(-0.0937549 0.000539737 0)
(-0.094187 8.36457e-05 0)
(-0.0933253 -0.000433896 0)
(-0.0910772 -0.000978883 0)
(-0.0874164 -0.00153408 0)
(-0.0823624 -0.00207434 0)
(-0.0760034 -0.00257029 0)
(-0.068501 -0.00299036 0)
(-0.060091 -0.00330371 0)
(-0.0510769 -0.00348373 0)
(-0.0418161 -0.00351192 0)
(-0.0326967 -0.00338144 0)
(-0.0241072 -0.00309937 0)
(-0.0164038 -0.00268707 0)
(-0.00987745 -0.00217813 0)
(-0.00472773 -0.00161425 0)
(-0.00104662 -0.00104032 0)
(0.00118574 -0.000500462 0)
(0.00210096 -3.68211e-05 0)
(0.00194231 0.000301257 0)
(0.00111981 0.000438561 0)
(0.000201296 0.000275407 0)
(2.54269e-06 -1.9884e-05 0)
(0.000115473 -0.00010763 0)
(0.000351389 -0.000184167 0)
(0.000675097 -0.000233597 0)
(0.00104944 -0.000258582 0)
(0.0014439 -0.000264311 0)
(0.00183425 -0.000255909 0)
(0.00220262 -0.000237639 0)
(0.00253644 -0.000212812 0)
(0.00282727 -0.000183891 0)
(0.00306972 -0.000152613 0)
(0.00326051 -0.000120109 0)
(0.00339763 -8.7014e-05 0)
(0.00347972 -5.35532e-05 0)
(0.00350539 -1.95922e-05 0)
(0.00347294 1.518e-05 0)
(0.00337965 5.15291e-05 0)
(0.00322161 9.02585e-05 0)
(0.00299347 0.000132378 0)
(0.00268799 0.000179109 0)
(0.00229588 0.000231811 0)
(0.00180556 0.000292018 0)
(0.00120298 0.000361261 0)
(0.000471393 0.000441299 0)
(-0.00040887 0.00053405 0)
(-0.0014605 0.000641445 0)
(-0.00270894 0.000765392 0)
(-0.00418262 0.000907802 0)
(-0.00591281 0.00107053 0)
(-0.0079333 0.00125528 0)
(-0.0102799 0.00146347 0)
(-0.0129899 0.00169613 0)
(-0.0161008 0.0019537 0)
(-0.0196496 0.0022359 0)
(-0.0236711 0.00254146 0)
(-0.0281956 0.00286799 0)
(-0.0332476 0.00321168 0)
(-0.0388426 0.00356718 0)
(-0.044985 0.0039274 0)
(-0.0516649 0.0042834 0)
(-0.0588559 0.00462439 0)
(-0.0665119 0.00493779 0)
(-0.0745657 0.00520935 0)
(-0.0829264 0.00542346 0)
(-0.0914792 0.00556355 0)
(-0.100085 0.00561252 0)
(-0.10858 0.00555336 0)
(-0.116779 0.00536986 0)
(-0.124479 0.0050474 0)
(-0.131461 0.00457382 0)
(-0.137494 0.0039402 0)
(-0.142342 0.0031407 0)
(-0.145811 0.00216497 0)
(-0.147591 0.00107487 0)
(-0.147646 -0.000169541 0)
(-0.145725 -0.00151675 0)
(-0.141766 -0.00292819 0)
(-0.135741 -0.00434851 0)
(-0.127705 -0.00571562 0)
(-0.117804 -0.00695836 0)
(-0.106285 -0.00800145 0)
(-0.0934916 -0.00877203 0)
(-0.0798571 -0.00920759 0)
(-0.0658872 -0.0092647 0)
(-0.0521289 -0.00892699 0)
(-0.0391327 -0.00821066 0)
(-0.0274078 -0.00716578 0)
(-0.0173783 -0.00587238 0)
(-0.00934488 -0.00443189 0)
(-0.00345835 -0.00295624 0)
(0.000292839 -0.00155942 0)
(0.00208631 -0.000353036 0)
(0.00226615 0.000536629 0)
(0.00140365 0.000940608 0)
(0.000257439 0.000633976 0)
(1.02211e-05 -5.5585e-05 0)
(0.00017581 -0.000213362 0)
(0.000488192 -0.000347016 0)
(0.000904277 -0.00043456 0)
(0.00137979 -0.000479209 0)
(0.00187814 -0.000489127 0)
(0.00236935 -0.000472925 0)
(0.00283072 -0.000438057 0)
(0.0032458 -0.000390473 0)
(0.00360318 -0.000334664 0)
(0.0038952 -0.000273835 0)
(0.00411682 -0.000210083 0)
(0.00426461 -0.000144586 0)
(0.00433585 -7.77477e-05 0)
(0.00432783 -9.31859e-06 0)
(0.00423726 6.1434e-05 0)
(0.00405947 0.000135885 0)
(0.00378828 0.000215639 0)
(0.00341539 0.00030271 0)
(0.00292998 0.000399494 0)
(0.00231849 0.000508563 0)
(0.00156427 0.0006328 0)
(0.000647142 0.0007755 0)
(-0.000456669 0.000940009 0)
(-0.00177458 0.00112984 0)
(-0.00333785 0.0013486 0)
(-0.00518168 0.00159994 0)
(-0.00734495 0.00188745 0)
(-0.00986998 0.00221446 0)
(-0.012802 0.00258391 0)
(-0.0161883 0.00299811 0)
(-0.0200774 0.00345846 0)
(-0.0245172 0.00396513 0)
(-0.0295536 0.00451668 0)
(-0.0352279 0.00510974 0)
(-0.0415744 0.00573851 0)
(-0.0486173 0.0063945 0)
(-0.0563672 0.0070661 0)
(-0.064818 0.00773844 0)
(-0.0739429 0.00839324 0)
(-0.0836919 0.00900888 0)
(-0.0939882 0.00956066 0)
(-0.104726 0.0100213 0)
(-0.115772 0.0103614 0)
(-0.126958 0.0105507 0)
(-0.138092 0.0105586 0)
(-0.148952 0.0103558 0)
(-0.159294 0.00991511 0)
(-0.168855 0.0092134 0)
(-0.177361 0.0082328 0)
(-0.184532 0.00696234 0)
(-0.190087 0.00539892 0)
(-0.193787 0.00354209 0)
(-0.195357 0.00144863 0)
(-0.194646 -0.000862436 0)
(-0.19147 -0.00335054 0)
(-0.185765 -0.005928 0)
(-0.177525 -0.00849961 0)
(-0.166844 -0.010956 0)
(-0.153916 -0.0131741 0)
(-0.139051 -0.0150251 0)
(-0.122665 -0.0163848 0)
(-0.105278 -0.0171468 0)
(-0.0874914 -0.0172364 0)
(-0.0699584 -0.0166243 0)
(-0.0533392 -0.0153363 0)
(-0.0382531 -0.0134562 0)
(-0.0252262 -0.0111208 0)
(-0.0146442 -0.00850716 0)
(-0.00671569 -0.00581472 0)
(-0.00145107 -0.00325052 0)
(0.00134683 -0.00102308 0)
(0.00208433 0.000640437 0)
(0.00143399 0.00145718 0)
(0.000274878 0.00105114 0)
(1.70917e-05 -0.000107487 0)
(0.000230516 -0.000350406 0)
(0.000609039 -0.000549108 0)
(0.00110106 -0.000679426 0)
(0.00165636 -0.00074566 0)
(0.00223402 -0.000759118 0)
(0.00279991 -0.000732156 0)
(0.00332761 -0.000675776 0)
(0.00379756 -0.00059893 0)
(0.00419574 -0.000508465 0)
(0.00451237 -0.000409307 0)
(0.00474059 -0.000304685 0)
(0.00487533 -0.000196406 0)
(0.00491229 -8.50545e-05 0)
(0.00484708 2.98026e-05 0)
(0.00467444 0.000149473 0)
(0.0043875 0.000276101 0)
(0.00397737 0.000412401 0)
(0.0034325 0.000561621 0)
(0.00273826 0.000727584 0)
(0.00187646 0.000914706 0)
(0.000824984 0.00112772 0)
(-0.000442331 0.00137173 0)
(-0.00195608 0.00165214 0)
(-0.0037515 0.00197463 0)
(-0.00586842 0.00234497 0)
(-0.00835123 0.00276887 0)
(-0.0112486 0.00325184 0)
(-0.0146129 0.0037989 0)
(-0.0184995 0.00441425 0)
(-0.0229657 0.00510091 0)
(-0.0280687 0.00586026 0)
(-0.0338641 0.00669143 0)
(-0.0404034 0.00759081 0)
(-0.0477304 0.00855138 0)
(-0.0558783 0.00956211 0)
(-0.0648658 0.0106074 0)
(-0.0746926 0.0116668 0)
(-0.0853358 0.0127145 0)
(-0.0967456 0.0137195 0)
(-0.108842 0.0146461 0)
(-0.121513 0.015454 0)
(-0.134612 0.0160999 0)
(-0.147957 0.0165382 0)
(-0.161334 0.0167226 0)
(-0.1745 0.0166084 0)
(-0.187182 0.0161534 0)
(-0.199091 0.0153208 0)
(-0.209922 0.0140806 0)
(-0.219364 0.0124122 0)
(-0.227109 0.0103061 0)
(-0.232863 0.00776615 0)
(-0.236367 0.00480769 0)
(-0.237368 0.00150033 0)
(-0.235688 -0.00211108 0)
(-0.231185 -0.0059525 0)
(-0.22381 -0.00989783 0)
(-0.213586 -0.0138072 0)
(-0.200635 -0.0175196 0)
(-0.18519 -0.020856 0)
(-0.167595 -0.0236305 0)
(-0.148313 -0.0256634 0)
(-0.12791 -0.0268001 0)
(-0.107047 -0.0269306 0)
(-0.08644 -0.0260086 0)
(-0.066825 -0.024067 0)
(-0.0489016 -0.0212235 0)
(-0.0332774 -0.0176755 0)
(-0.0204127 -0.0136837 0)
(-0.0105749 -0.00954797 0)
(-0.00380799 -0.00558507 0)
(8.35024e-05 -0.00211909 0)
(0.00153683 0.000504523 0)
(0.00128221 0.00187512 0)
(0.000268419 0.00145548 0)
(2.27628e-05 -0.00017339 0)
(0.000276941 -0.000514204 0)
(0.000710445 -0.000783288 0)
(0.00126279 -0.00095847 0)
(0.00187834 -0.00104625 0)
(0.00251292 -0.00106138 0)
(0.00312939 -0.00102014 0)
(0.00369861 -0.000937235 0)
(0.00419853 -0.000824828 0)
(0.00461298 -0.000692303 0)
(0.00493024 -0.000546449 0)
(0.00514164 -0.000391701 0)
(0.00524036 -0.000230525 0)
(0.00522037 -6.36755e-05 0)
(0.0050753 0.000109596 0)
(0.00479767 0.000291278 0)
(0.00437811 0.000484487 0)
(0.00380475 0.000693208 0)
(0.00306246 0.000922397 0)
(0.00213242 0.0011777 0)
(0.000991758 0.00146542 0)
(-0.000386998 0.00179251 0)
(-0.00203624 0.00216643 0)
(-0.00399347 0.00259507 0)
(-0.0063015 0.00308655 0)
(-0.00900837 0.00364912 0)
(-0.0121671 0.00429082 0)
(-0.0158355 0.00501924 0)
(-0.0200748 0.00584107 0)
(-0.0249492 0.00676164 0)
(-0.0305237 0.00778426 0)
(-0.0368624 0.00890956 0)
(-0.0440254 0.0101347 0)
(-0.0520659 0.0114523 0)
(-0.0610262 0.0128501 0)
(-0.0709337 0.0143095 0)
(-0.0817961 0.0158054 0)
(-0.0935965 0.0173053 0)
(-0.10629 0.0187696 0)
(-0.119797 0.0201516 0)
(-0.134005 0.0213982 0)
(-0.148762 0.0224514 0)
(-0.163879 0.0232495 0)
(-0.179129 0.0237294 0)
(-0.194255 0.0238291 0)
(-0.20897 0.0234898 0)
(-0.222964 0.0226589 0)
(-0.235915 0.0212922 0)
(-0.247494 0.0193569 0)
(-0.257374 0.0168338 0)
(-0.265243 0.0137197 0)
(-0.270809 0.0100302 0)
(-0.27382 0.00580083 0)
(-0.274048 0.00111447 0)
(-0.271324 -0.00395283 0)
(-0.26554 -0.00928885 0)
(-0.256668 -0.0147309 0)
(-0.244751 -0.0200937 0)
(-0.229935 -0.0251645 0)
(-0.212467 -0.0297087 0)
(-0.192708 -0.0334824 0)
(-0.171134 -0.0362493 0)
(-0.148335 -0.0378037 0)
(-0.124995 -0.0379958 0)
(-0.10187 -0.0367578 0)
(-0.0797474 -0.0341247 0)
(-0.0593874 -0.0302443 0)
(-0.0414677 -0.0253743 0)
(-0.0265184 -0.0198622 0)
(-0.0148684 -0.0141166 0)
(-0.00660535 -0.00857601 0)
(-0.00155308 -0.0036932 0)
(0.000732208 5.38342e-05 0)
(0.00100613 0.00211841 0)
(0.00024755 0.0018021 0)
(2.71978e-05 -0.000250707 0)
(0.000314129 -0.000699896 0)
(0.000790921 -0.00104291 0)
(0.00138839 -0.00126323 0)
(0.00204586 -0.00137098 0)
(0.00271658 -0.00138484 0)
(0.00336122 -0.00132515 0)
(0.00394868 -0.00121046 0)
(0.00445507 -0.0010562 0)
(0.00486244 -0.000874367 0)
(0.00515733 -0.000673664 0)
(0.00532937 -0.000459752 0)
(0.00537005 -0.000235775 0)
(0.00527133 -2.51109e-06 0)
(0.00502472 0.00024117 0)
(0.00462035 0.000498084 0)
(0.004046 0.000772597 0)
(0.00328652 0.00107027 0)
(0.00232313 0.00139783 0)
(0.00113276 0.00176301 0)
(-0.000312391 0.00217452 0)
(-0.00204533 0.00264182 0)
(-0.0041046 0.00317507 0)
(-0.00653448 0.0037849 0)
(-0.00938511 0.00448223 0)
(-0.0127123 0.00527796 0)
(-0.0165771 0.00618264 0)
(-0.0210454 0.00720592 0)
(-0.0261862 0.00835605 0)
(-0.0320708 0.00963904 0)
(-0.0387701 0.0110579 0)
(-0.046352 0.0126115 0)
(-0.0548781 0.0142937 0)
(-0.0643998 0.0160918 0)
(-0.0749536 0.017986 0)
(-0.086556 0.0199477 0)
(-0.0991987 0.0219396 0)
(-0.112843 0.0239143 0)
(-0.127417 0.0258155 0)
(-0.142809 0.027578 0)
(-0.158867 0.0291293 0)
(-0.175402 0.0303915 0)
(-0.192182 0.0312842 0)
(-0.208941 0.0317271 0)
(-0.225384 0.0316434 0)
(-0.241191 0.0309632 0)
(-0.256029 0.0296265 0)
(-0.269559 0.0275862 0)
(-0.281446 0.0248111 0)
(-0.291368 0.0212882 0)
(-0.299023 0.0170254 0)
(-0.304139 0.0120538 0)
(-0.306487 0.00643047 0)
(-0.305869 0.000254708 0)
(-0.302139 -0.00636504 0)
(-0.295217 -0.0132804 0)
(-0.285092 -0.0202937 0)
(-0.27182 -0.0271765 0)
(-0.255552 -0.0336673 0)
(-0.236532 -0.039478 0)
(-0.215117 -0.044308 0)
(-0.191774 -0.0478636 0)
(-0.16709 -0.049885 0)
(-0.141756 -0.050178 0)
(-0.116548 -0.0486464 0)
(-0.0922862 -0.0453199 0)
(-0.0697845 -0.0403709 0)
(-0.0497846 -0.0341134 0)
(-0.0328863 -0.0269829 0)
(-0.0194848 -0.0195012 0)
(-0.00972087 -0.0122379 0)
(-0.00345227 -0.0057852 0)
(-0.000247314 -0.00076383 0)
(0.000649725 0.00213674 0)
(0.000219059 0.00206442 0)
(3.04952e-05 -0.000336831 0)
(0.000342004 -0.000902411 0)
(0.000850194 -0.00132131 0)
(0.00147788 -0.00158559 0)
(0.0021598 -0.00171045 0)
(0.00284707 -0.00171913 0)
(0.00349881 -0.00163623 0)
(0.00408257 -0.00148417 0)
(0.00457315 -0.0012817 0)
(0.00495122 -0.00104341 0)
(0.00520182 -0.000779871 0)
(0.00531304 -0.000498024 0)
(0.00527452 -0.000201459 0)
(0.00507625 0.000109032 0)
(0.00470749 0.000435126 0)
(0.0041557 0.000780679 0)
(0.00340578 0.00115142 0)
(0.00243916 0.00155469 0)
(0.00123315 0.00199933 0)
(-0.000239739 0.00249549 0)
(-0.00201227 0.00305448 0)
(-0.00412298 0.00368862 0)
(-0.00661648 0.00441102 0)
(-0.00954363 0.00523533 0)
(-0.0129615 0.00617546 0)
(-0.0169331 0.00724514 0)
(-0.0215269 0.00845737 0)
(-0.0268156 0.00982378 0)
(-0.0328747 0.0113538 0)
(-0.0397807 0.0130535 0)
(-0.047608 0.0149248 0)
(-0.0564257 0.0169635 0)
(-0.0662936 0.0191585 0)
(-0.0772574 0.0214899 0)
(-0.0893432 0.023928 0)
(-0.102552 0.0264317 0)
(-0.116856 0.0289484 0)
(-0.132189 0.0314136 0)
(-0.148448 0.0337513 0)
(-0.165487 0.0358757 0)
(-0.183117 0.0376936 0)
(-0.201108 0.0391069 0)
(-0.219192 0.0400169 0)
(-0.23707 0.0403279 0)
(-0.254418 0.0399513 0)
(-0.270898 0.0388097 0)
(-0.286167 0.0368406 0)
(-0.299886 0.0339987 0)
(-0.31173 0.0302595 0)
(-0.321397 0.0256207 0)
(-0.328611 0.0201047 0)
(-0.33313 0.0137605 0)
(-0.334756 0.00666681 0)
(-0.333324 -0.00105893 0)
(-0.328715 -0.00927866 0)
(-0.320869 -0.0178121 0)
(-0.309781 -0.02643 0)
(-0.295512 -0.0348653 0)
(-0.278198 -0.0428118 0)
(-0.258066 -0.0499318 0)
(-0.235447 -0.0558692 0)
(-0.210783 -0.0602723 0)
(-0.184641 -0.0628237 0)
(-0.1577 -0.0632785 0)
(-0.130743 -0.0615037 0)
(-0.104617 -0.0575148 0)
(-0.0801831 -0.0515002 0)
(-0.0582467 -0.0438246 0)
(-0.0394813 -0.03501 0)
(-0.024355 -0.0256947 0)
(-0.0130718 -0.0165867 0)
(-0.00553595 -0.00842699 0)
(-0.00134237 -0.00198661 0)
(0.00024471 0.00189601 0)
(0.000187603 0.00222651 0)
(3.28005e-05 -0.000429261 0)
(0.000360933 -0.00111666 0)
(0.000888699 -0.00161182 0)
(0.00153199 -0.0019176 0)
(0.00222152 -0.00205565 0)
(0.00290665 -0.00205438 0)
(0.00354549 -0.00194293 0)
(0.00410476 -0.00174764 0)
(0.00455838 -0.00149051 0)
(0.00488599 -0.00118868 0)
(0.00507144 -0.000854538 0)
(0.00510129 -0.000496073 0)
(0.00496346 -0.000117341 0)
(0.00464591 0.000281045 0)
(0.00413555 0.000701479 0)
(0.00341715 0.00114899 0)
(0.00247249 0.00163092 0)
(0.00127946 0.00215663 0)
(-0.000188624 0.0027373 0)
(-0.00196372 0.00338575 0)
(-0.00408359 0.00411616 0)
(-0.00659221 0.00494395 0)
(-0.0095401 0.00588541 0)
(-0.0129844 0.00695743 0)
(-0.0169886 0.008177 0)
(-0.0216224 0.0095607 0)
(-0.0269604 0.0111239 0)
(-0.0330813 0.0128798 0)
(-0.0400652 0.0148386 0)
(-0.0479919 0.0170056 0)
(-0.0569368 0.0193803 0)
(-0.0669674 0.0219543 0)
(-0.0781381 0.0247094 0)
(-0.0904851 0.0276164 0)
(-0.10402 0.0306331 0)
(-0.118725 0.0337036 0)
(-0.134546 0.0367572 0)
(-0.151389 0.0397095 0)
(-0.169117 0.0424633 0)
(-0.187547 0.0449108 0)
(-0.206455 0.0469376 0)
(-0.225575 0.0484265 0)
(-0.244609 0.0492622 0)
(-0.263233 0.0493368 0)
(-0.281107 0.0485543 0)
(-0.297888 0.0468346 0)
(-0.313238 0.0441176 0)
(-0.326832 0.0403654 0)
(-0.33837 0.0355644 0)
(-0.347581 0.0297266 0)
(-0.354224 0.022891 0)
(-0.358096 0.0151253 0)
(-0.359032 0.00652825 0)
(-0.356897 -0.00276525 0)
(-0.351596 -0.0125924 0)
(-0.343079 -0.0227469 0)
(-0.331341 -0.0329727 0)
(-0.316429 -0.0429699 0)
(-0.298455 -0.0523932 0)
(-0.277613 -0.0608585 0)
(-0.254192 -0.0679564 0)
(-0.228595 -0.0732757 0)
(-0.201351 -0.0764376 0)
(-0.173118 -0.0771385 0)
(-0.144675 -0.0751987 0)
(-0.116891 -0.0706083 0)
(-0.0906715 -0.0635612 0)
(-0.0668882 -0.0544657 0)
(-0.0462947 -0.0439266 0)
(-0.0294413 -0.0327012 0)
(-0.0166063 -0.0216416 0)
(-0.00775227 -0.0116463 0)
(-0.00251275 -0.003644 0)
(-0.000187235 0.00137385 0)
(0.000156023 0.0022793 0)
(3.42629e-05 -0.000525672 0)
(0.000371479 -0.00133768 0)
(0.000907247 -0.00190789 0)
(0.00155183 -0.00225151 0)
(0.00223263 -0.00239785 0)
(0.0028977 -0.00238115 0)
(0.00350454 -0.0022353 0)
(0.00401949 -0.00199063 0)
(0.00441602 -0.00167231 0)
(0.00467307 -0.00129993 0)
(0.00477347 -0.000887511 0)
(0.00470249 -0.000444006 0)
(0.00444633 2.62618e-05 0)
(0.00399095 0.000523018 0)
(0.00332086 0.00104954 0)
(0.00241805 0.00161225 0)
(0.0012611 0.00222029 0)
(-0.00017568 0.00288527 0)
(-0.00192305 0.00362095 0)
(-0.00401744 0.004443 0)
(-0.00650152 0.00536876 0)
(-0.00942458 0.00641691 0)
(-0.0128428 0.00760713 0)
(-0.0168191 0.00895962 0)
(-0.021423 0.0104945 0)
(-0.0267299 0.0122311 0)
(-0.0328197 0.0141868 0)
(-0.0397752 0.0163762 0)
(-0.0476799 0.0188091 0)
(-0.0566144 0.0214893 0)
(-0.0666526 0.0244125 0)
(-0.0778574 0.0275641 0)
(-0.0902742 0.0309172 0)
(-0.103926 0.0344306 0)
(-0.118806 0.0380475 0)
(-0.134874 0.041694 0)
(-0.152048 0.0452795 0)
(-0.170201 0.0486977 0)
(-0.189164 0.0518288 0)
(-0.208717 0.0545429 0)
(-0.228604 0.0567051 0)
(-0.248531 0.0581811 0)
(-0.268175 0.0588425 0)
(-0.287199 0.0585736 0)
(-0.305262 0.0572756 0)
(-0.322026 0.0548717 0)
(-0.337171 0.0513093 0)
(-0.350402 0.0465623 0)
(-0.361452 0.0406317 0)
(-0.370089 0.0335461 0)
(-0.376114 0.0253617 0)
(-0.379363 0.0161636 0)
(-0.379702 0.00606775 0)
(-0.377023 -0.00477628 0)
(-0.371249 -0.0161871 0)
(-0.36233 -0.027939 0)
(-0.350251 -0.0397552 0)
(-0.335035 -0.0513092 0)
(-0.316759 -0.0622222 0)
(-0.29557 -0.0720679 0)
(-0.271704 -0.080385 0)
(-0.245512 -0.0867019 0)
(-0.217474 -0.090573 0)
(-0.188216 -0.0916277 0)
(-0.158505 -0.0896281 0)
(-0.129224 -0.0845258 0)
(-0.101324 -0.0765074 0)
(-0.0757459 -0.0660147 0)
(-0.0533327 -0.0537313 0)
(-0.0347277 -0.0405341 0)
(-0.0202957 -0.0274254 0)
(-0.01007 -0.0154693 0)
(-0.0037335 -0.00575982 0)
(-0.000632548 0.000555052 0)
(0.000125712 0.00221888 0)
(3.50151e-05 -0.000623924 0)
(0.000374254 -0.00156071 0)
(0.000906809 -0.0022031 0)
(0.00153873 -0.00257977 0)
(0.00219492 -0.00272863 0)
(0.00282261 -0.00269036 0)
(0.0033791 -0.00250384 0)
(0.00383078 -0.00220339 0)
(0.00415102 -0.00181729 0)
(0.00431837 -0.0013674 0)
(0.00431489 -0.000869225 0)
(0.00412465 -0.000332472 0)
(0.00373229 0.000238455 0)
(0.00312176 0.000843812 0)
(0.00227515 0.00148796 0)
(0.00117167 0.0021789 0)
(-0.000213347 0.00292781 0)
(-0.00190922 0.00374873 0)
(-0.00395073 0.00465821 0)
(-0.00637875 0.00567501 0)
(-0.00924072 0.00681977 0)
(-0.012591 0.00811462 0)
(-0.0164911 0.00958271 0)
(-0.0210093 0.0112476 0)
(-0.0262202 0.0131324 0)
(-0.0322041 0.0152591 0)
(-0.0390449 0.0176466 0)
(-0.0468283 0.02031 0)
(-0.0556388 0.0232582 0)
(-0.0655557 0.026492 0)
(-0.0766489 0.0300018 0)
(-0.0889732 0.0337649 0)
(-0.102562 0.0377435 0)
(-0.117422 0.0418821 0)
(-0.133525 0.0461067 0)
(-0.150803 0.0503233 0)
(-0.169146 0.0544195 0)
(-0.188395 0.0582658 0)
(-0.208346 0.0617192 0)
(-0.228749 0.0646288 0)
(-0.249319 0.0668413 0)
(-0.26974 0.0682084 0)
(-0.289678 0.0685931 0)
(-0.308794 0.0678768 0)
(-0.326753 0.065964 0)
(-0.343238 0.0627858 0)
(-0.357959 0.0583024 0)
(-0.370657 0.0525031 0)
(-0.381107 0.045406 0)
(-0.38912 0.0370566 0)
(-0.394541 0.0275274 0)
(-0.397239 0.0169185 0)
(-0.397111 0.00535906 0)
(-0.39407 -0.00699107 0)
(-0.388047 -0.0199385 0)
(-0.378987 -0.0332453 0)
(-0.366856 -0.04662 0)
(-0.351647 -0.0597164 0)
(-0.333391 -0.0721279 0)
(-0.312181 -0.08339 0)
(-0.288191 -0.0929916 0)
(-0.261707 -0.100399 0)
(-0.233153 -0.105096 0)
(-0.203111 -0.106634 0)
(-0.172325 -0.104706 0)
(-0.141687 -0.0992085 0)
(-0.11219 -0.0903065 0)
(-0.0848508 -0.0784632 0)
(-0.0606081 -0.0644338 0)
(-0.040212 -0.0492148 0)
(-0.0241279 -0.0339645 0)
(-0.0124733 -0.0199219 0)
(-0.00499158 -0.00835465 0)
(-0.00108385 -0.000571436 0)
(9.74545e-05 0.0020439 0)
(3.51675e-05 -0.000722066 0)
(0.000369842 -0.00178121 0)
(0.000888375 -0.00249127 0)
(0.00149403 -0.00289503 0)
(0.00211017 -0.00303982 0)
(0.00268367 -0.00297325 0)
(0.00317215 -0.00273939 0)
(0.0035424 -0.00237659 0)
(0.00376802 -0.0019161 0)
(0.00382748 -0.00138184 0)
(0.00370228 -0.000790628 0)
(0.00337548 -0.000152677 0)
(0.00283021 0.000527738 0)
(0.00204849 0.00125162 0)
(0.00101002 0.00202462 0)
(-0.000308801 0.00285653 0)
(-0.00193583 0.00376077 0)
(-0.00390401 0.004754 0)
(-0.00625208 0.00585575 0)
(-0.00902521 0.00708803 0)
(-0.0122754 0.00847493 0)
(-0.0160619 0.0100421 0)
(-0.0204508 0.0118163 0)
(-0.0255153 0.0138242 0)
(-0.0313345 0.016092 0)
(-0.0379921 0.0186435 0)
(-0.0455749 0.021499 0)
(-0.0541696 0.0246732 0)
(-0.0638599 0.0281728 0)
(-0.0747215 0.0319944 0)
(-0.0868172 0.0361212 0)
(-0.100191 0.0405205 0)
(-0.114862 0.0451412 0)
(-0.130815 0.0499114 0)
(-0.148 0.0547374 0)
(-0.166321 0.0595036 0)
(-0.185635 0.064074 0)
(-0.205754 0.0682956 0)
(-0.226442 0.0720034 0)
(-0.247423 0.0750267 0)
(-0.26839 0.0771973 0)
(-0.289014 0.078357 0)
(-0.30896 0.0783656 0)
(-0.327895 0.077107 0)
(-0.345507 0.0744941 0)
(-0.361507 0.0704715 0)
(-0.375643 0.0650157 0)
(-0.387698 0.0581339 0)
(-0.397492 0.049862 0)
(-0.404881 0.040262 0)
(-0.409747 0.0294204 0)
(-0.411994 0.0174483 0)
(-0.411542 0.00448403 0)
(-0.40832 -0.0093077 0)
(-0.402259 -0.023728 0)
(-0.393296 -0.0385335 0)
(-0.381372 -0.053425 0)
(-0.366443 -0.0680423 0)
(-0.348493 -0.0819573 0)
(-0.327553 -0.0946718 0)
(-0.303729 -0.105628 0)
(-0.277236 -0.114228 0)
(-0.248428 -0.119881 0)
(-0.217832 -0.122053 0)
(-0.18616 -0.120352 0)
(-0.154303 -0.114603 0)
(-0.123292 -0.104932 0)
(-0.0942212 -0.0918082 0)
(-0.0681334 -0.0760492 0)
(-0.0458995 -0.0587694 0)
(-0.028102 -0.0412887 0)
(-0.0149576 -0.0250308 0)
(-0.00628254 -0.0114479 0)
(-0.00153855 -0.00201429 0)
(7.14908e-05 0.00175394 0)
(3.48075e-05 -0.000818305 0)
(0.000358761 -0.00199487 0)
(0.000852876 -0.00276636 0)
(0.00141904 -0.00319012 0)
(0.00198007 -0.00332348 0)
(0.00248309 -0.00322135 0)
(0.00288648 -0.00293319 0)
(0.00315782 -0.00250131 0)
(0.00327134 -0.00195982 0)
(0.00320564 -0.0013345 0)
(0.00294191 -0.000643197 0)
(0.00246233 0.000103595 0)
(0.00174867 0.000901982 0)
(0.000781055 0.00175394 0)
(-0.000463123 0.00266664 0)
(-0.00201024 0.00365186 0)
(-0.00389131 0.00472545 0)
(-0.00614279 0.00590689 0)
(-0.00880727 0.00721885 0)
(-0.011934 0.00868672 0)
(-0.0155794 0.0103381 0)
(-0.0198068 0.0122024 0)
(-0.024687 0.0143095 0)
(-0.0302968 0.0166895 0)
(-0.0367189 0.0193709 0)
(-0.0440397 0.0223793 0)
(-0.0523469 0.0257354 0)
(-0.0617269 0.0294526 0)
(-0.07226 0.0335342 0)
(-0.0840161 0.0379707 0)
(-0.0970484 0.0427365 0)
(-0.111387 0.0477869 0)
(-0.127034 0.0530551 0)
(-0.143952 0.0584507 0)
(-0.162063 0.0638585 0)
(-0.181245 0.0691397 0)
(-0.201324 0.0741346 0)
(-0.222082 0.0786668 0)
(-0.243257 0.0825508 0)
(-0.264551 0.0855994 0)
(-0.285645 0.0876333 0)
(-0.306206 0.0884896 0)
(-0.325907 0.08803 0)
(-0.344435 0.0861468 0)
(-0.361504 0.0827665 0)
(-0.376863 0.0778507 0)
(-0.390302 0.0713949 0)
(-0.40165 0.0634256 0)
(-0.410773 0.0539962 0)
(-0.417566 0.0431833 0)
(-0.421948 0.0310839 0)
(-0.42385 0.0178158 0)
(-0.423211 0.00352233 0)
(-0.41997 -0.0116323 0)
(-0.414055 -0.0274499 0)
(-0.405392 -0.0436883 0)
(-0.393895 -0.0600461 0)
(-0.379483 -0.0761563 0)
(-0.362088 -0.0915748 0)
(-0.341678 -0.105775 0)
(-0.318288 -0.118155 0)
(-0.292053 -0.128057 0)
(-0.263249 -0.134807 0)
(-0.232335 -0.13778 0)
(-0.199976 -0.136482 0)
(-0.167052 -0.130653 0)
(-0.134624 -0.120355 0)
(-0.103859 -0.106046 0)
(-0.0759159 -0.0885937 0)
(-0.0517982 -0.0692259 0)
(-0.0322238 -0.0494295 0)
(-0.0175261 -0.030824 0)
(-0.007608 -0.0150589 0)
(-0.00199738 -0.00378212 0)
(4.76214e-05 0.00134896 0)
(3.40021e-05 -0.000910986 0)
(0.00034145 -0.00219758 0)
(0.000801141 -0.00302257 0)
(0.00131497 -0.00345809 0)
(0.00180619 -0.00357186 0)
(0.00222287 -0.00342644 0)
(0.00252464 -0.00307674 0)
(0.0026803 -0.002569 0)
(0.002665 -0.00193998 0)
(0.00245779 -0.0012171 0)
(0.00203972 -0.000418943 0)
(0.00139228 0.000443977 0)
(0.00049598 0.00136841 0)
(-0.000670824 0.00235755 0)
(-0.00213301 0.0034203 0)
(-0.00391962 0.00457066 0)
(-0.00606475 0.00582708 0)
(-0.00860823 0.00721202 0)
(-0.0115963 0.00875141 0)
(-0.0150822 0.0104741 0)
(-0.019126 0.0124114 0)
(-0.0237952 0.014596 0)
(-0.029164 0.0170613 0)
(-0.0353126 0.0198403 0)
(-0.042326 0.0229635 0)
(-0.0502918 0.0264576 0)
(-0.0592975 0.0303427 0)
(-0.0694268 0.0346298 0)
(-0.080755 0.0393175 0)
(-0.0933436 0.0443886 0)
(-0.107234 0.0498068 0)
(-0.12244 0.0555129 0)
(-0.138943 0.0614228 0)
(-0.156683 0.0674254 0)
(-0.175555 0.0733829 0)
(-0.195407 0.0791325 0)
(-0.216039 0.0844905 0)
(-0.237205 0.0892592 0)
(-0.258623 0.0932347 0)
(-0.27998 0.0962173 0)
(-0.300953 0.0980213 0)
(-0.321216 0.0984845 0)
(-0.340456 0.097476 0)
(-0.358388 0.0949015 0)
(-0.374761 0.090705 0)
(-0.389367 0.0848681 0)
(-0.402039 0.0774071 0)
(-0.412651 0.0683675 0)
(-0.42111 0.0578186 0)
(-0.427351 0.045849 0)
(-0.431322 0.0325627 0)
(-0.432977 0.0180796 0)
(-0.432269 0.00254412 0)
(-0.429143 -0.0138852 0)
(-0.423524 -0.0310162 0)
(-0.415324 -0.0486133 0)
(-0.404434 -0.0663794 0)
(-0.390734 -0.0839465 0)
(-0.374109 -0.100861 0)
(-0.354463 -0.116574 0)
(-0.331755 -0.130445 0)
(-0.306036 -0.141755 0)
(-0.277496 -0.149749 0)
(-0.246511 -0.153701 0)
(-0.213685 -0.153005 0)
(-0.17987 -0.147291 0)
(-0.146146 -0.136537 0)
(-0.113749 -0.121167 0)
(-0.0839543 -0.10208 0)
(-0.0579149 -0.0806114 0)
(-0.0365022 -0.0584189 0)
(-0.0201863 -0.0373302 0)
(-0.00897342 -0.0192082 0)
(-0.00246338 -0.00588452 0)
(2.54708e-05 0.000828354 0)
(3.28008e-05 -0.000998565 0)
(0.000318263 -0.0023854 0)
(0.000733866 -0.00325425 0)
(0.00118283 -0.00369213 0)
(0.00158992 -0.00377743 0)
(0.00190481 -0.00358056 0)
(0.00208895 -0.00316188 0)
(0.00211279 -0.00257147 0)
(0.00195273 -0.00184853 0)
(0.00158853 -0.00102183 0)
(0.00100135 -0.000110412 0)
(0.000172111 0.000875499 0)
(-0.000919783 0.00193357 0)
(-0.00229765 0.00306847 0)
(-0.00398852 0.00429107 0)
(-0.00602401 0.00561776 0)
(-0.00844113 0.00706979 0)
(-0.0112829 0.00867272 0)
(-0.0145991 0.0104559 0)
(-0.0184463 0.0124516 0)
(-0.0228882 0.0146947 0)
(-0.0279956 0.0172214 0)
(-0.0338456 0.0200683 0)
(-0.0405208 0.0232706 0)
(-0.0481072 0.0268606 0)
(-0.0566926 0.0308652 0)
(-0.0663622 0.035303 0)
(-0.0771957 0.0401814 0)
(-0.0892609 0.0454926 0)
(-0.102609 0.0512101 0)
(-0.117267 0.0572846 0)
(-0.13323 0.0636411 0)
(-0.150459 0.0701758 0)
(-0.168868 0.0767558 0)
(-0.188327 0.0832195 0)
(-0.208655 0.08938 0)
(-0.229627 0.0950312 0)
(-0.250976 0.0999556 0)
(-0.272404 0.103935 0)
(-0.293593 0.106761 0)
(-0.314223 0.108247 0)
(-0.333981 0.108237 0)
(-0.35258 0.106612 0)
(-0.369767 0.103296 0)
(-0.385331 0.0982534 0)
(-0.399107 0.0914874 0)
(-0.41097 0.0830351 0)
(-0.420838 0.0729598 0)
(-0.428654 0.061345 0)
(-0.434386 0.0482881 0)
(-0.438009 0.0338967 0)
(-0.439497 0.0182888 0)
(-0.438812 0.00160565 0)
(-0.435903 -0.0160042 0)
(-0.43069 -0.0343586 0)
(-0.423078 -0.0532331 0)
(-0.412934 -0.0723409 0)
(-0.400106 -0.0913192 0)
(-0.384431 -0.109712 0)
(-0.365754 -0.126955 0)
(-0.34396 -0.142373 0)
(-0.319009 -0.155193 0)
(-0.290995 -0.164579 0)
(-0.260202 -0.169697 0)
(-0.227155 -0.169815 0)
(-0.192658 -0.164435 0)
(-0.157791 -0.153426 0)
(-0.123854 -0.137148 0)
(-0.0922364 -0.116512 0)
(-0.0642521 -0.0929487 0)
(-0.0409464 -0.0682881 0)
(-0.0229482 -0.0445792 0)
(-0.010386 -0.0239168 0)
(-0.00294116 -0.00833326 0)
(4.52454e-06 0.000190436 0)
(3.12379e-05 -0.00107958 0)
(0.000289472 -0.00255457 0)
(0.000651616 -0.00345595 0)
(0.0010235 -0.00388563 0)
(0.00133246 -0.00393284 0)
(0.00153049 -0.00367594 0)
(0.00158149 -0.0031807 0)
(0.00145797 -0.00250087 0)
(0.00113797 -0.00167783 0)