/*--------------------------------*- C++ -*----------------------------------*\
  =========                 |
  \\      /  F ield         | OpenFOAM: The Open Source CFD Toolbox
   \\    /   O peration     | Website:  https://openfoam.org
    \\  /    A nd           | Version:  12
     \\/     M anipulation  |
\*---------------------------------------------------------------------------*/
FoamFile
{
    format      ascii;
    class       volScalarField;
    location    "0.5";
    object      epsilon;
}
// * * * * * * * * * * * * * * * * * * * * * * * * * * * * * * * * * * * * * //

dimensions      [0 2 -3 0 0 0 0];

internalField   nonuniform List<scalar> 
5625
(
4.16289e-05
0.000281214
0.000622151
0.00102057
0.001453
0.00190262
0.002356
0.00280199
0.00323138
0.00363675
0.00401242
0.00435434
0.00466008
0.00492857
0.00515998
0.0053554
0.00551659
0.00564573
0.00574514
0.00581712
0.00586373
0.0058866
0.00588787
0.00586861
0.00582971
0.00577191
0.00569588
0.00560227
0.00549181
0.00536539
0.00522414
0.00506944
0.00490299
0.00472679
0.00454309
0.0043544
0.00416337
0.00397274
0.00378519
0.00360333
0.0034295
0.00326573
0.00311368
0.00297451
0.00284892
0.0027371
0.00263873
0.00255302
0.00247872
0.00241421
0.0023575
0.00230635
0.00225828
0.00221068
0.00216096
0.00210651
0.00204492
0.0019741
0.00189243
0.00179886
0.00169303
0.00157536
0.00144706
0.00131007
0.00116692
0.00102058
0.000874166
0.000730737
0.000593062
0.000463486
0.000343918
0.000235983
0.000141461
6.33419e-05
9.35673e-06
7.8628e-05
0.000152511
0.000303957
0.000487959
0.000689692
0.000900281
0.00111306
0.00132265
0.00152461
0.00171542
0.00189236
0.00205349
0.00219765
0.00232431
0.00243351
0.00252576
0.00260187
0.00266284
0.00270976
0.0027437
0.00276563
0.00277631
0.00277676
0.00276747
0.00274887
0.00272133
0.00268517
0.00264069
0.00258827
0.00252832
0.00246139
0.00238815
0.0023094
0.0022261
0.00213931
0.00205022
0.00196009
0.0018702
0.00178184
0.0016962
0.00161442
0.00153742
0.00146599
0.00140067
0.00134177
0.00128937
0.0012433
0.00120319
0.00116843
0.00113823
0.00111167
0.00108765
0.00106502
0.00104255
0.00101901
0.0009932
0.000963985
0.00093041
0.000891731
0.000847478
0.000797509
0.000742039
0.000681641
0.000617226
0.000549977
0.000481263
0.000412533
0.000345203
0.000280563
0.000219724
0.000163616
0.000113093
6.92367e-05
3.43533e-05
1.76591e-05
0.000166815
0.000148485
0.000234174
0.000353233
0.000488281
0.000631144
0.000776465
0.00092018
0.00105906
0.00119055
0.00131271
0.00142414
0.00152399
0.00161187
0.00168778
0.00175203
0.00180517
0.00184787
0.00188088
0.00190492
0.00192067
0.00192866
0.00192956
0.00192373
0.00191148
0.00189305
0.00186866
0.00183853
0.0018029
0.00176206
0.00171637
0.00166629
0.00161236
0.00155523
0.00149563
0.00143437
0.0013723
0.00131032
0.0012493
0.00119008
0.00113343
0.00108002
0.00103037
0.000984869
0.000943747
0.000907054
0.000874681
0.000846359
0.000821672
0.000800075
0.000780913
0.000763445
0.000746864
0.000730333
0.000713021
0.00069411
0.00067286
0.000648642
0.000620982
0.000589592
0.000554405
0.000515589
0.000473545
0.000428891
0.000382416
0.000335033
0.0002877
0.000241364
0.000196903
0.000155098
0.00011667
8.24e-05
5.35513e-05
3.34055e-05
3.73452e-05
0.000272461
0.000177847
0.000221519
0.000304795
0.000405784
0.000515395
0.000628328
0.000740867
0.00085018
0.000954075
0.00105089
0.00113946
0.00121902
0.00128922
0.00135003
0.00140167
0.00144453
0.00147916
0.00150611
0.00152597
0.00153927
0.00154642
0.00154793
0.00154414
0.00153525
0.00152147
0.00150296
0.00147989
0.00145245
0.00142084
0.00138536
0.00134632
0.00130417
0.00125938
0.00121254
0.00116426
0.00111523
0.00106614
0.00101768
0.00097054
0.00092532
0.000882559
0.000842693
0.000806037
0.000772778
0.000742967
0.00071652
0.000693226
0.000672754
0.00065467
0.000638452
0.000623511
0.000609213
0.0005949
0.000579926
0.000563668
0.000545565
0.000525152
0.000502085
0.000476167
0.00044737
0.000415842
0.000381905
0.00034604
0.000308856
0.000271052
0.000233367
0.000196536
0.00016126
0.000128205
9.80561e-05
7.17015e-05
5.07933e-05
3.98461e-05
6.06866e-05
0.000392156
0.000223249
0.000233243
0.000290958
0.000369404
0.00045806
0.000551223
0.000645137
0.000737059
0.000824914
0.000907146
0.000982647
0.00105071
0.00111095
0.00116332
0.00120795
0.00124517
0.00127542
0.00129916
0.00131689
0.00132905
0.00133602
0.00133815
0.00133581
0.00132913
0.0013183
0.00130344
0.0012847
0.0012622
0.00123613
0.0012067
0.00117419
0.00113893
0.00110133
0.00106186
0.00102104
0.000979452
0.000937676
0.000896312
0.000855936
0.000817082
0.00078022
0.000745731
0.0007139
0.000684896
0.000658773
0.000635467
0.000614799
0.000596491
0.000580172
0.000565398
0.000551668
0.000538446
0.000525182
0.000511331
0.00049638
0.00047987
0.00046142
0.000440756
0.000417722
0.000392305
0.000364633
0.000334987
0.000303771
0.000271504
0.000238776
0.000206221
0.000174479
0.000144182
0.00011597
9.05727e-05
6.90449e-05
5.34999e-05
4.97137e-05
8.67544e-05
0.000523478
0.000278611
0.000258714
0.000295686
0.000356988
0.000430465
0.00050982
0.000591077
0.000671423
0.000748774
0.000821579
0.00088873
0.000949503
0.0010035
0.00105061
0.00109093
0.00112472
0.00115235
0.00117422
0.00119077
0.00120239
0.00120944
0.00121215
0.00121092
0.00120585
0.00119708
0.00118474
0.00116893
0.00114975
0.00112735
0.0011019
0.00107364
0.00104284
0.00100985
0.000975079
0.000938982
0.000902061
0.000864842
0.000827861
0.000791641
0.000756668
0.000723376
0.000692121
0.000663171
0.000636692
0.000612742
0.000591273
0.000572134
0.00055508
0.000539785
0.000525856
0.000512851
0.000500297
0.000487705
0.000474595
0.000460514
0.000445056
0.00042788
0.000408733
0.000387469
0.000364063
0.000338623
0.000311396
0.000282746
0.000253148
0.000223153
0.000193362
0.000164393
0.000136874
0.000111473
8.90024e-05
7.07367e-05
5.92415e-05
6.15848e-05
0.000114849
0.000664824
0.000341131
0.000293209
0.000312126
0.000359291
0.000420801
0.000489666
0.000561596
0.000633625
0.000703582
0.000769862
0.000831316
0.000887178
0.000937011
0.000980652
0.00101815
0.00104973
0.00107569
0.00109642
0.00111229
0.00112367
0.00113089
0.00113412
0.00113376
0.0011299
0.00112265
0.00111212
0.00109838
0.00108154
0.00106169
0.00103898
0.00101361
0.000985814
0.000955907
0.000924245
0.000891242
0.000857355
0.000823071
0.000788888
0.000755298
0.000722763
0.000691697
0.000662447
0.000635275
0.00061035
0.000587742
0.000567416
0.000549246
0.000533012
0.000518423
0.000505124
0.000492712
0.000480754
0.000468803
0.000456414
0.000443158
0.000428643
0.000412531
0.000394557
0.000374551
0.00035246
0.000328356
0.000302453
0.000275106
0.000246787
0.000218056
0.00018953
0.000161861
0.000135722
0.000111853
9.11891e-05
7.52163e-05
6.69299e-05
7.47778e-05
0.000144465
0.000815111
0.000409304
0.000334225
0.000336734
0.000371632
0.000423176
0.000483616
0.000548292
0.000614033
0.000678536
0.000740103
0.000797512
0.000849939
0.000896894
0.000938165
0.000973763
0.00100386
0.00102874
0.00104873
0.0010642
0.00107548
0.00108288
0.00108656
0.00108686
0.0010839
0.00107777
0.00106855
0.0010563
0.0010411
0.00102303
0.00100222
0.00097882
0.000953059
0.000925208
0.000895595
0.000864608
0.000832673
0.000800255
0.000767831
0.000735878
0.000704846
0.000675145
0.000647121
0.00062104
0.000597081
0.000575325
0.000555755
0.000538265
0.000522662
0.000508679
0.000495991
0.000484222
0.000472965
0.000461797
0.000450277
0.000437969
0.000424466
0.0004094
0.000392469
0.000373458
0.000352271
0.000328952
0.000303692
0.000276838
0.000248879
0.000220417
0.000192129
0.000164736
0.000138997
0.00011575
9.60636e-05
8.16825e-05
7.5989e-05
8.89095e-05
0.000175234
0.000973549
0.000482224
0.000380278
0.000367428
0.000391324
0.000434237
0.000487643
0.000546471
0.00060729
0.000667643
0.000725712
0.000780184
0.000830158
0.000875084
0.000914704
0.000948985
0.000978067
0.0010022
0.00102171
0.00103692
0.00104815
0.0010557
0.00105973
0.0010605
0.0010582
0.00105286
0.00104456
0.00103335
0.00101927
0.00100241
0.000982859
0.000960764
0.000936319
0.000909776
0.000881447
0.000851697
0.000820941
0.000789629
0.000758231
0.000727219
0.000697045
0.000668121
0.000640802
0.000615363
0.000591998
0.000570805
0.000551782
0.000534846
0.000519825
0.000506477
0.000494496
0.000483524
0.000473166
0.000463
0.000452574
0.000441428
0.000429114
0.000415214
0.000399361
0.000381278
0.000360806
0.000337943
0.000312859
0.00028591
0.000257623
0.000228667
0.000199811
0.000171883
0.000145757
0.000122398
0.000103027
8.96729e-05
8.60814e-05
0.000103748
0.000206901
0.00113955
0.000559302
0.000430422
0.000402883
0.000416662
0.000451917
0.000499272
0.000553229
0.000610115
0.000667258
0.00072269
0.000775001
0.000823206
0.00086669
0.000905144
0.000938498
0.000966864
0.000990472
0.00100962
0.00102463
0.00103582
0.00104345
0.0010477
0.00104877
0.0010469
0.00104208
0.00103437
0.00102382
0.00101046
0.000994342
0.000975558
0.000954234
0.000930548
0.000904739
0.000877106
0.000848004
0.000817843
0.000787069
0.000756155
0.000725577
0.000695797
0.000667237
0.000640264
0.000615173
0.00059217
0.000571371
0.000552798
0.000536387
0.00052199
0.000509383
0.000498275
0.00048832
0.000479122
0.000470234
0.00046118
0.000451459
0.000440564
0.000428004
0.000413332
0.000396185
0.000376333
0.000353717
0.000328487
0.000301011
0.000271869
0.000241818
0.000211744
0.000182611
0.000155439
0.000131346
0.000111723
9.89063e-05
9.70023e-05
0.000119152
0.000239295
0.00131264
0.000640127
0.000484023
0.000442201
0.000446498
0.000474813
0.000516874
0.000566719
0.000620367
0.00067496
0.000728396
0.00077912
0.000826055
0.000868517
0.000906144
0.000938834
0.000966672
0.000989874
0.00100873
0.00102355
0.00103464
0.00104227
0.0010466
0.0010478
0.00104615
0.0010416
0.0010342
0.00102399
0.00101098
0.000995227
0.000976797
0.000955809
0.000932429
0.000906889
0.000879482
0.000850561
0.000820538
0.000789864
0.000759021
0.000728498
0.000698769
0.000670277
0.000643407
0.000618472
0.000595699
0.000575228
0.000557106
0.000541284
0.00052763
0.000515932
0.00050591
0.000497215
0.00048944
0.000482115
0.000474723
0.000466703
0.00045747
0.000446449
0.000433095
0.000416949
0.000397691
0.000375203
0.000349606
0.000321284
0.000290876
0.000259243
0.000227408
0.000196498
0.000167704
0.000142322
0.000121936
0.000109212
0.00010863
0.000135041
0.000272326
0.00149246
0.000724395
0.00054063
0.000484741
0.000480025
0.000501942
0.000539288
0.000585604
0.000636598
0.000689188
0.000741091
0.00079063
0.000836635
0.000878349
0.000915364
0.000947545
0.000974958
0.00099781
0.00101638
0.00103097
0.0010419
0.00104942
0.00105367
0.00105485
0.00105321
0.0010487
0.00104135
0.0010312
0.00101825
0.00100254
0.000984133
0.000963131
0.000939699
0.000914063
0.000886518
0.00085742
0.000827187
0.000796285
0.000765209
0.000734465
0.000704551
0.000675927
0.000649002
0.000624113
0.000601512
0.00058136
0.000563723
0.000548573
0.000535793
0.000525181
0.000516461
0.000509275
0.000503197
0.000497721
0.000492274
0.000486225
0.000478896
0.000469619
0.000457742
0.000442694
0.000424057
0.000401643
0.000375538
0.000346138
0.000314145
0.000280532
0.000246475
0.000213284
0.000182348
0.000155168
0.000133545
0.000120493
0.000120903
0.000151384
0.000305974
0.00167868
0.000811872
0.000599912
0.000530036
0.000516648
0.000532588
0.000565677
0.000608927
0.000657714
0.000708716
0.000759467
0.000808155
0.000853504
0.000894688
0.00093125
0.000963026
0.000990069
0.00101258
0.00103083
0.00104514
0.0010558
0.00106309
0.00106712
0.00106811
0.0010663
0.00106161
0.0010541
0.00104376
0.0010306
0.00101465
0.000995966
0.000974644
0.000950846
0.000924801
0.000896806
0.00086723
0.000836501
0.000805103
0.000773551
0.000742376
0.000712097
0.000683203
0.000656128
0.000631234
0.000608797
0.000589
0.00057193
0.000557576
0.000545833
0.000536506
0.000529314
0.000523888
0.000519772
0.000516413
0.000513175
0.000509353
0.000504152
0.000496821
0.00048659
0.000472764
0.000454817
0.000432477
0.00040579
0.000375156
0.000341337
0.000305418
0.000268742
0.000232819
0.000199262
0.000169802
0.00014649
0.000132709
0.000133804
0.000168188
0.000340286
0.00187101
0.000902364
0.00066161
0.000577736
0.000555915
0.000566207
0.000595408
0.00063597
0.000682912
0.000732657
0.000782546
0.000830624
0.000875509
0.000916302
0.000952501
0.000983918
0.0010106
0.00103273
0.00105061
0.00106454
0.00107484
0.00108177
0.00108542
0.00108608
0.00108391
0.00107886
0.00107097
0.00106022
0.00104663
0.0010302
0.00101099
0.000989091
0.000964674
0.000937969
0.000909282
0.000878993
0.000847551
0.000815459
0.000783257
0.000751504
0.000720746
0.000691501
0.000664231
0.000639323
0.000617081
0.000597709
0.000581311
0.000567893
0.000557359
0.000549517
0.000544074
0.00054064
0.000538733
0.000537732
0.000536938
0.000535584
0.000532712
0.000527519
0.000519107
0.000506646
0.00048949
0.000467274
0.00043999
0.000408031
0.000372211
0.000333728
0.000294092
0.000255031
0.000218404
0.000186203
0.00016076
0.000145868
0.000147348
0.000185497
0.000375367
0.00206921
0.000995705
0.000725519
0.000627567
0.000597471
0.000602377
0.000627993
0.000666176
0.00071157
0.000760324
0.000809578
0.000857226
0.00090178
0.000942269
0.000978149
0.00100921
0.0010355
0.00105721
0.00107463
0.00108809
0.0010979
0.00110433
0.00110746
0.00110765
0.00110495
0.00109937
0.0010909
0.00107956
0.00106533
0.00104822
0.00102827
0.0010056
0.000980358
0.000952793
0.000923221
0.00089204
0.000859721
0.00082679
0.000793817
0.000761389
0.000730084
0.00070045
0.000672977
0.000648083
0.000626093
0.000607234
0.000591628
0.000579292
0.000570139
0.000563969
0.000560483
0.000559252
0.000559782
0.000561347
0.000563187
0.000564543
0.000564161
0.00056128
0.000554863
0.000543926
0.000527691
0.000505689
0.000477844
0.00044453
0.000406598
0.00036535
0.000322466
0.000279901
0.000239782
0.000204394
0.000176383
0.000160007
0.000161583
0.000203381
0.000411376
0.00227302
0.00109175
0.00079147
0.000679312
0.000641031
0.000640764
0.000663042
0.000699104
0.000743193
0.00079117
0.000839965
0.000887315
0.000931624
0.000971853
0.00100742
0.0010381
0.00106394
0.00108514
0.00110202
0.00111489
0.0011241
0.0011299
0.00113236
0.00113194
0.00112856
0.00112229
0.0011131
0.001101
0.00108596
0.001068
0.00104716
0.00102354
0.000997312
0.000968731
0.00093813
0.000905926
0.000872612
0.000838744
0.000804922
0.000771763
0.000739881
0.000709852
0.0006822
0.000657367
0.000635704
0.000617458
0.000602766
0.000591656
0.000584045
0.000579724
0.000578403
0.000579457
0.000582617
0.000586997
0.000591784
0.000595969
0.000598166
0.000597751
0.000593505
0.000584262
0.0005691
0.000547436
0.000519112
0.000484466
0.000444369
0.000400214
0.000353844
0.000307447
0.00026344
0.000224431
0.000193419
0.00017519
0.000176578
0.000221933
0.000448513
0.00248223
0.00119037
0.000859319
0.000732795
0.000686355
0.000681102
0.00070024
0.000734395
0.000777379
0.000824751
0.00087322
0.000920362
0.000964473
0.00100445
0.00103968
0.00106993
0.00109524
0.00111585
0.00113206
0.00114424
0.00115273
0.00115774
0.00115945
0.00115826
0.00115409
0.00114699
0.00113695
0.00112395
0.00110797
0.00108903
0.00106715
0.00104246
0.00101513
0.000985427
0.000953695
0.000920377
0.000885993
0.000851129
0.000816415
0.000782505
0.000750043
0.000719641
0.000691851
0.000667143
0.000645891
0.00062836
0.000614702
0.000604952
0.000599034
0.000596777
0.000597594
0.000601268
0.000607186
0.000614505
0.000622315
0.000629553
0.000634665
0.000636636
0.000634738
0.000627364
0.000613443
0.000592266
0.000563583
0.000527677
0.000485417
0.000438267
0.000388224
0.00033771
0.000289445
0.000246395
0.000211951
0.000191499
0.00019242
0.000241266
0.000487012
0.00269659
0.00129142
0.000928938
0.000787856
0.000733262
0.000723162
0.000739325
0.00077175
0.000813793
0.000860695
0.000908932
0.000955921
0.00099985
0.00103955
0.00107439
0.00110413
0.00112883
0.00114873
0.00116418
0.00117555
0.00118319
0.00118729
0.00118816
0.00118608
0.001181
0.00117297
0.00116196
0.00114797
0.00113096
0.00111093
0.00108794
0.00106209
0.00103357
0.00100267
0.000969742
0.000935259
0.000899766
0.000863879
0.000828264
0.000793606
0.000760587
0.00072985
0.000701976
0.000677464
0.00065671
0.000639994
0.000627479
0.000619206
0.000615214
0.000614926
0.0006182
0.00062457
0.000633379
0.000643753
0.000654694
0.000665034
0.000673416
0.000677835
0.000678316
0.000672989
0.000660484
0.00063996
0.000611064
0.000574007
0.000529636
0.00047946
0.00042561
0.000370737
0.000317876
0.000270381
0.000232081
0.000209029
0.000209208
0.000261503
0.000527126
0.00291587
0.0013948
0.00100021
0.00084436
0.000781597
0.000766752
0.000780077
0.000810919
0.000852153
0.000898686
0.000946755
0.000993613
0.00103734
0.00107673
0.0011111
0.00114024
0.00116422
0.00118331
0.00119789
0.00120833
0.00121501
0.00121809
0.00121806
0.00121498
0.00120891
0.00119986
0.00118782
0.00117275
0.00115463
0.00113347
0.0011093
0.00108225
0.0010525
0.00102036
0.000986218
0.000950551
0.00091394
0.000877034
0.00084053
0.000805152
0.000771612
0.000740589
0.000712694
0.000688451
0.000668277
0.000652468
0.000641194
0.00063457
0.000632558
0.000634301
0.00064018
0.000649351
0.000661155
0.000674677
0.000688845
0.000702408
0.000713985
0.000721412
0.000724021
0.00072093
0.000710014
0.000690313
0.000661368
0.000623301
0.000576912
0.000523729
0.000465993
0.000406568
0.000348813
0.00029649
0.00025392
0.000227877
0.000227052
0.000282774
0.000569119
0.00313985
0.00150037
0.00107302
0.000902187
0.000831221
0.000811708
0.000822307
0.000851683
0.000892211
0.000938448
0.000986384
0.00103311
0.0010766
0.0011156
0.00114942
0.00117786
0.00120101
0.00121918
0.00123276
0.00124219
0.00124778
0.0012498
0.00124876
0.00124463
0.0012375
0.00122739
0.00121426
0.00119809
0.00117884
0.00115651
0.00113115
0.00110288
0.0010719
0.00103853
0.00100317
0.000966328
0.000928618
0.000890717
0.000853359
0.000817299
0.000783288
0.000752035
0.000724182
0.000700278
0.000680759
0.000665937
0.000655984
0.000651226
0.000650965
0.000655135
0.000663604
0.000675648
0.000690525
0.000707269
0.000724734
0.000741592
0.000756371
0.000767072
0.000771855
0.000771019
0.000761855
0.00074314
0.00071431
0.000675389
0.00062711
0.000570988
0.000509342
0.000445228
0.00038232
0.000324818
0.000277579
0.00024815
0.000246058
0.000305208
0.000613247
0.00336827
0.00160801
0.00114727
0.000961226
0.000882012
0.000857887
0.000865847
0.000893853
0.000933753
0.000979738
0.00102755
0.00107411
0.00111731
0.00115583
0.00118899
0.00121662
0.00123883
0.00125597
0.00126847
0.00127678
0.00128118
0.00128215
0.00128
0.00127478
0.00126657
0.00125537
0.00124116
0.00122388
0.0012035
0.00118002
0.00115348
0.00112401
0.00109183
0.00105725
0.00102071
0.000982742
0.000943976
0.000905127
0.000866961
0.000830272
0.000795844
0.000764418
0.000736667
0.000713165
0.000694366
0.000680599
0.000672108
0.000669197
0.000670768
0.000677429
0.000688569
0.000703545
0.000721551
0.00074157
0.000762382
0.000782583
0.000800591
0.000814618
0.00082187
0.000823113
0.000815863
0.000798272
0.000769709
0.000730095
0.000680072
0.000621117
0.00055559
0.000486707
0.000418445
0.000355448
0.000303155
0.000269955
0.000266333
0.000328927
0.000659751
0.00360089
0.00171759
0.00122286
0.00102138
0.000933858
0.000905159
0.000910551
0.000937259
0.000976583
0.00102234
0.00107001
0.00111635
0.00115917
0.00119712
0.00122952
0.00125621
0.00127738
0.00129339
0.00130471
0.00131182
0.00131499
0.00131487
0.00131159
0.00130528
0.00129598
0.00128371
0.00126843
0.00125008
0.00122861
0.00120402
0.00117636
0.00114576
0.00111243
0.00107671
0.00103906
0.00100002
0.000960258
0.000920521
0.000881608
0.000844347
0.000809557
0.000778014
0.000750419
0.000727371
0.000709343
0.000696661
0.000689847
0.000688517
0.000692265
0.000701357
0.000715218
0.000733166
0.000754341
0.00077767
0.000801864
0.000825442
0.000846737
0.000863939
0.000874063
0.000877179
0.00087194
0.000855575
0.000827401
0.000787235
0.00073562
0.000673966
0.000604635
0.000530964
0.000457201
0.00038844
0.000330735
0.000293387
0.000287973
0.00035404
0.00070884
0.00383743
0.001829
0.00129969
0.00108255
0.000986659
0.000953406
0.000956284
0.000981746
0.00102052
0.00106605
0.00111354
0.0011596
0.00120194
0.0012392
0.00127072
0.00129638
0.00131638
0.00133118
0.00134126
0.00134707
0.00134904
0.00134779
0.0013434
0.001336
0.00132566
0.00131237
0.00129608
0.00127673
0.00125426
0.00122865
0.00119996
0.0011683
0.00113392
0.00109715
0.00105847
0.00101844
0.000977769
0.000937217
0.000897623
0.000859852
0.000824755
0.000793144
0.00076575
0.000743197
0.000725982
0.000714464
0.000709359
0.000709562
0.000715552
0.000727119
0.000743735
0.000764682
0.000789053
0.000815716
0.000843309
0.000870282
0.000894881
0.000915217
0.000928333
0.000933267
0.000930044
0.000914955
0.000887245
0.000846635
0.000793564
0.000729354
0.000656334
0.00057791
0.000498566
0.000423824
0.000360385
0.00031853
0.000311065
0.000380641
0.000760688
0.00407764
0.00194209
0.00137766
0.00114464
0.00104032
0.00100251
0.00100292
0.00102717
0.00106541
0.00111068
0.00115793
0.00120362
0.00124539
0.00128184
0.00131236
0.00133686
0.00135562
0.00136912
0.00137791
0.00138237
0.0013832
0.00138081
0.00137533
0.00136692
0.00135561
0.00134139
0.00132419
0.00130395
0.00128058
0.00125408
0.00122447
0.00119189
0.00115658
0.00111888
0.00107927
0.00103837
0.000996868
0.000955583
0.000915381
0.00087716
0.000841809
0.000810172
0.000783013
0.000760981
0.000744597
0.000734344
0.000730849
0.000732653
0.000740892
0.000754956
0.000774344
0.000798307
0.00082589
0.000855901
0.000886906
0.000917274
0.000945172
0.000968612
0.000984744
0.000991497
0.000990196
0.00097638
0.000949149
0.000908147
0.000853717
0.000787082
0.000710507
0.000627417
0.000542474
0.000461599
0.000392149
0.000345446
0.000335676
0.000408801
0.000815424
0.00432122
0.00205673
0.00145666
0.00120758
0.00109476
0.00105237
0.00105036
0.0010734
0.0011111
0.00115606
0.001203
0.00124822
0.00128928
0.00132481
0.00135422
0.00137747
0.0013949
0.00140706
0.00141448
0.00141762
0.00141736
0.00141387
0.00140739
0.00139804
0.00138588
0.00137085
0.00135289
0.0013319
0.00130779
0.00128055
0.00125019
0.00121684
0.00118074
0.00114225
0.00110186
0.00106018
0.00101797
0.000976042
0.000935307
0.000896696
0.000861135
0.000829506
0.000802603
0.000781104
0.000765534
0.000756685
0.000754516
0.000758203
0.000768592
0.000785151
0.000807314
0.000834298
0.000865101
0.000898469
0.000932894
0.000966653
0.000997832
0.00102433
0.00104345
0.0010521
0.00105249
0.0010399
0.00101309
0.000971673
0.000915917
0.000846952
0.000766953
0.000679317
0.000588817
0.000501723
0.000426038
0.000374175
0.000361858
0.000438571
0.000873126
0.00456788
0.00217278
0.0015366
0.00127126
0.00114988
0.00110288
0.00109848
0.00112031
0.00115742
0.00120203
0.00124857
0.00129319
0.00133343
0.00136791
0.00139609
0.001418
0.00143406
0.00144484
0.00145086
0.00145281
0.00145145
0.00144696
0.00143959
0.00142945
0.00141658
0.00140092
0.00138237
0.00136081
0.00133616
0.00130836
0.00127744
0.00124351
0.0012068
0.00116768
0.00112666
0.00108435
0.00104154
0.000999066
0.000957874
0.000918931
0.000883201
0.000851602
0.000824964
0.000803998
0.000789252
0.000781813
0.000780873
0.000786434
0.000798987
0.000818026
0.000842955
0.000872959
0.000906984
0.000943712
0.000981562
0.00101871
0.00105315
0.00108265
0.00110466
0.00111539
0.00111712
0.00110565
0.00107913
0.00103719
0.000980051
0.000908782
0.00082546
0.00073341
0.000637447
0.000544115
0.000462032
0.000404732
0.000389638
0.000469976
0.000933824
0.00481733
0.0022901
0.00161738
0.0013356
0.00120559
0.00115396
0.00114718
0.00116777
0.00120426
0.00124843
0.00129445
0.00133837
0.00137766
0.00141097
0.00143782
0.00145833
0.00147295
0.00148234
0.001487
0.00148786
0.00148549
0.00148013
0.00147202
0.00146127
0.00144789
0.0014318
0.00141287
0.00139098
0.00136601
0.00133789
0.00130662
0.00127232
0.00123521
0.00119566
0.00115417
0.00111139
0.00106809
0.00102518
0.000983613
0.000944393
0.000908526
0.000876969
0.000850592
0.000830144
0.000816228
0.000810115
0.000810345
0.000817779
0.000832461
0.000853951
0.000881625
0.000914637
0.000951879
0.000991971
0.00103325
0.00107381
0.00111151
0.00114399
0.00116876
0.00118155
0.00118444
0.0011739
0.00114745
0.00110476
0.00104608
0.000972437
0.000885829
0.000789483
0.000688181
0.000588655
0.000500078
0.000437108
0.000419025
0.000503014
0.000997493
0.00506923
0.00240854
0.0016989
0.00140053
0.00126182
0.00120551
0.00119634
0.00121567
0.00125147
0.0012951
0.0013405
0.00138357
0.00142178
0.00145382
0.00147926
0.0014983
0.00151151
0.0015195
0.00152289
0.00152278
0.00151953
0.00151346
0.00150481
0.00149367
0.00148002
0.00146374
0.00144471
0.00142275
0.00139772
0.00136954
0.00133819
0.00130377
0.00126649
0.00122671
0.00118494
0.00114185
0.00109822
0.00105498
0.00101311
0.000973668
0.000937689
0.000906175
0.000880039
0.000860075
0.000846978
0.000842071
0.000843441
0.000852689
0.000869451
0.000893347
0.00092373
0.000959725
0.00100017
0.00104363
0.00108836
0.00113233
0.0011733
0.0012088
0.0012362
0.00125098
0.00125488
0.00124502
0.00121834
0.00117459
0.00111407
0.00103785
0.000947894
0.000847319
0.000740812
0.000635188
0.000540087
0.000471263
0.000450002
0.000537663
0.00106407
0.00532329
0.00252795
0.00178105
0.00146594
0.00131847
0.00125747
0.00124588
0.00126389
0.00129892
0.0013419
0.00138654
0.00142864
0.00146565
0.00149631
0.00152028
0.00153784
0.00154964
0.00155628
0.00155857
0.0015576
0.00155365
0.0015471
0.00153816
0.00152689
0.00151324
0.00149708
0.00147823
0.0014565
0.00143173
0.00140379
0.00137265
0.00133838
0.00130119
0.00126142
0.0012196
0.00117637
0.00113256
0.00108911
0.00104703
0.00100741
0.000971337
0.000939858
0.000913926
0.000894372
0.000882102
0.000878212
0.000880735
0.000891688
0.000910454
0.000936688
0.000969728
0.00100867
0.00105231
0.00109913
0.00114731
0.00119473
0.001239
0.00127752
0.00130749
0.00132418
0.00132896
0.0013195
0.00129222
0.00124698
0.0011842
0.00110506
0.00101155
0.000906723
0.00079512
0.000683528
0.000581937
0.000507132
0.000482533
0.000573874
0.00113343
0.00557916
0.00264817
0.00186372
0.00153175
0.00137547
0.00130973
0.00129569
0.00131232
0.00134647
0.0013887
0.00143245
0.00147344
0.00150914
0.00153833
0.00156078
0.00157686
0.0015873
0.00159269
0.00159409
0.00159242
0.00158801
0.00158124
0.00157229
0.00156119
0.00154787
0.00153216
0.00151385
0.0014927
0.00146852
0.00144117
0.00141056
0.00137676
0.00133995
0.00130046
0.00125881
0.00121566
0.00117183
0.00112828
0.00108608
0.00104634
0.00101019
0.000978729
0.000952955
0.000933737
0.000922239
0.000919085
0.000922923
0.000935367
0.000956031
0.000984512
0.00102013
0.00106196
0.00110875
0.00115893
0.00121058
0.00126148
0.0013091
0.00135067
0.00138322
0.00140171
0.00140728
0.00139792
0.00136964
0.0013224
0.00125679
0.0011742
0.00107678
0.000967543
0.000850889
0.000733469
0.000625478
0.000544623
0.000516556
0.000611581
0.00120542
0.00583652
0.00276906
0.00194682
0.00159788
0.00143273
0.0013622
0.00134568
0.00136084
0.00139402
0.00143535
0.00147807
0.00151783
0.00155211
0.00157977
0.00160069
0.00161533
0.0016245
0.0016288
0.00162951
0.00162737
0.00162278
0.0016161
0.00160747
0.00159691
0.0015843
0.00156942
0.00155203
0.00153186
0.00150866
0.00148226
0.00145256
0.00141957
0.00138346
0.00134455
0.00130333
0.00126047
0.00121681
0.00117332
0.00113109
0.00109128
0.00105506
0.00102359
0.000997916
0.000978956
0.000968112
0.00096559
0.000970541
0.000984387
0.00100682
0.00103743
0.00107553
0.00112016
0.00117004
0.00122355
0.00127868
0.00133309
0.00138411
0.0014288
0.00146396
0.00148423
0.00149049
0.00148097
0.00145126
0.00140142
0.0013323
0.00124557
0.00114366
0.00102969
0.000907921
0.000784791
0.000670532
0.000583616
0.000551992
0.000650694
0.00127987
0.00609502
0.00289045
0.00203023
0.00166424
0.00149017
0.00141481
0.00139574
0.00140934
0.00144143
0.00148172
0.00152328
0.00156169
0.00159446
0.00162056
0.00163996
0.00165325
0.00166126
0.00166472
0.00166497
0.00166265
0.00165821
0.00165197
0.00164406
0.00163444
0.00162295
0.00160934
0.0015933
0.00157454
0.00155275
0.00152773
0.00149933
0.00146754
0.00143249
0.00139447
0.00135398
0.00131166
0.00126837
0.00122509
0.00118294
0.00114312
0.00110685
0.00107534
0.0010497
0.0010309
0.00102055
0.00101853
0.00102441
0.00103951
0.00106354
0.00109612
0.00113655
0.00118388
0.00123677
0.00129355
0.00135214
0.00141009
0.00146458
0.00151247
0.00155031
0.00157238
0.00157929
0.00156938
0.00153782
0.00148477
0.00141132
0.00131958
0.0012124
0.00109315
0.000966061
0.000837276
0.000716901
0.000623972
0.00058874
0.000691109
0.00135654
0.00635433
0.00301219
0.00211384
0.00173074
0.00154771
0.00146747
0.00144578
0.00145772
0.00148858
0.00152771
0.00156796
0.0016049
0.0016361
0.00166063
0.00167857
0.00169061
0.00169766
0.00170056
0.00170062
0.00169847
0.00169457
0.00168919
0.00168244
0.00167422
0.00166432
0.00165245
0.00163825
0.00162137
0.00160148
0.00157829
0.00155164
0.00152147
0.00148787
0.00145111
0.00141166
0.00137017
0.00132747
0.00128458
0.00124263
0.00120287
0.00116657
0.00113499
0.0011093
0.00109055
0.00108049
0.00107883
0.00108545
0.00110159
0.00112702
0.00116136
0.00120395
0.0012538
0.00130957
0.00136953
0.00143155
0.00149304
0.00155105
0.00160223
0.00164288
0.00166683
0.00167439
0.00166392
0.00163014
0.00157323
0.00149458
0.0013968
0.00128334
0.00115804
0.00102521
0.000890716
0.000764371
0.000665528
0.000626681
0.000732704
0.00143521
0.0066141
0.00313412
0.00219756
0.00179729
0.00160526
0.00152008
0.0014957
0.00150587
0.00153537
0.00157318
0.001612
0.00164739
0.00167697
0.00169995
0.00171653
0.0017275
0.00173384
0.0017365
0.00173671
0.00173513
0.0017322
0.00172815
0.00172304
0.00171673
0.00170895
0.00169935
0.00168752
0.00167306
0.00165557
0.00163473
0.00161032
0.00158223
0.00155052
0.00151543
0.00147738
0.00143702
0.00139518
0.00135287
0.00131128
0.00127166
0.00123535
0.00120366
0.00117784
0.00115902
0.00114902
0.00114755
0.00115469
0.00117161
0.00119817
0.00123404
0.00127854
0.0013307
0.00138916
0.00145216
0.00151751
0.00158252
0.00164408
0.00169865
0.00174222
0.00176819
0.00177648
0.00176536
0.00172905
0.00166769
0.00158291
0.00147792
0.00135696
0.00122456
0.00108533
0.000944931
0.000812721
0.000708102
0.000665677
0.000775343
0.0015156
0.006874
0.00325609
0.00228127
0.00186382
0.00166274
0.00157255
0.00154542
0.00155368
0.00158168
0.00161803
0.00165531
0.00168906
0.00171703
0.00173853
0.00175389
0.001764
0.00176994
0.00177274