/*--------------------------------*- C++ -*----------------------------------*\
  =========                 |
  \\      /  F ield         | OpenFOAM: The Open Source CFD Toolbox
   \\    /   O peration     | Website:  https://openfoam.org
    \\  /    A nd           | Version:  12
     \\/     M anipulation  |
\*---------------------------------------------------------------------------*/
FoamFile
{
    format      ascii;
    class       surfaceScalarField;
    location    "0.5";
    object      phi;
}
// * * * * * * * * * * * * * * * * * * * * * * * * * * * * * * * * * * * * * //

dimensions      [0 3 -1 0 0 0 0];

internalField   nonuniform List<scalar> 
11100
(
3.90572e-10
-3.88085e-10
1.02687e-09
-6.36346e-10
1.42883e-09
-4.02069e-10
1.38163e-09
4.71373e-11
8.29177e-10
5.52442e-10
-2.06341e-10
1.03551e-09
-1.66729e-09
1.46095e-09
-3.47938e-09
1.81208e-09
-5.56663e-09
2.08723e-09
-7.8615e-09
2.29487e-09
-1.03088e-08
2.44727e-09
-1.28659e-08
2.5571e-09
-1.55016e-08
2.63576e-09
-1.81947e-08
2.69311e-09
-2.09322e-08
2.73744e-09
-2.37078e-08
2.77567e-09
-2.65213e-08
2.81346e-09
-2.93767e-08
2.85541e-09
-3.2282e-08
2.90526e-09
-3.5248e-08
2.96603e-09
-3.82883e-08
3.04026e-09
-4.14184e-08
3.13011e-09
-4.46559e-08
3.23751e-09
-4.80201e-08
3.36421e-09
-5.1532e-08
3.51184e-09
-5.52139e-08
3.68191e-09
-5.90897e-08
3.87585e-09
-6.31847e-08
4.0949e-09
-6.75248e-08
4.34011e-09
-7.2137e-08
4.61222e-09
-7.70486e-08
4.91155e-09
-8.22865e-08
5.23788e-09
-8.78768e-08
5.5903e-09
-9.38438e-08
5.96702e-09
-1.00209e-07
6.36522e-09
-1.0699e-07
6.78077e-09
-1.14198e-07
7.20806e-09
-1.21838e-07
7.63966e-09
-1.29904e-07
8.06609e-09
-1.38379e-07
8.47554e-09
-1.47233e-07
8.85357e-09
-1.56416e-07
9.18298e-09
-1.65859e-07
9.44365e-09
-1.75472e-07
9.61253e-09
-1.85136e-07
9.66393e-09
-1.94706e-07
9.56986e-09
-2.04007e-07
9.30083e-09
-2.12833e-07
8.8269e-09
-2.20953e-07
8.11913e-09
-2.28104e-07
7.15132e-09
-2.34002e-07
5.89859e-09
-2.38354e-07
4.35167e-09
-2.40872e-07
2.51782e-09
-2.41271e-07
3.99352e-10
-2.39286e-07
-1.98569e-09
-2.34713e-07
-4.57291e-09
-2.27409e-07
-7.30348e-09
-2.17322e-07
-1.00877e-08
-2.04502e-07
-1.28194e-08
-1.89124e-07
-1.53781e-08
-1.71489e-07
-1.76349e-08
-1.52028e-07
-1.94612e-08
-1.31289e-07
-2.07386e-08
-1.09919e-07
-2.13697e-08
-8.86314e-08
-2.12881e-08
-6.81649e-08
-2.04666e-08
-4.92429e-08
-1.89219e-08
-3.25278e-08
-1.67151e-08
-1.85802e-08
-1.39476e-08
-7.82454e-09
-1.07557e-08
-5.17833e-10
-7.30671e-09
3.29829e-09
-3.81612e-09
3.88007e-09
-5.81784e-10
2.0977e-09
1.78237e-09
2.0977e-09
8.69811e-10
-1.25781e-09
2.07755e-09
-1.84411e-09
2.58017e-09
-9.04753e-10
1.87785e-09
7.49442e-10
-1.65498e-10
2.59581e-09
-3.4958e-09
4.36583e-09
-7.96406e-09
5.92923e-09
-1.33847e-08
7.23275e-09
-1.95702e-08
8.2727e-09
-2.63495e-08
9.07418e-09
-3.35775e-08
9.67527e-09
-4.11379e-08
1.01176e-08
-4.8943e-08
1.04408e-08
-5.69305e-08
1.06807e-08
-6.50611e-08
1.0868e-08
-7.33145e-08
1.10291e-08
-8.16867e-08
1.11856e-08
-9.01866e-08
1.13553e-08
-9.88342e-08
1.15529e-08
-1.07659e-07
1.17903e-08
-1.16696e-07
1.20778e-08
-1.2599e-07
1.24239e-08
-1.35589e-07
1.28364e-08
-1.45547e-07
1.33222e-08
-1.55923e-07
1.38878e-08
-1.6678e-07
1.45388e-08
-1.78184e-07
1.52807e-08
-1.90208e-07
1.6118e-08
-2.02921e-07
1.70541e-08
-2.16401e-07
1.80913e-08
-2.30719e-07
1.923e-08
-2.4595e-07
2.04686e-08
-2.62162e-07
2.18023e-08
-2.79418e-07
2.32231e-08
-2.97771e-07
2.47187e-08
-3.17262e-07
2.6272e-08
-3.37914e-07
2.78597e-08
-3.59726e-07
2.94517e-08
-3.8267e-07
3.10101e-08
-4.06683e-07
3.24883e-08
-4.31659e-07
3.38299e-08
-4.57445e-07
3.49684e-08
-4.83828e-07
3.58269e-08
-5.10534e-07
3.63185e-08
-5.37217e-07
3.63473e-08
-5.63457e-07
3.58101e-08
-5.88756e-07
3.45998e-08
-6.12539e-07
3.26093e-08
-6.34157e-07
2.97374e-08
-6.52901e-07
2.58952e-08
-6.68012e-07
2.10101e-08
-6.78696e-07
1.50357e-08
-6.84196e-07
8.01763e-09
-6.83788e-07
-8.92428e-12
-6.76824e-07
-8.94947e-09
-6.62785e-07
-1.86119e-08
-6.41352e-07
-2.8737e-08
-6.12437e-07
-3.90018e-08
-5.76236e-07
-4.90211e-08
-5.33252e-07
-5.83617e-08
-4.84322e-07
-6.65647e-08
-4.30609e-07
-7.3175e-08
-3.73572e-07
-7.77757e-08
-3.14916e-07
-8.00249e-08
-2.56514e-07
-7.96902e-08
-2.00304e-07
-7.66768e-08
-1.48181e-07
-7.10447e-08
-1.01884e-07
-6.30122e-08
-6.28851e-08
-5.29467e-08
-3.22913e-08
-4.13495e-08
-1.07467e-08
-2.88513e-08
1.69409e-09
-1.62569e-08
5.81302e-09
-4.70072e-09
3.71134e-09
3.88406e-09
5.80904e-09
1.09211e-09
-2.34963e-09
2.29684e-09
-3.04882e-09
2.29267e-09
-9.00701e-10
4.48081e-10
2.59395e-09
-3.42274e-09
6.46658e-09
-9.24598e-09
1.0189e-08
-1.6812e-08
1.34952e-08
-2.58552e-08
1.62759e-08
-3.6102e-08
1.85195e-08
-4.72983e-08
2.02705e-08
-5.9224e-08
2.16009e-08
-7.16991e-08
2.25927e-08
-8.4585e-08
2.33267e-08
-9.77818e-08
2.38774e-08
-1.11224e-07
2.43105e-08
-1.24877e-07
2.46822e-08
-1.38731e-07
2.50396e-08
-1.52798e-07
2.54218e-08
-1.67106e-07
2.58611e-08
-1.817e-07
2.63841e-08
-1.96636e-07
2.70136e-08
-2.11981e-07
2.77689e-08
-2.27811e-07
2.86673e-08
-2.44213e-07
2.97242e-08
-2.61279e-07
3.09537e-08
-2.79109e-07
3.23685e-08
-2.97808e-07
3.39797e-08
-3.17487e-07
3.57967e-08
-3.38259e-07
3.78265e-08
-3.60241e-07
4.00727e-08
-3.83546e-07
4.2535e-08
-4.08285e-07
4.52081e-08
-4.34563e-07
4.80801e-08
-4.62471e-07
5.11313e-08
-4.92085e-07
5.43328e-08
-5.23458e-07
5.76444e-08
-5.56611e-07
6.1013e-08
-5.9153e-07
6.43705e-08
-6.28152e-07
6.76317e-08
-6.66356e-07
7.06928e-08
-7.05956e-07
7.34297e-08
-7.46684e-07
7.56969e-08
-7.88186e-07
7.73279e-08
-8.30003e-07
7.8136e-08
-8.71572e-07
7.79168e-08
-9.12216e-07
7.64534e-08
-9.51138e-07
7.35225e-08
-9.87434e-07
6.89046e-08
-1.02009e-06
6.23952e-08
-1.04802e-06
5.38203e-08
-1.07006e-06
4.30503e-08
-1.08501e-06
2.99888e-08
-1.09176e-06
1.47664e-08
-1.08923e-06
-2.53618e-09
-1.07649e-06
-2.16902e-08
-1.05282e-06
-4.22783e-08
-1.01781e-06
-6.375e-08
-9.71388e-07
-8.54254e-08
-9.13907e-07
-1.06502e-07
-8.46186e-07
-1.26083e-07
-7.69525e-07
-1.43226e-07
-6.85698e-07
-1.57002e-07
-5.96913e-07
-1.66561e-07
-5.05732e-07
-1.71206e-07
-4.14957e-07
-1.70465e-07
-3.2749e-07
-1.64144e-07
-2.46168e-07
-1.52367e-07
-1.73598e-07
-1.35582e-07
-1.11991e-07
-1.14554e-07
-6.30038e-08
-9.03369e-08
-2.75813e-08
-6.42737e-08
-5.7618e-09
-3.80765e-08
3.64309e-09
-1.41056e-08
3.58146e-09
3.94569e-09
9.3905e-09
1.04754e-09
-3.39701e-09
1.83208e-09
-3.83335e-09
8.96161e-10
3.51719e-11
-2.44474e-09
5.93482e-09
-8.39842e-09
1.24203e-08
-1.68756e-08
1.86663e-08
-2.76228e-08
2.42424e-08
-4.03125e-08
2.89656e-08
-5.46016e-08
3.28086e-08
-7.01664e-08
3.58353e-08
-8.67228e-08
3.81573e-08
-1.04035e-07
3.99051e-08
-1.21919e-07
4.1211e-08
-1.40241e-07
4.2199e-08
-1.5891e-07
4.29798e-08
-1.77877e-07
4.36491e-08
-1.97126e-07
4.4288e-08
-2.16668e-07
4.4964e-08
-2.3654e-07
4.57333e-08
-2.56799e-07
4.66428e-08
-2.77517e-07
4.77322e-08
-2.98784e-07
4.9036e-08
-3.20701e-07
5.05843e-08
-3.43381e-07
5.24042e-08
-3.66948e-07
5.45201e-08
-3.91533e-07
5.69538e-08
-4.17277e-07
5.9724e-08
-4.44327e-07
6.28461e-08
-4.72831e-07
6.63308e-08
-5.02941e-07
7.01828e-08
-5.34806e-07
7.43997e-08
-5.68567e-07
7.89695e-08
-6.04356e-07
8.3869e-08
-6.42286e-07
8.9061e-08
-6.82445e-07
9.4492e-08
-7.24889e-07
1.00089e-07
-7.69632e-07
1.05756e-07
-8.16633e-07
1.11371e-07
-8.65786e-07
1.16785e-07
-9.16906e-07
1.21814e-07
-9.69719e-07
1.26242e-07
-1.02384e-06
1.29819e-07
-1.07877e-06
1.32258e-07
-1.13388e-06
1.33242e-07
-1.18839e-06
1.32427e-07
-1.24138e-06
1.29451e-07
-1.29181e-06
1.23945e-07
-1.33845e-06
1.15551e-07
-1.38e-06
1.03942e-07
-1.41503e-06
8.88473e-08
-1.44205e-06
7.00753e-08
-1.45959e-06
4.75234e-08
-1.46618e-06
2.1365e-08
-1.46053e-06
-8.19226e-09
-1.44149e-06
-4.07258e-08
-1.40824e-06
-7.553e-08
-1.36031e-06
-1.11681e-07
-1.29769e-06
-1.48042e-07
-1.22091e-06
-1.83284e-07
-1.13106e-06
-2.15935e-07
-1.02983e-06
-2.44454e-07
-9.1951e-07
-2.67325e-07
-8.02904e-07
-2.83166e-07
-6.83265e-07
-2.90845e-07
-5.64139e-07
-2.89591e-07
-4.49196e-07
-2.79087e-07
-3.42034e-07
-2.59529e-07
-2.45963e-07
-2.31653e-07
-1.63797e-07
-1.9672e-07
-9.76442e-08
-1.56489e-07
-4.87032e-08
-1.13215e-07
-1.70172e-08
-6.97625e-08
-1.13708e-09
-2.99858e-08
2.37846e-09
4.3015e-10
1.1769e-08
8.07585e-10
-4.20433e-09
8.39906e-10
-3.86562e-09
-1.36193e-09
2.23692e-09
-6.494e-09
1.10668e-08
-1.47612e-08
2.06874e-08
-2.60532e-08
2.99582e-08
-4.00777e-08
3.82669e-08
-5.64561e-08
4.5344e-08
-7.47872e-08
5.11397e-08
-9.46888e-08
5.5737e-08
-1.15822e-07
5.92903e-08
-1.37902e-07
6.19857e-08
-1.60707e-07
6.40151e-08
-1.84068e-07
6.55605e-08
-2.07875e-07
6.67864e-08
-2.32062e-07
6.78364e-08
-2.56606e-07
6.88325e-08
-2.8152e-07
6.98777e-08
-3.06845e-07
7.10578e-08
-3.32647e-07
7.24449e-08
-3.59015e-07
7.41004e-08
-3.86056e-07
7.60773e-08
-4.13894e-07
7.84222e-08
-4.42667e-07
8.11767e-08
-4.72525e-07
8.4378e-08
-5.03629e-07
8.80586e-08
-5.36152e-07
9.22465e-08
-5.70269e-07
9.69635e-08
-6.06163e-07
1.02224e-07
-6.44013e-07
1.08033e-07
-6.83998e-07
1.14384e-07
-7.26283e-07
1.21255e-07
-7.71022e-07
1.28607e-07
-8.1834e-07
1.36379e-07
-8.68332e-07
1.44484e-07
-9.21049e-07
1.52806e-07
-9.76486e-07
1.61193e-07
-1.03457e-06
1.69456e-07
-1.09515e-06
1.77361e-07
-1.15796e-06
1.84628e-07
-1.22265e-06
1.90925e-07
-1.2887e-06
1.95872e-07
-1.35548e-06
1.99038e-07
-1.42219e-06
1.99949e-07
-1.48785e-06
1.98095e-07
-1.55135e-06
1.92945e-07
-1.61137e-06
1.83963e-07
-1.66645e-06
1.70638e-07
-1.71502e-06
1.52508e-07
-1.75537e-06
1.29203e-07
-1.78578e-06
1.00478e-07
-1.8045e-06
6.62472e-08
-1.80987e-06
2.67351e-08
-1.80039e-06
-1.76761e-08
-1.7748e-06
-6.63119e-08
-1.73221e-06
-1.18123e-07
-1.67214e-06
-1.71746e-07
-1.59467e-06
-2.2551e-07
-1.50048e-06
-2.77478e-07
-1.3909e-06
-3.25519e-07
-1.26794e-06
-3.67408e-07
-1.13431e-06
-4.00961e-07
-9.93282e-07
-4.2419e-07
-8.48663e-07
-4.35464e-07
-7.04588e-07
-4.33666e-07
-5.65345e-07
-4.1833e-07
-4.35144e-07
-3.89729e-07
-3.17875e-07
-3.48922e-07
-2.16852e-07
-2.97742e-07
-1.34574e-07
-2.38768e-07
-7.24691e-08
-1.7532e-07
-3.0633e-08
-1.11599e-07
-7.50083e-09
-5.3118e-08
5.65598e-10
-7.63628e-09
1.23346e-08
4.3212e-10
-4.63631e-09
-5.4366e-10
-2.88981e-09
-4.2969e-09
5.99012e-09
-1.1485e-08
1.82549e-08
-2.22853e-08
3.14877e-08
-3.65562e-08
4.4229e-08
-5.39664e-08
5.56771e-08
-7.40914e-08
6.5469e-08
-9.64803e-08
7.35287e-08
-1.20701e-07
7.99578e-08
-1.46368e-07
8.4957e-08
-1.73155e-07
8.87729e-08
-2.00803e-07
9.16634e-08
-2.29119e-07
9.38761e-08
-2.57969e-07
9.56364e-08
-2.87275e-07
9.71424e-08
-3.17007e-07
9.85644e-08
-3.47175e-07
1.00046e-07
-3.77825e-07
1.01708e-07
-4.09033e-07
1.03653e-07
-4.409e-07
1.05967e-07
-4.73549e-07
1.08726e-07
-5.07124e-07
1.11997e-07
-5.41784e-07
1.15837e-07
-5.77704e-07
1.20298e-07
-6.15072e-07
1.25427e-07
-6.54086e-07
1.3126e-07
-6.94949e-07
1.37827e-07
-7.3787e-07
1.45145e-07
-7.83055e-07
1.53219e-07
-8.30705e-07
1.62034e-07
-8.81005e-07
1.71555e-07
-9.34121e-07
1.81723e-07
-9.90187e-07
1.92445e-07
-1.0493e-06
2.03594e-07
-1.11149e-06
2.14999e-07
-1.17674e-06
2.26442e-07
-1.24493e-06
2.37648e-07
-1.31586e-06
2.48286e-07
-1.38918e-06
2.57957e-07
-1.46446e-06
2.66196e-07
-1.54106e-06
2.72472e-07
-1.61821e-06
2.76188e-07
-1.69495e-06
2.7669e-07
-1.77014e-06
2.73285e-07
-1.84245e-06
2.65253e-07
-1.91036e-06
2.51879e-07
-1.97221e-06
2.32489e-07
-2.02619e-06
2.06485e-07
-2.07039e-06
1.734e-07
-2.10286e-06
1.32949e-07
-2.12169e-06
8.50811e-08
-2.12506e-06
3.01019e-08
-2.11133e-06
-3.14013e-08
-2.07919e-06
-9.84543e-08
-2.02769e-06
-1.69619e-07
-1.9564e-06
-2.43038e-07
-1.86546e-06
-3.16452e-07
-1.75568e-06
-3.87259e-07
-1.62859e-06
-4.52605e-07
-1.48648e-06
-5.09522e-07
-1.33234e-06
-5.55099e-07
-1.16985e-06
-5.86684e-07
-1.00322e-06
-6.02093e-07
-8.37061e-07
-5.99823e-07
-6.76163e-07
-5.79228e-07
-5.25238e-07
-5.40654e-07
-3.88661e-07
-4.855e-07
-2.7018e-07
-4.16223e-07
-1.72642e-07
-3.36306e-07
-9.77112e-08
-2.50251e-07
-4.55938e-08
-1.63716e-07
-1.47434e-08
-8.39683e-08
-1.559e-09
-2.08207e-08
1.07756e-08
-4.78101e-11
-4.58829e-09
-2.22699e-09
-7.10568e-10
-7.76632e-09
1.15294e-08
-1.72417e-08
2.77302e-08
-3.07764e-08
4.50223e-08
-4.8184e-08
6.16366e-08
-6.90904e-08
7.65835e-08
-9.3027e-08
8.94056e-08
-1.19499e-07
1e-07
-1.4803e-07
1.08489e-07
-1.78194e-07
1.15121e-07
-2.09631e-07
1.20209e-07
-2.42049e-07
1.24082e-07
-2.75231e-07
1.27058e-07
-3.09025e-07
1.2943e-07
-3.4334e-07
1.31458e-07
-3.7814e-07
1.33364e-07
-4.13433e-07
1.35339e-07
-4.49269e-07
1.37543e-07
-4.85729e-07
1.40113e-07
-5.22927e-07
1.43165e-07
-5.61e-07
1.46799e-07
-6.00108e-07
1.51105e-07
-6.40432e-07
1.5616e-07
-6.82166e-07
1.62033e-07
-7.25522e-07
1.68783e-07
-7.70721e-07
1.76458e-07
-8.17989e-07
1.85095e-07
-8.67558e-07
1.94714e-07
-9.19655e-07
2.05316e-07
-9.74498e-07
2.16877e-07
-1.03229e-06
2.29345e-07
-1.0932e-06
2.42633e-07
-1.15737e-06
2.56613e-07
-1.22488e-06
2.71105e-07
-1.29575e-06
2.85876e-07
-1.36994e-06
3.00626e-07
-1.44728e-06
3.14987e-07
-1.5275e-06
3.2851e-07
-1.61021e-06
3.40663e-07
-1.69484e-06
3.5083e-07
-1.78068e-06
3.58309e-07
-1.86681e-06
3.6232e-07
-1.95214e-06
3.62017e-07
-2.03535e-06
3.56503e-07
-2.11496e-06
3.44863e-07
-2.18928e-06
3.26194e-07
-2.25644e-06
2.99654e-07
-2.31447e-06
2.64514e-07
-2.3613e-06
2.20222e-07
-2.39481e-06
1.66465e-07
-2.41297e-06
1.03244e-07
-2.41385e-06
3.0979e-08
-2.39574e-06
-4.95131e-08
-2.35727e-06
-1.36925e-07
-2.2975e-06
-2.29393e-07
-2.216e-06
-3.2453e-07
-2.113e-06
-4.19452e-07
-1.98941e-06
-5.10849e-07
-1.84691e-06
-5.95106e-07
-1.68797e-06
-6.68468e-07
-1.51581e-06
-7.27252e-07
-1.33441e-06
-7.68091e-07
-1.14829e-06
-7.88206e-07
-9.62456e-07
-7.8566e-07
-7.82085e-07
-7.59599e-07
-6.12322e-07
-7.10417e-07
-4.57963e-07
-6.3986e-07
-3.23148e-07
-5.51037e-07
-2.11058e-07
-4.48396e-07
-1.23611e-07
-3.37697e-07
-6.11893e-08
-2.26138e-07
-2.23822e-08
-1.22775e-07
-3.80302e-09
-3.93999e-08
6.97254e-09
-5.92544e-10
-3.99563e-09
-4.13338e-09
2.83029e-09
-1.16547e-08
1.90507e-08
-2.36174e-08
3.96928e-08
-4.00669e-08
6.14719e-08
-6.07583e-08
8.2328e-08
-8.5268e-08
1.01093e-07
-1.13083e-07
1.1722e-07
-1.43666e-07
1.30583e-07
-1.76503e-07
1.41326e-07
-2.11133e-07
1.49751e-07
-2.47163e-07
1.56239e-07
-2.84276e-07
1.61195e-07
-3.22233e-07
1.65015e-07
-3.60866e-07
1.68064e-07
-4.00074e-07
1.70666e-07
-4.39812e-07
1.73103e-07
-4.80089e-07
1.75616e-07
-5.20955e-07
1.78409e-07
-5.62499e-07
1.81658e-07
-6.04844e-07
1.8551e-07
-6.4814e-07
1.90095e-07
-6.92561e-07
1.95527e-07
-7.38306e-07
2.01904e-07
-7.85588e-07
2.09315e-07
-8.34637e-07
2.17832e-07
-8.85695e-07
2.27516e-07
-9.3901e-07
2.3841e-07
-9.94829e-07
2.50534e-07
-1.0534e-06
2.63885e-07
-1.11495e-06
2.78427e-07
-1.17969e-06
2.94087e-07
-1.2478e-06
3.10744e-07
-1.31941e-06
3.28225e-07
-1.3946e-06
3.46294e-07
-1.47337e-06
3.64643e-07
-1.55563e-06
3.82881e-07
-1.64117e-06
4.0053e-07
-1.72967e-06
4.17011e-07
-1.82065e-06
4.31647e-07
-1.91348e-06
4.43653e-07
-2.00731e-06
4.52144e-07
-2.10113e-06
4.56142e-07
-2.19371e-06
4.54595e-07
-2.2836e-06
4.46397e-07
-2.36917e-06
4.30428e-07
-2.44857e-06
4.05597e-07
-2.51982e-06
3.70899e-07
-2.58078e-06
3.25479e-07
-2.62927e-06
2.68711e-07
-2.66308e-06
2.00272e-07
-2.68006e-06
1.20231e-07
-2.67823e-06
2.91475e-08
-2.65584e-06
-7.19107e-08
-2.61148e-06
-1.81282e-07
-2.54422e-06
-2.96655e-07
-2.45366e-06
-4.1509e-07
-2.34005e-06
-5.33055e-07
-2.20439e-06
-6.46513e-07
-2.04843e-06
-7.5106e-07
-1.87478e-06
-8.42122e-07
-1.68683e-06
-9.15206e-07
-1.48873e-06
-9.66193e-07
-1.28528e-06
-9.91655e-07
-1.08176e-06
-9.89181e-07
-8.83695e-07
-9.57658e-07
-6.96609e-07
-8.97504e-07
-5.25674e-07
-8.10794e-07
-3.75406e-07
-7.01305e-07
-2.49322e-07
-5.74479e-07
-1.4963e-07
-4.3739e-07
-7.69481e-08
-2.98819e-07
-3.01038e-08
-1.6962e-07
-6.04715e-09
-6.34566e-08
9.25398e-10
-1.19213e-09
-2.80334e-09
-6.21252e-09
7.85074e-09
-1.58741e-08
2.87122e-08
-3.04936e-08
5.43123e-08
-5.00163e-08
8.09945e-08
-7.41241e-08
1.06436e-07
-1.02336e-07
1.29306e-07
-1.34093e-07
1.48977e-07
-1.68816e-07
1.65307e-07
-2.05956e-07
1.78466e-07
-2.45019e-07
1.88814e-07
-2.85585e-07
1.96805e-07
-3.27316e-07
2.02926e-07
-3.69953e-07
2.07652e-07
-4.13314e-07
2.11425e-07
-4.57288e-07
2.14639e-07
-5.01826e-07
2.1764e-07
-5.46932e-07
2.20722e-07
-5.92661e-07
2.24138e-07
-6.39107e-07
2.28104e-07
-6.864e-07
2.32803e-07
-7.34701e-07
2.38396e-07
-7.84198e-07
2.45024e-07
-8.35104e-07
2.5281e-07
-8.87649e-07
2.6186e-07
-9.4208e-07
2.72263e-07
-9.98655e-07
2.84091e-07
-1.05764e-06
2.97393e-07
-1.11929e-06
3.1219e-07
-1.18388e-06
3.2847e-07
-1.25164e-06
3.46183e-07
-1.32278e-06
3.65229e-07
-1.39748e-06
3.85449e-07
-1.47588e-06
4.0662e-07
-1.55802e-06
4.28437e-07
-1.64389e-06
4.50511e-07
-1.73336e-06
4.72349e-07
-1.82618e-06
4.9335e-07
-1.92196e-06
5.12798e-07
-2.02017e-06
5.29851e-07
-2.12006e-06
5.43548e-07
-2.22073e-06
5.52809e-07
-2.32103e-06
5.56449e-07
-2.41964e-06
5.532e-07
-2.51499e-06
5.41745e-07
-2.60532e-06
5.20758e-07
-2.68868e-06
4.88962e-07
-2.76298e-06
4.45194e-07
-2.82599e-06
3.88486e-07
-2.87542e-06
3.18148e-07
-2.90902e-06
2.33865e-07
-2.92457e-06
1.35785e-07
-2.92005e-06
2.46283e-08
-2.89369e-06
-9.82743e-08
-2.84407e-06
-2.30897e-07
-2.77026e-06
-3.7047e-07
-2.67185e-06
-5.13494e-07
-2.54913e-06
-6.55781e-07
-2.40309e-06
-7.92554e-07
-2.23554e-06
-9.18609e-07
-2.04913e-06
-1.02853e-06
-1.84735e-06
-1.11698e-06
-1.63449e-06
-1.17905e-06
-1.41553e-06
-1.21062e-06
-1.19598e-06
-1.20873e-06
-9.81678e-07
-1.17196e-06
-7.78463e-07
-1.10072e-06
-5.91884e-07
-9.97373e-07
-4.26829e-07
-8.6636e-07
-2.87173e-07
-7.14135e-07
-1.75451e-07
-5.49112e-07
-9.25857e-08
-3.81684e-07
-3.77211e-08
-2.24484e-07
-8.22351e-09
-9.29542e-08
-7.29812e-09
-1.82652e-09
-9.76742e-10
-8.41961e-09
1.44439e-08
-2.03517e-08
4.06442e-08
-3.77715e-08
7.17322e-08
-6.05047e-08
1.03728e-07
-8.81465e-08
1.34077e-07
-1.20151e-07
1.6131e-07
-1.55907e-07
1.84733e-07
-1.94795e-07
2.04195e-07
-2.36231e-07
2.19902e-07
-2.79693e-07
2.32276e-07
-3.24738e-07
2.4185e-07
-3.71005e-07
2.49194e-07
-4.18222e-07
2.54868e-07
-4.66193e-07
2.59396e-07
-5.14799e-07
2.63245e-07
-5.63986e-07
2.66827e-07
-6.13757e-07
2.70494e-07
-6.64169e-07
2.7455e-07
-7.1532e-07
2.79254e-07
-7.67346e-07
2.84829e-07
-8.2042e-07
2.9147e-07
-8.7474e-07
2.99344e-07
-9.3053e-07
3.08601e-07
-9.88037e-07
3.19366e-07
-1.04752e-06
3.31746e-07
-1.10925e-06
3.45824e-07
-1.17351e-06
3.61652e-07
-1.24057e-06
3.79251e-07
-1.3107e-06
3.98601e-07
-1.38415e-06
4.1963e-07
-1.46113e-06
4.42208e-07
-1.54182e-06
4.66135e-07
-1.62632e-06
4.91127e-07
-1.71469e-06
5.16807e-07
-1.80687e-06
5.42693e-07
-1.90271e-06
5.68181e-07
-2.0019e-06
5.92541e-07
-2.104e-06
6.14903e-07
-2.20841e-06
6.34257e-07
-2.31431e-06
6.49453e-07
-2.42071e-06
6.59209e-07
-2.52639e-06
6.62126e-07
-2.62991e-06
6.5672e-07
-2.72963e-06
6.4146e-07
-2.82368e-06
6.14817e-07
-2.91006e-06
5.75334e-07
-2.98656e-06
5.21701e-07
-3.05093e-06
4.52847e-07
-3.10081e-06
3.68033e-07
-3.13391e-06
2.6696e-07
-3.14799e-06
1.4987e-07
-3.14101e-06
1.76513e-08
-3.11119e-06
-1.28096e-07
-3.05711e-06
-2.84984e-07
-2.97779e-06
-4.49785e-07
-2.87284e-06
-6.18444e-07
-2.7425e-06
-7.86124e-07
-2.58774e-06
-9.4731e-07
-2.41036e-06
-1.09599e-06
-2.21301e-06
-1.22589e-06
-1.99919e-06
-1.3308e-06
-1.77327e-06
-1.40497e-06
-1.54036e-06
-1.44353e-06
-1.30616e-06
-1.44292e-06
-1.07678e-06
-1.40135e-06
-8.5836e-07
-1.31913e-06
-6.56831e-07
-1.1989e-06
-4.77466e-07
-1.04573e-06
-3.2453e-07
-8.67072e-07
-2.00932e-07
-6.7271e-07
-1.07961e-07
-4.74655e-07
-4.51409e-08
-2.87304e-07
-1.03009e-08
-1.27794e-07
-1.75991e-08
-2.48846e-09
1.51184e-09
-1.07268e-08
2.26822e-08
-2.50337e-08
5.49511e-08
-4.53724e-08
9.20709e-08
-7.14324e-08
1.29788e-07
-1.02709e-07
1.65354e-07
-1.38583e-07
1.97184e-07
-1.78387e-07
2.24537e-07
-2.21459e-07
2.47267e-07
-2.67182e-07
2.65625e-07
-3.15006e-07
2.801e-07
-3.64465e-07
2.91309e-07
-4.15183e-07
2.99912e-07
-4.66872e-07
3.06557e-07
-5.19328e-07
3.11851e-07
-5.72423e-07
3.16341e-07
-6.261e-07
3.20504e-07
-6.80361e-07
3.24756e-07
-7.35263e-07
3.29452e-07
-7.90909e-07
3.349e-07
-8.47442e-07
3.41362e-07
-9.05041e-07
3.49068e-07
-9.63915e-07
3.58218e-07
-1.0243e-06
3.68985e-07
-1.08645e-06
3.81517e-07
-1.15064e-06
3.95937e-07
-1.21716e-06
4.12338e-07
-1.28628e-06
4.30778e-07
-1.3583e-06
4.51273e-07
-1.43349e-06
4.73792e-07
-1.5121e-06
4.98239e-07
-1.59435e-06
5.24451e-07
-1.68039e-06
5.52177e-07
-1.77033e-06
5.81072e-07
-1.8642e-06
6.10676e-07
-1.96192e-06
6.40407e-07
-2.06328e-06
6.69543e-07
-2.16795e-06
6.97214e-07
-2.27544e-06
7.22393e-07
-2.38507e-06
7.4389e-07
-2.49598e-06
7.60361e-07
-2.60709e-06
7.70317e-07
-2.71711e-06
7.72146e-07
-2.82454e-06
7.64146e-07
-2.92765e-06
7.44575e-07
-3.02454e-06
7.11709e-07
-3.11313e-06
6.63918e-07
-3.19118e-06
5.99758e-07
-3.2564e-06
5.18063e-07
-3.30642e-06
4.18058e-07
-3.33893e-06
2.99469e-07
-3.3517e-06
1.62637e-07
-3.34267e-06
8.62185e-09
-3.31005e-06
-1.60714e-07
-3.25241e-06
-3.42628e-07
-3.16874e-06
-5.33452e-07
-3.0586e-06
-7.2859e-07
-2.92215e-06
-9.2257e-07
-2.76031e-06
-1.10915e-06
-2.57479e-06
-1.28151e-06
-2.36817e-06
-1.4325e-06
-2.14394e-06
-1.55503e-06
-1.90648e-06
-1.64244e-06
-1.66097e-06
-1.68904e-06
-1.41328e-06
-1.69061e-06
-1.16974e-06
-1.64489e-06
-9.36838e-07
-1.55204e-06
-7.20857e-07
-1.41488e-06
-5.27496e-07
-1.23909e-06
-3.61452e-07
-1.03312e-06
-2.26062e-07
-8.08099e-07
-1.23038e-07
-5.7768e-07
-5.23368e-08
-3.58005e-07
-1.22733e-08
-1.67858e-07
-2.98724e-08
-3.16769e-09
4.67958e-09
-1.31071e-08
3.26216e-08
-2.98734e-08
7.17174e-08
-5.32293e-08
1.15427e-07
-8.27138e-08
1.59272e-07
-1.17711e-07
2.00351e-07
-1.57519e-07
2.36992e-07
-2.01411e-07
2.68428e-07
-2.48679e-07
2.94535e-07
-2.98671e-07
3.15617e-07
-3.50813e-07
3.32242e-07
-4.04619e-07
3.45115e-07
-4.59695e-07
3.54989e-07
-5.15744e-07
3.62605e-07
-5.72551e-07
3.68659e-07
-6.29984e-07
3.73774e-07
-6.87982e-07
3.78502e-07
-7.46547e-07
3.8332e-07
-8.05736e-07
3.88641e-07
-8.65655e-07
3.94819e-07
-9.26454e-07
4.02161e-07
-9.88317e-07
4.10932e-07
-1.05146e-06
4.21364e-07
-1.11614e-06
4.33657e-07
-1.1826e-06
4.47982e-07
-1.25114e-06
4.64476e-07
-1.32205e-06
4.83245e-07
-1.39562e-06
5.04348e-07
-1.47214e-06
5.27797e-07
-1.55189e-06
5.53546e-07
-1.63513e-06
5.81473e-07
-1.72205e-06
6.11374e-07
-1.81282e-06
6.42948e-07
-1.90753e-06
6.75777e-07
-2.00617e-06
7.09317e-07
-2.10864e-06
7.42878e-07
-2.21471e-06
7.75613e-07
-2.324e-06
8.06505e-07
-2.43597e-06
8.34362e-07
-2.54989e-06
8.57814e-07
-2.66485e-06
8.75319e-07
-2.77971e-06
8.85178e-07
-2.89313e-06
8.85567e-07
-3.00356e-06
8.7457e-07
-3.10922e-06
8.50241e-07
-3.20818e-06
8.10669e-07
-3.29833e-06
7.54064e-07
-3.37742e-06
6.78855e-07
-3.44316e-06
5.83795e-07
-3.49318e-06
4.6808e-07
-3.52518e-06
3.31468e-07
-3.53693e-06
1.74393e-07
-3.5264e-06
-1.91465e-09
-3.49177e-06
-1.95344e-07
-3.43157e-06
-4.02822e-07
-3.34477e-06
-6.20259e-07
-3.23081e-06
-8.42548e-07
-3.08977e-06
-1.0636e-06
-2.92245e-06
-1.27648e-06
-2.73041e-06
-1.47354e-06
-2.51613e-06
-1.64678e-06
-2.283e-06
-1.78816e-06
-2.03537e-06
-1.89007e-06
-1.77845e-06
-1.94595e-06
-1.51825e-06
-1.95081e-06
-1.26132e-06
-1.90182e-06
-1.01446e-06
-1.7989e-06
-7.84367e-07
-1.64498e-06
-5.77186e-07
-1.44627e-06
-3.98098e-07
-1.21221e-06
-2.50925e-07
-9.55271e-07
-1.37857e-07
-6.90748e-07
-5.93296e-08
-4.36533e-07
-1.4151e-08
-2.13036e-07
-4.40234e-08
-3.86159e-09
8.54125e-09
-1.55456e-08
4.43057e-08
-3.48378e-08
9.10096e-08
-6.12899e-08
1.41879e-07
-9.42783e-08
1.92261e-07
-1.33065e-07
2.39139e-07
-1.7686e-07
2.80786e-07
-2.24867e-07
3.16436e-07
-2.76334e-07
3.46001e-07
-3.30572e-07
3.69855e-07
-3.86982e-07
3.88652e-07
-4.45058e-07
4.03191e-07
-5.04395e-07
4.14325e-07
-5.64682e-07
4.22893e-07
-6.25701e-07
4.29677e-07
-6.87312e-07
4.35385e-07
-7.49452e-07
4.40642e-07
-8.12124e-07
4.45992e-07
-8.75385e-07
4.51902e-07
-9.39345e-07
4.58779e-07
-1.00416e-06
4.66973e-07
-1.07001e-06
4.76787e-07
-1.13714e-06
4.88487e-07
-1.20578e-06
5.02298e-07
-1.27621e-06
5.18415e-07
-1.34873e-06
5.36992e-07
-1.42362e-06
5.58142e-07
-1.5012e-06
5.81927e-07
-1.58176e-06
6.08353e-07
-1.66557e-06
6.37354e-07
-1.75288e-06
6.68782e-07
-1.84389e-06
7.02388e-07
-1.93875e-06
7.37813e-07
-2.03754e-06
7.74566e-07
-2.14023e-06
8.12009e-07
-2.2467e-06
8.4934e-07
-2.35667e-06
8.85583e-07
-2.46973e-06
9.1957e-07
-2.58531e-06
9.49941e-07
-2.70264e-06
9.75141e-07
-2.82075e-06
9.93429e-07
-2.93847e-06
1.0029e-06
-3.05443e-06
1.00152e-06
-3.16704e-06
9.87176e-07
-3.27451e-06
9.57714e-07
-3.37489e-06
9.11051e-07
-3.46608e-06
8.45249e-07
-3.54584e-06
7.58619e-07
-3.61189e-06
6.49844e-07
-3.6619e-06
5.18095e-07
-3.6936e-06
3.6316e-07
-3.70477e-06
1.85564e-07
-3.69337e-06
-1.33084e-08
-3.6576e-06
-2.3112e-07
-3.59593e-06
-4.64493e-07
-3.50723e-06
-7.08954e-07
-3.39086e-06
-9.58917e-07
-3.24675e-06
-1.20772e-06
-3.0755e-06
-1.44773e-06
-2.87852e-06
-1.67052e-06
-2.65811e-06
-1.8672e-06
-2.4175e-06
-2.02876e-06
-2.16097e-06
-2.14661e-06
-1.89373e-06
-2.21319e-06
-1.62188e-06
-2.22265e-06
-1.35219e-06
-2.17152e-06
-1.09179e-06
-2.0593e-06
-8.47796e-07
-1.88897e-06
-6.26858e-07
-1.66721e-06
-4.34692e-07
-1.40437e-06
-2.7567e-07
-1.11429e-06
-1.52512e-07
-8.13905e-07
-6.61714e-08
-5.22874e-07
-1.59543e-08
-2.63253e-07
-5.99777e-08
-4.56395e-09
1.31052e-08
-1.80256e-08
5.77673e-08
-3.98966e-08
1.12881e-07
-6.95082e-08
1.7149e-07
-1.06064e-07
2.28817e-07
-1.48697e-07
2.81771e-07
-1.96516e-07
3.28605e-07
-2.48657e-07
3.68577e-07
-3.04315e-07
4.01659e-07
-3.62767e-07
4.28307e-07
-4.23386e-07
4.49271e-07
-4.85651e-07
4.65455e-07
-5.49142e-07
4.77816e-07
-6.1354e-07
4.87292e-07
-6.78621e-07
4.94758e-07
-7.44242e-07
5.01006e-07
-8.10339e-07
5.06738e-07
-8.76911e-07
5.12564e-07
-9.4402e-07
5.19011e-07
-1.01178e-06
5.26536e-07
-1.08034e-06
5.35535e-07
-1.1499e-06
5.4635e-07
-1.2207e-06
5.5928e-07
-1.29298e-06
5.74579e-07
-1.36702e-06
5.92462e-07
-1.44313e-06
6.131e-07
-1.5216e-06
6.36615e-07
-1.60275e-06
6.6307e-07
-1.68685e-06
6.92461e-07
-1.7742e-06
7.24702e-07
-1.86503e-06
7.59612e-07
-1.95954e-06
7.96898e-07
-2.05787e-06
8.36137e-07
-2.16006e-06
8.76761e-07
-2.26609e-06
9.18033e-07
-2.37578e-06
9.59039e-07
-2.48887e-06
9.98665e-07
-2.60489e-06
1.03559e-06
-2.72324e-06
1.06829e-06
-2.84312e-06
1.09502e-06
-2.96354e-06
1.11385e-06
-3.0833e-06
1.12266e-06
-3.20101e-06
1.11923e-06
-3.31507e-06
1.10124e-06
-3.4237e-06
1.06635e-06
-3.52497e-06
1.01231e-06
-3.61677e-06
9.37058e-07
-3.69694e-06
8.38788e-07
-3.76322e-06
7.1612e-07
-3.81333e-06
5.68201e-07
-3.84501e-06
3.94847e-07
-3.85611e-06
1.96661e-07
-3.84458e-06
-2.48407e-08
-3.80858e-06
-2.67122e-07
-3.74653e-06
-5.26538e-07
-3.65721e-06
-7.98271e-07
-3.53983e-06
-1.0763e-06
-3.39413e-06
-1.35342e-06
-3.22049e-06
-1.62136e-06
-3.02011e-06
-1.87091e-06
-2.79503e-06
-2.09228e-06
-2.54833e-06
-2.27546e-06
-2.28411e-06
-2.41083e-06
-2.00756e-06
-2.48974e-06
-1.72486e-06
-2.50536e-06
-1.44296e-06
-2.45341e-06
-1.16934e-06
-2.33291e-06
-9.11576e-07
-2.14673e-06
-6.76857e-07
-1.90192e-06
-4.715e-07
-1.60973e-06
-3.00485e-07
-1.28531e-06
-1.67128e-07
-9.47262e-07
-7.29336e-08
-6.17069e-07
-1.77093e-08
-3.18478e-07
-7.7687e-08
-5.27447e-09
1.83797e-08
-2.05391e-08
7.3032e-08
-4.50294e-08
1.37371e-07
-7.78494e-08
2.0431e-07
-1.18022e-07
2.6899e-07
-1.6454e-07
3.28288e-07
-2.16409e-07
3.80475e-07
-2.7269e-07
4.24858e-07
-3.32523e-07
4.61492e-07
-3.95147e-07
4.90931e-07
-4.5991e-07
5.14034e-07
-5.26272e-07
5.31818e-07
-5.93804e-07
5.45348e-07
-6.62178e-07
5.55666e-07
-7.31165e-07
5.63744e-07
-8.0062e-07
5.70461e-07
-8.70476e-07
5.76595e-07
-9.40735e-07
5.82823e-07
-1.01146e-06
5.89734e-07
-1.08276e-06
5.97837e-07
-1.1548e-06
6.07574e-07
-1.22777e-06
6.19326e-07
-1.30192e-06
6.33426e-07
-1.3775e-06
6.50157e-07
-1.45479e-06
6.69756e-07
-1.5341e-06
6.92408e-07
-1.61573e-06
7.18242e-07
-1.69998e-06
7.47322e-07
-1.78715e-06
7.79633e-07
-1.87751e-06
8.15065e-07
-1.97131e-06
8.53404e-07
-2.06871e-06
8.94306e-07
-2.16986e-06
9.37285e-07
-2.27479e-06
9.81689e-07
-2.38344e-06
1.02668e-06
-2.49563e-06
1.07123e-06
-2.61106e-06
1.11409e-06
-2.72925e-06
1.15378e-06
-2.84956e-06
1.18861e-06
-2.97119e-06
1.21665e-06
-3.09313e-06
1.23578e-06
-3.21416e-06
1.2437e-06
-3.3329e-06
1.23797e-06
-3.44777e-06
1.2161e-06
-3.55699e-06
1.17558e-06
-3.65868e-06
1.114e-06
-3.75079e-06
1.02917e-06
-3.83119e-06
9.19187e-07
-3.89768e-06
7.82615e-07
-3.94806e-06
6.18574e-07
-3.98011e-06
4.26896e-07
-3.99169e-06
2.08243e-07
-3.98077e-06
-3.57582e-08
-3.94548e-06
-3.02411e-07
-3.88417e-06
-5.87848e-07
-3.79549e-06
-8.86953e-07
-3.67847e-06
-1.19332e-06
-3.53263e-06
-1.49926e-06
-3.35812e-06
-1.79586e-06
-3.15584e-06
-2.0732e-06
-2.92755e-06
-2.32056e-06
-2.67609e-06
-2.52693e-06
-2.40538e-06
-2.68154e-06
-2.12052e-06
-2.7746e-06
-1.82772e-06
-2.79816e-06
-1.53413e-06
-2.747e-06
-1.24758e-06
-2.61947e-06
-9.76116e-07
-2.4182e-06
-7.27529e-07
-2.15051e-06
-5.08797e-07
-1.82846e-06
-3.25581e-07
-1.46852e-06
-1.81849e-07
-1.09099e-06
-7.96982e-08
-7.1922e-07
-1.94443e-08
-3.78731e-07
-9.71313e-08
-5.98883e-09
2.43686e-08
-2.30752e-08
9.01183e-08
-5.02159e-08
1.64512e-07
-8.62815e-08
2.40376e-07
-1.30107e-07
3.12815e-07
-1.80538e-07
3.7872e-07
-2.36472e-07
4.36408e-07
-2.96887e-07
4.85273e-07
-3.60867e-07
5.25472e-07
-4.27612e-07
5.57676e-07
-4.96444e-07
5.82866e-07
-5.66806e-07
6.0218e-07
-6.38258e-07
6.16799e-07
-7.10465e-07
6.27873e-07
-7.83193e-07
6.36473e-07
-8.56297e-07
6.43565e-07
-9.29709e-07
6.50007e-07
-1.00343e-06
6.56545e-07
-1.07752e-06
6.63828e-07
-1.15211e-06
6.7242e-07
-1.22734e-06
6.82807e-07
-1.30343e-06
6.95412e-07
-1.3806e-06
7.10601e-07
-1.45913e-06
7.28684e-07
-1.53929e-06
7.49921e-07
-1.6214e-06
7.74512e-07
-1.70575e-06
8.02592e-07
-1.79265e-06
8.34222e-07
-1.88239e-06
8.69375e-07
-1.97524e-06
9.07917e-07
-2.07143e-06
9.49596e-07
-2.17114e-06
9.94016e-07
-2.27448e-06
1.04062e-06
-2.38148e-06
1.08868e-06
-2.49205e-06
1.13726e-06
-2.60601e-06
1.18519e-06
-2.72303e-06
1.23111e-06
-2.84262e-06
1.27337e-06
-2.96414e-06
1.31013e-06
-3.08675e-06
1.33927e-06
-3.20946e-06
1.35849e-06
-3.33106e-06
1.3653e-06
-3.45017e-06
1.35709e-06
-3.56525e-06
1.33118e-06
-3.67458e-06
1.2849e-06
-3.7763e-06
1.21573e-06
-3.86846e-06
1.12132e-06
-3.94897e-06
9.99706e-07
-4.01574e-06
8.49379e-07
-4.0666e-06
6.69433e-07
-4.09941e-06
4.59703e-07
-4.11205e-06
2.2089e-07
-4.10251e-06
-4.53051e-08
-4.06885e-06
-3.36063e-07
-4.00936e-06