/*--------------------------------*- C++ -*----------------------------------*\
  =========                 |
  \\      /  F ield         | OpenFOAM: The Open Source CFD Toolbox
   \\    /   O peration     | Website:  https://openfoam.org
    \\  /    A nd           | Version:  12
     \\/     M anipulation  |
\*---------------------------------------------------------------------------*/
FoamFile
{
    format      ascii;
    class       volScalarField;
    location    "0.5";
    object      epsilon;
}
// * * * * * * * * * * * * * * * * * * * * * * * * * * * * * * * * * * * * * //

dimensions      [0 2 -3 0 0 0 0];

internalField   nonuniform List<scalar> 
5625
(
3.10466e-05
5.86178e-05
0.000124167
0.000202297
0.000290168
0.000385625
0.000487091
0.000593344
0.000703379
0.000816327
0.000931413
0.00104793
0.00116521
0.00128263
0.00139962
0.00151562
0.0016301
0.00174256
0.00185252
0.00195952
0.00206314
0.00216296
0.00225861
0.00234972
0.00243595
0.00251699
0.00259255
0.00266234
0.00272614
0.00278372
0.00283488
0.00287945
0.00291728
0.00294824
0.00297223
0.00298918
0.00299903
0.00300176
0.00299735
0.00298584
0.00296725
0.00294166
0.00290917
0.00286988
0.00282393
0.00277148
0.00271272
0.00264786
0.00257713
0.00250078
0.00241908
0.00233233
0.00224086
0.002145
0.00204511
0.00194158
0.00183482
0.00172525
0.00161332
0.0014995
0.00138428
0.00126818
0.00115175
0.00103555
0.000920197
0.000806323
0.000694625
0.000585861
0.000480879
0.000380661
0.000286404
0.000199658
0.000122539
5.78471e-05
3.06372e-05
0.00020989
0.000113712
0.000110539
0.000132008
0.000165038
0.000204946
0.000249476
0.000297327
0.000347634
0.000399767
0.000453223
0.000507581
0.00056247
0.000617557
0.000672539
0.000727132
0.00078107
0.000834103
0.000885996
0.000936526
0.000985484
0.00103267
0.0010779
0.001121
0.0011618
0.00120015
0.00123592
0.00126897
0.00129918
0.00132645
0.00135068
0.0013718
0.00138972
0.0014044
0.00141577
0.0014238
0.00142848
0.00142977
0.00142769
0.00142224
0.00141344
0.00140132
0.00138593
0.00136733
0.00134557
0.00132073
0.00129291
0.0012622
0.00122871
0.00119257
0.0011539
0.00111286
0.00106959
0.00102425
0.000977033
0.000928112
0.000877688
0.000825967
0.00077317
0.00071953
0.000665291
0.000610714
0.000556076
0.000501677
0.000447841
0.000394929
0.000343355
0.000293611
0.000246316
0.000202317
0.000162899
0.000130281
0.000109082
0.000112209
0.000207122
0.00046564
0.000227424
0.000175201
0.000165435
0.000173526
0.000191438
0.000215548
0.000243881
0.000275218
0.000308735
0.000343832
0.000380048
0.000417006
0.000454391
0.000491928
0.000529373
0.000566506
0.000603125
0.000639044
0.000674089
0.000708101
0.000740929
0.000772432
0.000802481
0.000830955
0.00085774
0.000882734
0.000905842
0.000926978
0.000946065
0.000963033
0.000977822
0.000990379
0.00100066
0.00100863
0.00101427
0.00101755
0.00101846
0.00101701
0.00101319
0.00100703
0.000998542
0.000987764
0.000974733
0.000959497
0.000942112
0.000922642
0.000901158
0.000877743
0.000852483
0.000825475
0.000796825
0.000766645
0.000735058
0.000702194
0.000668192
0.000633202
0.000597383
0.000560906
0.000523954
0.000486727
0.000449441
0.000412335
0.000375679
0.000339782
0.000305014
0.000271829
0.000240816
0.000212789
0.000188946
0.000171235
0.000163229
0.000172855
0.000224381
0.000459434
0.000767858
0.000367132
0.000265998
0.000229443
0.00021849
0.000221024
0.000231842
0.000248213
0.000268506
0.000291648
0.000316883
0.000343646
0.000371496
0.000400078
0.000429093
0.000458285
0.000487429
0.000516326
0.000544796
0.000572675
0.000599814
0.000626075
0.00065133
0.000675464
0.000698368
0.000719943
0.000740098
0.000758751
0.000775826
0.000791257
0.000804983
0.000816953
0.00082712
0.000835449
0.000841908
0.000846474
0.000849131
0.00084987
0.00084869
0.000845595
0.000840599
0.000833721
0.000824987
0.000814431
0.000802095
0.000788024
0.000772276
0.000754911
0.000735999
0.000715617
0.00069385
0.000670788
0.000646532
0.00062119
0.000594879
0.000567725
0.000539865
0.000511448
0.000482635
0.000453605
0.000424553
0.000395701
0.0003673
0.000339645
0.000313085
0.000288055
0.000265111
0.000244997
0.000228772
0.000218045
0.000215508
0.000226294
0.000262349
0.000362117
0.000757421
0.00110167
0.000522982
0.000370727
0.000308241
0.000280223
0.00026984
0.000270059
0.0002773
0.000289477
0.000305252
0.000323698
0.000344137
0.00036605
0.000389024
0.000412721
0.000436855
0.000461183
0.000485491
0.00050959
0.00053331
0.000556498
0.000579017
0.000600739
0.000621548
0.000641341
0.000660019
0.000677496
0.000693692
0.000708535
0.000721961
0.000733914
0.000744343
0.000753207
0.000760469
0.000766102
0.000770083
0.000772396
0.000773035
0.000771996
0.000769285
0.000764913
0.000758899
0.000751267
0.000742048
0.000731281
0.000719011
0.000705289
0.000690175
0.000673733
0.000656038
0.00063717
0.000617217
0.000596276
0.000574453
0.000551863
0.000528633
0.000504899
0.000480814
0.000456545
0.000432279
0.000408226
0.000384628
0.000361765
0.00033997
0.00031965
0.000301316
0.000285638
0.000273529
0.00026631
0.000266039
0.000276243
0.000303856
0.000365474
0.000515617
0.00108625
0.0014572
0.000689589
0.0004841
0.000395634
0.000351327
0.000329189
0.000320164
0.000319724
0.000325286
0.00033522
0.00034842
0.000364087
0.000381618
0.000400541
0.00042047
0.000441088
0.000462124
0.000483345
0.000504545
0.000525545
0.00054618
0.000566306
0.000585791
0.000604516
0.000622371
0.000639259
0.00065509
0.000669784
0.000683268
0.000695479
0.000706359
0.000715859
0.000723937
0.000730556
0.00073569
0.000739315
0.000741416
0.000741986
0.000741022
0.00073853
0.000734519
0.000729009
0.000722023
0.000713593
0.000703756
0.000692557
0.000680048
0.000666287
0.000651339
0.000635279
0.000618188
0.000600156
0.000581281
0.000561672
0.000541448
0.000520741
0.000499695
0.00047847
0.000457247
0.000436228
0.000415642
0.000395758
0.000376889
0.000359412
0.000343795
0.000330632
0.000320709
0.00031512
0.000315472
0.000324311
0.000346098
0.000389757
0.000476954
0.000679483
0.00143597
0.00182685
0.000863132
0.000602891
0.000488251
0.000428013
0.00039476
0.000377281
0.000370034
0.000369893
0.000374917
0.000383807
0.000395636
0.000409713
0.000425501
0.00044257
0.000460564
0.000479186
0.000498179
0.000517321
0.000536415
0.000555287
0.000573782
0.000591759
0.000609093
0.000625669
0.000641385
0.000656148
0.000669873
0.000682486
0.000693921
0.000704119
0.00071303
0.000720608
0.000726819
0.000731634
0.000735029
0.000736989
0.000737506
0.000736577
0.000734208
0.00073041
0.0007252
0.000718604
0.000710653
0.000701387
0.00069085
0.000679095
0.000666183
0.000652181
0.000637165
0.000621221
0.00060444
0.000586927
0.000568796
0.000550172
0.000531194
0.000512018
0.000492815
0.000473781
0.000455133
0.000437127
0.000420055
0.000404268
0.00039019
0.000378349
0.000369427
0.000364336
0.00036436
0.000371412
0.00038857
0.000421293
0.000480617
0.000593535
0.000849842
0.0017989
0.00220441
0.00104057
0.000724739
0.000583838
0.00050791
0.000463963
0.000438555
0.000425083
0.000419856
0.000420602
0.000425815
0.000434436
0.00044568
0.000458946
0.000473753
0.000489709
0.000506487
0.000523806
0.000541425
0.000559132
0.000576739
0.000594081
0.000611008
0.000627385
0.000643091
0.000658018
0.000672069
0.000685154
0.000697196
0.000708125
0.000717879
0.000726407
0.000733661
0.000739606
0.00074421
0.00074745
0.00074931
0.000749781
0.000748861
0.000746555
0.000742875
0.000737839
0.000731473
0.00072381
0.00071489
0.00070476
0.000693475
0.000681099
0.000667701
0.000653362
0.00063817
0.000622224
0.000605632
0.000588516
0.000571008
0.000553258
0.000535431
0.000517712
0.000500311
0.000483466
0.000467455
0.000452599
0.000439285
0.000427985
0.000419292
0.00041398
0.000413091
0.00041811
0.000431274
0.000456218
0.000499437
0.000574152
0.000712814
0.00102359
0.00216865
0.0025846
0.00121937
0.000847759
0.000680701
0.000589332
0.000535026
0.000502084
0.000482819
0.000472956
0.000469882
0.00047188
0.000477749
0.000486609
0.000497791
0.000510762
0.000525093
0.000540426
0.000556457
0.000572924
0.0005896
0.000606284
0.000622797
0.000638979
0.000654689
0.000669798
0.000684191
0.000697764
0.000710425
0.000722092
0.00073269
0.000742156
0.000750435
0.000757478
0.000763247
0.00076771
0.000770842
0.000772627
0.000773055
0.000772124
0.00076984
0.000766214
0.000761266
0.000755024
0.00074752
0.000738798
0.000728906
0.000717903
0.000705854
0.000692833
0.000678925
0.000664223
0.00064883
0.000632862
0.000616447
0.000599726
0.000582859
0.000566021
0.000549412
0.000533257
0.000517814
0.000503383
0.000490316
0.000479036
0.000470065
0.000464064
0.000461898
0.000464748
0.000474306
0.000493143
0.000525461
0.000578814
0.000668626
0.000832848
0.00119809
0.00253978
0.00296292
0.00139737
0.000970391
0.000777486
0.000670983
0.000606639
0.000566497
0.000541783
0.000527636
0.000521097
0.000520231
0.000523694
0.00053051
0.000539935
0.00055139
0.000564403
0.000578585
0.00059361
0.000609195
0.000625096
0.000641099
0.000657013
0.000672668
0.000687915
0.000702616
0.00071665
0.000729908
0.000742293
0.000753717
0.000764104
0.000773386
0.000781505
0.000788412
0.000794065
0.000798431
0.000801485
0.000803209
0.000803594
0.000802637
0.000800344
0.000796727
0.000791807
0.000785613
0.00077818
0.000769552
0.000759782
0.000748928
0.000737061
0.000724259
0.00071061
0.000696212
0.000681174
0.000665619
0.000649681
0.000633512
0.000617279
0.00060117
0.000585398
0.000570203
0.000555865
0.000542704
0.000531105
0.000521527
0.000514544
0.000510883
0.000511506
0.000517733
0.000531467
0.000555615
0.000594952
0.000658085
0.000762635
0.000952009
0.00137111
0.00290757
0.00333552
0.00157276
0.00109133
0.000873087
0.00075183
0.00067778
0.000630748
0.000600886
0.000582747
0.000573029
0.000569579
0.000570909
0.000575943
0.000583868
0.000594049
0.000605978
0.000619234
0.000633464
0.000648368
0.000663685
0.000679186
0.000694669
0.000709955
0.000724883
0.000739312
0.000753112
0.000766169
0.000778381
0.000789655
0.000799912
0.000809082
0.000817103
0.000823923
0.000829499
0.000833797
0.000836791
0.000838462
0.0008388
0.000837804
0.000835478
0.000831837
0.000826901
0.000820702
0.000813275
0.000804667
0.000794932
0.000784134
0.000772345
0.000759647
0.000746132
0.000731904
0.000717077
0.00070178
0.000686156
0.000670363
0.000654578
0.000639003
0.000623861
0.000609411
0.000595949
0.000583821
0.00057344
0.000565305
0.000560039
0.00055844
0.000561563
0.00057087
0.000588473
0.000617612
0.000663628
0.000736168
0.000855009
0.00106891
0.0015407
0.00326791
0.00369918
0.00174399
0.00120948
0.000966593
0.000831042
0.000747642
0.000694025
0.000659288
0.000637414
0.000624759
0.000618955
0.000618372
0.000621835
0.00062846
0.00063756
0.000648586
0.000661086
0.000674685
0.00068906
0.000703936
0.000719068
0.000734244
0.000749276
0.000763994
0.000778248
0.000791903
0.00080484
0.00081695
0.000828139
0.000838323
0.000847427
0.00085539
0.000862156
0.000867681
0.000871928
0.000874872
0.000876493
0.00087678
0.000875732
0.000873355
0.000869662
0.000864677
0.000858431
0.000850962
0.000842319
0.000832558
0.000821746
0.000809958
0.000797279
0.000783807
0.00076965
0.000754927
0.000739773
0.000724338
0.000708789
0.000693314
0.000678122
0.000663452
0.000649577
0.000636814
0.000625531
0.000616171
0.000609271
0.000605504
0.000605736
0.000611117
0.000623247
0.000644444
0.000678276
0.000730632
0.000812172
0.000944768
0.00118237
0.00170519
0.00361732
0.00405125
0.00190983
0.00132396
0.00105727
0.000907952
0.000815586
0.000755689
0.000716341
0.000690963
0.000675582
0.00066762
0.000665307
0.00066737
0.000672856
0.000681026
0.000691291
0.00070317
0.000716262
0.000730225
0.000744766
0.00075963
0.000774592
0.000789453
0.000804038
0.000818187
0.00083176
0.000844633
0.000856692
0.000867839
0.000877987
0.000887058
0.000894988
0.00090172
0.000907208
0.000911415
0.000914312
0.000915881
0.000916111
0.000914999
0.000912554
0.000908789
0.000903728
0.000897403
0.000889856
0.000881136
0.000871302
0.000860424
0.000848579
0.000835857
0.000822359
0.000808198
0.000793498
0.0007784
0.000763061
0.000747656
0.000732381
0.000717457
0.000703136
0.000689705
0.0006775
0.000666912
0.000658413
0.000652578
0.000650128
0.000651996
0.000659426
0.000674148
0.000698684
0.000736915
0.000795264
0.000885362
0.0010311
0.0012914
0.00186318
0.00395282
0.00438963
0.00206926
0.00143406
0.00114454
0.000982038
0.000881114
0.000815251
0.000771544
0.000742879
0.000724961
0.000715011
0.000711123
0.000711929
0.000716407
0.000723768
0.000733385
0.000744746
0.000757426
0.000771065
0.000785353
0.000800023
0.000814838
0.000829591
0.000844096
0.000858189
0.000871725
0.000884571
0.000896612
0.000907746
0.000917881
0.000926938
0.00093485
0.000941558
0.000947015
0.000951183
0.000954033
0.000955545
0.00095571
0.000954524
0.000951995
0.000948138
0.00094298
0.000936552
0.000928897
0.000920068
0.000910125
0.000899141
0.000887196
0.000874384
0.000860808
0.000846586
0.000831848
0.00081674
0.000801426
0.000786087
0.000770929
0.000756184
0.000742114
0.000729023
0.000717263
0.000707249
0.00069948
0.000694567
0.00069328
0.000696614
0.000705904
0.000723008
0.000750638
0.00079298
0.00085696
0.00095514
0.00111332
0.00139519
0.00201351
0.00427196
0.00471276
0.00222155
0.00153927
0.00122797
0.00105291
0.000943857
0.000872343
0.000824526
0.000792778
0.000772498
0.000760711
0.000755381
0.000755049
0.000758628
0.000765278
0.000774335
0.000785259
0.000797601
0.000810982
0.000825078
0.000839607
0.000854323
0.00086901
0.000883474
0.000897544
0.000911069
0.000923914
0.000935957
0.000947093
0.000957228
0.00096628
0.000974179
0.000980867
0.000986294
0.000990421
0.000993218
0.000994666
0.000994754
0.000993481
0.000990854
0.00098689
0.000981614
0.000975061
0.000967276
0.000958312
0.000948232
0.000937111
0.000925033
0.000912094
0.000898401
0.000884075
0.000869253
0.000854085
0.00083874
0.000823408
0.000808303
0.000793665
0.00077977
0.000766936
0.00075553
0.00074599
0.000738841
0.00073473
0.00073447
0.00073912
0.000750098
0.000769384
0.000799873
0.000846034
0.000915273
0.00102103
0.00119091
0.00149306
0.00215524
0.00457276
0.00501957
0.0023662
0.00163923
0.00130726
0.00112031
0.00100356
0.00092671
0.000875026
0.00084039
0.000817908
0.00080442
0.000797765
0.000796398
0.000799166
0.000805184
0.000813753
0.000824302
0.000836362
0.000849535
0.000863482
0.000877909
0.00089256
0.000907208
0.000921656
0.000935724
0.000949256
0.000962111
0.000974166
0.000985311
0.000995449
0.0010045
0.00101238
0.00101905
0.00102444
0.00102852
0.00103125
0.00103263
0.00103263
0.00103125
0.00102851
0.00102442
0.00101901
0.00101232
0.00100438
0.000995262
0.000985022
0.00097374
0.000961502
0.000948407
0.000934566
0.000920105
0.000905162
0.000889895
0.000874477
0.000859106
0.000844003
0.000829418
0.000815637
0.000802991
0.000791865
0.000782716
0.000776094
0.000772679
0.000773328
0.000779156
0.000791661
0.000812939
0.000846054
0.000895742
0.000969858
0.00108266
0.00126344
0.00158453
0.00228765
0.0048537
0.00530949
0.00250292
0.00173373
0.00138224
0.00118406
0.00106006
0.000978197
0.000922883
0.000885543
0.000861008
0.000845942
0.000838066
0.00083575
0.000837784
0.000843236
0.000851371
0.000861595
0.000873415
0.000886416
0.000900244
0.000914596
0.000929203
0.000943832
0.000958276
0.000972352
0.000985898
0.000998769
0.00101084
0.00102199
0.00103213
0.00104117
0.00104904
0.00105567
0.00106101
0.00106503
0.00106769
0.00106898
0.00106888
0.00106739
0.00106452
0.00106029
0.00105473
0.00104787
0.00103977
0.00103047
0.00102005
0.00100859
0.000996169
0.000982895
0.000968882
0.000954259
0.000939168
0.000923771
0.000908248
0.000892802
0.00087766
0.000863083
0.000849367
0.000836854
0.000825945
0.000817116
0.000810941
0.00080813
0.000809579
0.000816458
0.00083034
0.000853426
0.000888938
0.00094186
0.00102046
0.00113976
0.00133061
0.00166921
0.0024102
0.00511367
0.00558234
0.00263164
0.00182272
0.00145287
0.00124413
0.00111331
0.00102674
0.000968021
0.000928153
0.000901705
0.000885172
0.000876166
0.000872978
0.00087434
0.000879279
0.000887027
0.000896963
0.000908574
0.000921429
0.000935161
0.000949453
0.000964029
0.000978647
0.000993095
0.00100718
0.00102074
0.00103363
0.0010457
0.00105686
0.00106699
0.00107601
0.00108385
0.00109043
0.00109572
0.00109966
0.00110224
0.00110342
0.0011032
0.00110158
0.00109856
0.00109418
0.00108845
0.00108141
0.00107312
0.00106363
0.00105301
0.00104135
0.00102873
0.00101526
0.00100105
0.000986243
0.000970981
0.00095543
0.000939775
0.000924224
0.000909012
0.000894407
0.000880714
0.000868288
0.000857543
0.000848972
0.000843172
0.000840881
0.000843032
0.000850843
0.000865958
0.000890673
0.000928356
0.00098422
0.00106691
0.00119215
0.00139221
0.00174685
0.00252255
0.00535191
0.0058384
0.00275247
0.00190627
0.00151919
0.00130054
0.00116334
0.00107235
0.00101044
0.000968213
0.000939979
0.000922082
0.000912028
0.000908034
0.000908779
0.000913249
0.000920645
0.000930322
0.000941747
0.000954475
0.000968123
0.000982366
0.000996917
0.00101153
0.00102598
0.00104007
0.00105364
0.00106653
0.00107861
0.00108975
0.00109987
0.00110886
0.00111664
0.00112317
0.00112838
0.00113223
0.0011347
0.00113576
0.0011354
0.00113363
0.00113045
0.00112588
0.00111997
0.00111273
0.00110424
0.00109454
0.0010837
0.00107182
0.00105898
0.00104529
0.00103088
0.00101587
0.00100041
0.000984687
0.000968876
0.000953196
0.000937886
0.000923221
0.000909517
0.000897137
0.000886509
0.000878142
0.000872653
0.000870805
0.000873565
0.000882196
0.000898403
0.000924574
0.000964206
0.00102272
0.00110911
0.00123972
0.00144813
0.00181731
0.00262448
0.00556803
0.00607829
0.00286571
0.00198458
0.00158136
0.00135343
0.00121023
0.00111511
0.00105023
0.00100578
0.000975882
0.000956712
0.000945682
0.000940941
0.000941114
0.000945152
0.000952226
0.000961666
0.000972923
0.000985535
0.000999109
0.00101331
0.00102783
0.00104243
0.00105688
0.00107098
0.00108455
0.00109743
0.0011095
0.00112062
0.00113069
0.00113963
0.00114736
0.0011538
0.00115891
0.00116265
0.00116499
0.0011659
0.00116539
0.00116344
0.00116008
0.00115532
0.00114919
0.00114174
0.00113302
0.00112308
0.00111202
0.00109989
0.00108682
0.0010729
0.00105825
0.00104302
0.00102736
0.00101144
0.000995449
0.000979616
0.000964184
0.000949433
0.000935685
0.000923315
0.000912762
0.000904549
0.000899311
0.000897833
0.000901114
0.000910457
0.000927623
0.000955079
0.000996442
0.00105732
0.00114701
0.00128243
0.00149832
0.00188054
0.00271594
0.00576187
0.00630297
0.0029718
0.00205796
0.00163961
0.00140299
0.00125418
0.00115518
0.0010875
0.00104099
0.00100952
0.000989163
0.000977221
0.000971783
0.000971425
0.000975061
0.000981835
0.000991058
0.00100216
0.00101466
0.00102817
0.00104232
0.00105682
0.00107141
0.00108585
0.00109994
0.00111349
0.00112636
0.00113839
0.00114947
0.00115949
0.00116836
0.001176
0.00118234
0.00118733
0.00119093
0.00119312
0.00119386
0.00119316
0.00119102
0.00118744
0.00118246
0.0011761
0.0011684
0.00115943
0.00114925
0.00113792
0.00112554
0.00111221
0.00109803
0.00108314
0.00106767
0.00105177
0.00103564
0.00101946
0.00100345
0.00098787
0.000973005
0.000959185
0.000946791
0.000936272
0.000928165
0.000923121
0.000921945
0.000925663
0.000935614
0.000953608
0.000982183
0.00102506
0.00108802
0.00118062
0.00132029
0.0015428
0.00193656
0.00279696
0.00593354
0.0065137
0.00307134
0.00212681
0.00169427
0.00144948
0.0012954
0.00119276
0.00112246
0.001074
0.00104107
0.00101959
0.00100679
0.0010007
0.000999842
0.0010031
0.0010096
0.00101862
0.00102957
0.00104197
0.00105541
0.00106952
0.00108399
0.00109855
0.00111297
0.00112704
0.00114057
0.0011534
0.00116539
0.00117641
0.00118635
0.00119513
0.00120265
0.00120886
0.00121371
0.00121715
0.00121915
0.0012197
0.00121878
0.00121641
0.0012126
0.00120736
0.00120074
0.00119278
0.00118353
0.00117307
0.00116146
0.0011488
0.00113518
0.00112073
0.00110556
0.00108983
0.00107368
0.00105731
0.00104091
0.00102471
0.00100896
0.000993952
0.000980029
0.000967577
0.000957054
0.000949007
0.000944101
0.00094316
0.000947232
0.000957689
0.000976384
0.00100592
0.0010501
0.00111485
0.00120998
0.00135335
0.00158163
0.00198545
0.00286766
0.00608331
0.006712
0.00316503
0.00219162
0.00174572
0.00149323
0.00133419
0.00122811
0.00115533
0.00110503
0.00107071
0.00104818
0.00103458
0.00102787
0.00102654
0.00102945
0.00103568
0.00104451
0.00105532
0.00106763
0.001081
0.00109506
0.00110949
0.00112403
0.00113842
0.00115246
0.00116595
0.00117873
0.00119065
0.00120158
0.00121143
0.00122008
0.00122747
0.00123353
0.0012382
0.00124144
0.00124323
0.00124354
0.00124239
0.00123975
0.00123566
0.00123014
0.00122323
0.00121497
0.00120541
0.00119463
0.00118271
0.00116974
0.00115581
0.00114106
0.00112559
0.00110957
0.00109315
0.00107651
0.00105987
0.00104344
0.00102749
0.00101232
0.000998265
0.00098572
0.000975153
0.000967119
0.000962297
0.000961525
0.00096587
0.000976733
0.000996003
0.00102633
0.00107162
0.00113789
0.00123517
0.00138169
0.00161491
0.00202735
0.00292822
0.00621157
0.0068996
0.0032537
0.00225296
0.0017944
0.00153462
0.00137086
0.00126153
0.00118639
0.00113435
0.00109872
0.00107518
0.00106081
0.00105351
0.00105175
0.00105432
0.0010603
0.00106895
0.00107963
0.00109184
0.00110514
0.00111916
0.00113355
0.00114805
0.00116241
0.0011764
0.00118983
0.00120254
0.00121437
0.00122521
0.00123492
0.00124343
0.00125066
0.00125652
0.00126098
0.001264
0.00126554
0.00126559
0.00126414
0.00126121
0.00125681
0.00125097
0.00124372
0.00123511
0.00122521
0.00121409
0.00120182
0.0011885
0.00117423
0.00115913
0.00114333
0.00112699
0.00111026
0.00109334
0.00107642
0.00105974
0.00104356
0.00102819
0.00101397
0.00100129
0.000990639
0.000982571
0.000977776
0.000977105
0.000981644
0.000992813
0.00101253
0.0010435
0.00108968
0.00115721
0.00125628
0.00140542
0.00164275
0.00206239
0.00297887
0.00631878
0.00707844
0.00333825
0.00231145
0.00184081
0.00157407
0.0014058
0.00129334
0.00121596
0.00116224
0.00112534
0.00110085
0.00108574
0.00107789
0.0010757
0.00107796
0.0010837
0.00109218
0.00110274
0.00111486
0.0011281
0.00114206
0.00115642
0.00117088
0.00118518
0.00119912
0.00121248
0.0012251
0.00123683
0.00124753
0.0012571
0.00126543
0.00127245
0.0012781
0.00128231
0.00128506
0.00128631
0.00128605
0.00128428
0.001281
0.00127624
0.00127003
0.0012624
0.00125341
0.00124312
0.0012316
0.00121894
0.00120522
0.00119057
0.00117509
0.00115893
0.00114222
0.00112515
0.0011079
0.00109067
0.00107371
0.00105727
0.00104166
0.00102723
0.00101438
0.0010036
0.000995442
0.000990617
0.00098998
0.000994629
0.00100601
0.00102605
0.00105751
0.00110438
0.00117289
0.00127338
0.00142463
0.00166528
0.00209072
0.00301981
0.00640545
0.00725063
0.00341968
0.00236777
0.00188548
0.00161202
0.0014394
0.00132392
0.00124436
0.00118902
0.0011509
0.00112548
0.00110967
0.00110128
0.00109869
0.00110064
0.00110617
0.00111448
0.00112493
0.00113697
0.00115014
0.00116406
0.00117837
0.00119278
0.00120704
0.00122091
0.00123418
0.0012467
0.0012583
0.00126885
0.00127824
0.00128637
0.00129316
0.00129854
0.00130247
0.0013049
0.00130581
0.0013052
0.00130305
0.00129938
0.00129421
0.00128757
0.00127951
0.00127008
0.00125934
0.00124737
0.00123426
0.0012201
0.00120501
0.0011891
0.00117252
0.00115541
0.00113795
0.00112033
0.00110275
0.00108545
0.00106871
0.00105282
0.00103814
0.00102507
0.00101411
0.00100582
0.0010009
0.00100023
0.0010049
0.00101639
0.00103664
0.00106842
0.00111579
0.00118503
0.00128659
0.00143943
0.0016826
0.0021125
0.00305127
0.00647202
0.0074184
0.00349902
0.00242264
0.00192899
0.00164896
0.00147209
0.00135366
0.00127195
0.00121503
0.00117572
0.00114939
0.00113289
0.00112398
0.001121
0.00112267
0.00112799
0.00113615
0.0011465
0.00115847
0.00117159
0.00118546
0.00119974
0.0012141
0.0012283
0.00124209
0.00125528
0.00126767
0.00127912
0.00128949
0.00129868
0.00130656
0.00131308
0.00131817
0.00132176
0.00132383
0.00132435
0.00132332
0.00132074
0.00131661
0.00131097
0.00130384
0.00129528
0.00128534
0.00127409
0.00126161
0.00124799
0.00123333
0.00121773
0.00120134
0.00118428
0.00116671
0.00114881
0.00113076
0.00111277
0.0010951
0.001078
0.00106178
0.0010468
0.00103347
0.00102227
0.00101378
0.0010087
0.00100792
0.00101254
0.00102402
0.00104436
0.00107632
0.00112398
0.00119369
0.00129596
0.00144989
0.00169482
0.00212784
0.00307341
0.00651884
0.00758408
0.0035774
0.00247683
0.00197194
0.0016854
0.00150431
0.00138295
0.00129912
0.00124063
0.00120014
0.00117291
0.00115574
0.00114633
0.00114297
0.00114437
0.0011495
0.00115753
0.00116779
0.0011797
0.00119278
0.00120662
0.00122086
0.00123519
0.00124932
0.00126304
0.00127611
0.00128837
0.00129966
0.00130983
0.00131877
0.00132638
0.00133259
0.00133732
0.00134053
0.00134218
0.00134225
0.00134075
0.00133766
0.001333
0.00132681
0.00131912
0.00130999
0.00129946
0.00128763
0.00127456
0.00126034
0.0012451
0.00122893
0.00121197
0.00119437
0.00117627
0.00115786
0.00113932
0.00112087
0.00110275
0.00108524
0.00106864
0.0010533
0.00103964
0.00102814
0.00101939
0.00101409
0.00101311
0.00101758
0.00102897
0.00104925
0.00108123
0.001129
0.00119891
0.00130154
0.00145607
0.00170199
0.00213681
0.00308633
0.00654617
0.00775013
0.00365594
0.00253112
0.00201494
0.00172187
0.00153652
0.00141221
0.00132626
0.00126619
0.00122451
0.00119639
0.00117855
0.00116864
0.00116493
0.00116608
0.00117103
0.00117895
0.00118914
0.00120101
0.00121408
0.0012279
0.00124212
0.00125641
0.00127049
0.00128412
0.00129708
0.00130919
0.00132029
0.00133023
0.0013389
0.0013462
0.00135204
0.00135638
0.00135914
0.00136031
0.00135986
0.0013578
0.00135413
0.00134886
0.00134204
0.0013337
0.0013239
0.0013127
0.00130018
0.00128643
0.00127154
0.00125562
0.00123879
0.00122118
0.00120295
0.00118424
0.00116524
0.00114613
0.00112715
0.00110852
0.00109052
0.00107347
0.00105771
0.00104365
0.00103179
0.0010227
0.0010171
0.00101585
0.00102007
0.00103125
0.00105136
0.00108319
0.00113086
0.00120072
0.00130335
0.00145798
0.00170412
0.00213941
0.00309006
0.00655404
0.00791902
0.00373583
0.00258631
0.00205864
0.0017589
0.00156921
0.00144189
0.00135376
0.00129208
0.0012492
0.00122018
0.00120168
0.00119129
0.00118724
0.00118815
0.00119295
0.00120079
0.00121093
0.00122279
0.00123586
0.00124969
0.0012639
0.00127817
0.0012922
0.00130575
0.0013186
0.00133055
0.00134144
0.00135112
0.00135948
0.00136642
0.00137185
0.00137572
0.00137798
0.00137859
0.00137754
0.00137484
0.00137049
0.00136452
0.00135696
0.00134787
0.00133729
0.00132531
0.001312
0.00129746
0.00128178
0.00126508
0.00124748
0.00122913
0.00121016
0.00119074
0.00117106
0.0011513
0.00113169
0.00111247
0.00109391
0.00107632
0.00106006
0.00104554
0.00103324
0.00102374
0.00101775
0.00101614
0.00102002
0.00103087
0.00105066
0.00108219
0.00112955
0.00119909
0.00130137
0.00145558
0.00170118
0.00213562
0.00308452
0.00654231
0.00809329
0.00381826
0.00264324
0.00210368
0.00179703
0.00160286
0.00147242
0.00138203
0.00131869
0.00127458
0.00124465
0.00122548
0.00121462
0.00121024
0.00121094
0.00121563
0.00122341
0.00123355
0.00124543
0.00125853
0.00127239
0.00128663
0.00130089
0.00131489
0.00132837
0.00134109
0.00135287
0.00136353
0.00137293
0.00138094
0.00138747
0.00139243
0.00139577
0.00139743
0.0013974
0.00139566
0.00139222
0.00138708
0.00138029
0.00137188
0.00136191
0.00135043
0.00133754
0.00132331
0.00130785
0.00129125
0.00127365
0.00125516
0.00123593
0.00121612
0.00119588
0.00117541
0.0011549
0.00113456
0.00111465
0.00109544
0.00107723
0.00106039
0.00104532
0.00103249
0.0010225
0.00101603
0.00101396
0.00101739
0.00102779
0.00104713
0.00107818
0.00112501
0.00119396
0.00129552
0.0014488
0.00169305
0.00212527
0.00306951
0.00651056
0.0082755
0.00390442
0.00270272
0.0021507
0.00183682
0.00163794
0.00150422
0.00141148
0.00134641
0.00130103
0.00127017
0.00125033
0.001239
0.00123432
0.00123484
0.00123945
0.00124722
0.00125739
0.00126934
0.00128251
0.00129644
0.00131073
0.00132502
0.00133901
0.00135242
0.00136502
0.00137662
0.00138702
0.0013961
0.00140372
0.00140978
0.00141421
0.00141693
0.00141791
0.00141713
0.00141459
0.00141028
0.00140424
0.00139649
0.00138709
0.00137609
0.00136357
0.00134962
0.00133432
0.00131779
0.00130013
0.00128147
0.00126195
0.00124171
0.00122091
0.00119973
0.00117834
0.00115695
0.00113578
0.00111507
0.00109511
0.00107619
0.00105866
0.00104294
0.00102951
0.00101892
0.00101188
0.00100925
0.00101212
0.00102194
0.00104067
0.00107106
0.00111715
0.00118522
0.00128568
0.00143748
0.00167957
0.00210816
0.0030447
0.0064581
0.00846818
0.0039955
0.00276556
0.00220036
0.00187881
0.00167493
0.00153775
0.00144252
0.00137563
0.00132892
0.0012971
0.00127658
0.0012648
0.00125985
0.00126023
0.0012648
0.00127261
0.00128287
0.00129493
0.00130823
0.00132228
0.00133667
0.00135102
0.00136501
0.00137837
0.00139085
0.00140225
0.00141238
0.0014211
0.00142827
0.0014338
0.0014376
0.00143961
0.00143981
0.00143817
0.00143469
0.00142938
0.00142227
0.00141341
0.00140285
0.00139066
0.00137692
0.00136173
0.00134519
0.00132741
0.00130852
0.00128864
0.00126792
0.00124651
0.00122458
0.0012023
0.00117985
0.00115745
0.00113532
0.00111369
0.00109286
0.00107311
0.00105481
0.00103834
0.00102419
0.00101291
0.00100519
0.00100189
0.00100408
0.0010132
0.00103117
0.00106071
0.00110582
0.00117271
0.00127167
0.00142142
0.00166049
0.00208396
0.00300964
0.00638397
0.00867382
0.00409269
0.00283259
0.00225328
0.00192352
0.0017143
0.00157342
0.00147554
0.00140673
0.00135862
0.00132581
0.00130461
0.00129239
0.00128721
0.00128749
0.00129208
0.00129999
0.00131041
0.00132265
0.00133614
0.00135037
0.0013649
0.00137934
0.00139337
0.00140669
0.00141905
0.00143024
0.00144007
0.00144837
0.00145503
0.00145995
0.00146302
0.00146421
0.0014635
0.00146085
0.00145628
0.0014498
0.00144145
0.00143129
0.00141939
0.00140581
0.00139066
0.00137403
0.00135604
0.00133682
0.00131649
0.00129519
0.00127309
0.00125033
0.00122708
0.00120353
0.00117988
0.00115632
0.00113308
0.00111042
0.00108859
0.0010679
0.0010487
0.00103138
0.00101641
0.00100434
0.000995835
0.000991752
0.000993136
0.0010014
0.00101844
0.00104694
0.00109084
0.00115622
0.00125325
0.00140037
0.00163549
0.0020523
0.00296375
0.00628693
0.00889485
0.00419711
0.00290456
0.00231007
0.00197147
0.0017565
0.00161165
0.00151092
0.00144007
0.00139049
0.00135665
0.00133477
0.00132215
0.00131676
0.00131702
0.00132169
0.00132978
0.00134043
0.00135293
0.00136669
0.00138115
0.00139588
0.00141047
0.00142456
0.00143786
0.0014501
0.00146106
0.00147053
0.00147837
0.00148444
0.00148864
0.00149087