/*--------------------------------*- C++ -*----------------------------------*\
  =========                 |
  \\      /  F ield         | OpenFOAM: The Open Source CFD Toolbox
   \\    /   O peration     | Website:  https://openfoam.org
    \\  /    A nd           | Version:  12
     \\/     M anipulation  |
\*---------------------------------------------------------------------------*/
FoamFile
{
    format      ascii;
    class       volVectorField;
    location    "0.5";
    object      U;
}
// * * * * * * * * * * * * * * * * * * * * * * * * * * * * * * * * * * * * * //

dimensions      [0 1 -1 0 0 0 0];

internalField   nonuniform List<vector> 
5625
(
(-3.21637e-06 9.36209e-07 0)
(-1.80397e-06 -6.29663e-07 0)
(-2.13256e-06 -2.24212e-06 0)
(6.69097e-07 -2.73281e-06 0)
(3.69755e-06 -2.38267e-06 0)
(6.50378e-06 -1.8603e-06 0)
(9.50218e-06 -1.5444e-06 0)
(1.22692e-05 -1.24767e-06 0)
(1.50959e-05 -1.08694e-06 0)
(1.77721e-05 -9.2855e-07 0)
(2.04534e-05 -8.41962e-07 0)
(2.29888e-05 -7.40647e-07 0)
(2.54849e-05 -6.78859e-07 0)
(2.78291e-05 -6.02181e-07 0)
(3.01003e-05 -5.51996e-07 0)
(3.22137e-05 -4.89607e-07 0)
(3.42321e-05 -4.45864e-07 0)
(3.60936e-05 -3.93662e-07 0)
(3.78482e-05 -3.5545e-07 0)
(3.94505e-05 -3.108e-07 0)
(4.09421e-05 -2.7629e-07 0)
(4.22907e-05 -2.37644e-07 0)
(4.35312e-05 -2.06876e-07 0)
(4.46403e-05 -1.73587e-07 0)
(4.56487e-05 -1.46434e-07 0)
(4.65403e-05 -1.18606e-07 0)
(4.73419e-05 -9.58363e-08 0)
(4.80417e-05 -7.35822e-08 0)
(4.86633e-05 -5.5257e-08 0)
(4.91984e-05 -3.83804e-08 0)
(4.96668e-05 -2.42787e-08 0)
(5.00613e-05 -1.19206e-08 0)
(5.03982e-05 -9.8912e-10 0)
(5.06709e-05 8.30278e-09 0)
(5.08915e-05 1.77495e-08 0)
(5.10526e-05 2.60292e-08 0)
(5.11626e-05 3.58894e-08 0)
(5.12134e-05 4.50247e-08 0)
(5.12094e-05 5.72182e-08 0)
(5.11409e-05 6.92678e-08 0)
(5.101e-05 8.53502e-08 0)
(5.08061e-05 1.01313e-07 0)
(5.0529e-05 1.21787e-07 0)
(5.0167e-05 1.41768e-07 0)
(4.97186e-05 1.66432e-07 0)
(4.91723e-05 1.90334e-07 0)
(4.85254e-05 2.19296e-07 0)
(4.77659e-05 2.47215e-07 0)
(4.68909e-05 2.80403e-07 0)
(4.58896e-05 3.12371e-07 0)
(4.47592e-05 3.49763e-07 0)
(4.34895e-05 3.85237e-07 0)
(4.20801e-05 4.25539e-07 0)
(4.05239e-05 4.62703e-07 0)
(3.88231e-05 5.03559e-07 0)
(3.69741e-05 5.39239e-07 0)
(3.49837e-05 5.76854e-07 0)
(3.28551e-05 6.0724e-07 0)
(3.05985e-05 6.37771e-07 0)
(2.8225e-05 6.58758e-07 0)
(2.57499e-05 6.77868e-07 0)
(2.31949e-05 6.85316e-07 0)
(2.05808e-05 6.88196e-07 0)
(1.79411e-05 6.75843e-07 0)
(1.5305e-05 6.54904e-07 0)
(1.2721e-05 6.13697e-07 0)
(1.02264e-05 5.58849e-07 0)
(7.88865e-06 4.77803e-07 0)
(5.74777e-06 3.78074e-07 0)
(3.88729e-06 2.51831e-07 0)
(2.34614e-06 1.11028e-07 0)
(1.19148e-06 -3.48557e-08 0)
(4.09709e-07 -1.52644e-07 0)
(2.56415e-10 -2.09438e-07 0)
(-5.65239e-08 -1.93247e-07 0)
(-1.94148e-06 3.99179e-06 0)
(-1.96203e-06 1.59083e-06 0)
(-1.30906e-06 -4.30026e-06 0)
(1.16723e-06 -7.95918e-06 0)
(5.50616e-06 -9.71865e-06 0)
(1.07633e-05 -1.02552e-05 0)
(1.67273e-05 -1.06274e-05 0)
(2.30969e-05 -1.06385e-05 0)
(2.97529e-05 -1.06589e-05 0)
(3.64831e-05 -1.04772e-05 0)
(4.32426e-05 -1.02995e-05 0)
(4.98851e-05 -9.97644e-06 0)
(5.64049e-05 -9.65068e-06 0)
(6.26932e-05 -9.2241e-06 0)
(6.87578e-05 -8.79966e-06 0)
(7.45225e-05 -8.30956e-06 0)
(8.00063e-05 -7.82878e-06 0)
(8.51555e-05 -7.31044e-06 0)
(8.9993e-05 -6.80892e-06 0)
(9.44861e-05 -6.29032e-06 0)
(9.86628e-05 -5.79439e-06 0)
(0.000102504 -5.29736e-06 0)
(0.00010604 -4.82792e-06 0)
(0.000109263 -4.36861e-06 0)
(0.000112203 -3.93968e-06 0)
(0.000114861 -3.52857e-06 0)
(0.000117266 -3.14843e-06 0)
(0.000119421 -2.7896e-06 0)
(0.000121354 -2.45934e-06 0)
(0.00012307 -2.15039e-06 0)
(0.000124592 -1.86509e-06 0)
(0.000125925 -1.59776e-06 0)
(0.000127086 -1.34669e-06 0)
(0.000128079 -1.10784e-06 0)
(0.000128915 -8.76366e-07 0)
(0.000129593 -6.49648e-07 0)
(0.00013012 -4.20626e-07 0)
(0.00013049 -1.88381e-07 0)
(0.000130703 5.54659e-08 0)
(0.00013075 3.10026e-07 0)
(0.000130626 5.84317e-07 0)
(0.000130316 8.75291e-07 0)
(0.000129811 1.19209e-06 0)
(0.000129094 1.52966e-06 0)
(0.00012815 1.89734e-06 0)
(0.000126961 2.28817e-06 0)
(0.00012551 2.71139e-06 0)
(0.000123778 3.15807e-06 0)
(0.000121747 3.63702e-06 0)
(0.0001194 4.13719e-06 0)
(0.000116722 4.66607e-06 0)
(0.000113697 5.21002e-06 0)
(0.000110317 5.77486e-06 0)
(0.000106569 6.34404e-06 0)
(0.000102453 6.92115e-06 0)
(9.79668e-05 7.48665e-06 0)
(9.3117e-05 8.04222e-06 0)
(8.79141e-05 8.56545e-06 0)
(8.23783e-05 9.05579e-06 0)
(7.65359e-05 9.4878e-06 0)
(7.04215e-05 9.85863e-06 0)
(6.40828e-05 1.01396e-05 0)
(5.75734e-05 1.03245e-05 0)
(5.09653e-05 1.03805e-05 0)
(4.43303e-05 1.02981e-05 0)
(3.77701e-05 1.00428e-05 0)
(3.13763e-05 9.60232e-06 0)
(2.52766e-05 8.94737e-06 0)
(1.95778e-05 8.07034e-06 0)
(1.44196e-05 6.96616e-06 0)
(9.91455e-06 5.66082e-06 0)
(6.17975e-06 4.22123e-06 0)
(3.24915e-06 2.79753e-06 0)
(1.20999e-06 1.50528e-06 0)
(1.75353e-07 2.92332e-07 0)
(-4.51637e-07 4.6915e-06 0)
(6.97306e-07 1.31681e-06 0)
(2.78771e-06 -8.62938e-06 0)
(6.37106e-06 -1.61381e-05 0)
(1.16383e-05 -2.0724e-05 0)
(1.81063e-05 -2.35124e-05 0)
(2.55403e-05 -2.53411e-05 0)
(3.37084e-05 -2.63696e-05 0)
(4.23697e-05 -2.693e-05 0)
(5.1318e-05 -2.70105e-05 0)
(6.03979e-05 -2.67998e-05 0)
(6.94496e-05 -2.62684e-05 0)
(7.83816e-05 -2.55462e-05 0)
(8.70747e-05 -2.46132e-05 0)
(9.5482e-05 -2.35634e-05 0)
(0.00010352 -2.23851e-05 0)
(0.000111174 -2.11481e-05 0)
(0.000118387 -1.9847e-05 0)
(0.000125166 -1.8533e-05 0)
(0.000131479 -1.72033e-05 0)
(0.000137345 -1.58955e-05 0)
(0.000142753 -1.46083e-05 0)
(0.00014773 -1.33678e-05 0)
(0.000152278 -1.2172e-05 0)
(0.000156428 -1.10384e-05 0)
(0.00016019 -9.96326e-06 0)
(0.000163598 -8.9567e-06 0)
(0.000166665 -8.01259e-06 0)
(0.000169424 -7.13485e-06 0)
(0.000171887 -6.31532e-06 0)
(0.000174084 -5.55266e-06 0)
(0.000176025 -4.83681e-06 0)
(0.000177733 -4.16245e-06 0)
(0.000179215 -3.51838e-06 0)
(0.000180485 -2.8964e-06 0)
(0.000181543 -2.28475e-06 0)
(0.000182399 -1.67373e-06 0)
(0.000183045 -1.05192e-06 0)
(0.00018348 -4.09251e-07 0)
(0.000183692 2.64513e-07 0)
(0.000183673 9.78699e-07 0)
(0.000183403 1.74157e-06 0)
(0.000182867 2.56095e-06 0)
(0.000182039 3.44262e-06 0)
(0.0001809 4.39216e-06 0)
(0.000179421 5.41245e-06 0)
(0.000177578 6.50612e-06 0)
(0.000175342 7.6727e-06 0)
(0.000172688 8.91096e-06 0)
(0.000169588 1.02165e-05 0)
(0.000166022 1.15833e-05 0)
(0.000161964 1.30023e-05 0)
(0.000157402 1.44616e-05 0)
(0.000152319 1.5947e-05 0)
(0.00014671 1.74401e-05 0)
(0.000140572 1.89209e-05 0)
(0.000133914 2.03645e-05 0)
(0.000126749 2.17444e-05 0)
(0.000119103 2.30293e-05 0)
(0.000111013 2.41854e-05 0)
(0.000102525 2.51751e-05 0)
(9.37035e-05 2.59572e-05 0)
(8.46197e-05 2.64878e-05 0)
(7.53682e-05 2.67189e-05 0)
(6.60485e-05 2.66025e-05 0)
(5.67849e-05 2.60878e-05 0)
(4.77065e-05 2.51295e-05 0)
(3.89646e-05 2.36841e-05 0)
(3.07049e-05 2.17277e-05 0)
(2.31031e-05 1.92553e-05 0)
(1.6305e-05 1.63091e-05 0)
(1.04796e-05 1.3002e-05 0)
(5.72054e-06 9.56855e-06 0)
(2.24236e-06 6.09355e-06 0)
(3.15191e-07 2.0915e-06 0)
(3.16778e-07 2.93574e-06 0)
(2.51926e-06 -3.16472e-06 0)
(6.16271e-06 -1.56349e-05 0)
(1.1017e-05 -2.59978e-05 0)
(1.73002e-05 -3.33215e-05 0)
(2.47987e-05 -3.85403e-05 0)
(3.32958e-05 -4.22517e-05 0)
(4.25916e-05 -4.46995e-05 0)
(5.24348e-05 -4.61765e-05 0)
(6.26277e-05 -4.67853e-05 0)
(7.29776e-05 -4.67322e-05 0)
(8.3324e-05 -4.60798e-05 0)
(9.35356e-05 -4.49864e-05 0)
(0.000103493 -4.34968e-05 0)
(0.000113115 -4.17333e-05 0)
(0.000122322 -3.97303e-05 0)
(0.000131073 -3.75818e-05 0)
(0.000139318 -3.53152e-05 0)
(0.000147048 -3.30015e-05 0)
(0.00015424 -3.06615e-05 0)
(0.000160905 -2.83479e-05 0)
(0.00016704 -2.60748e-05 0)
(0.00017267 -2.38793e-05 0)
(0.000177807 -2.17687e-05 0)
(0.000182485 -1.97666e-05 0)
(0.000186721 -1.78738e-05 0)
(0.000190556 -1.61022e-05 0)
(0.000194009 -1.44464e-05 0)
(0.000197118 -1.29086e-05 0)
(0.000199905 -1.14777e-05 0)
(0.000202403 -1.01481e-05 0)
(0.000204628 -8.90444e-06 0)
(0.000206606 -7.73486e-06 0)
(0.000208348 -6.621e-06 0)
(0.000209872 -5.54695e-06 0)
(0.000211179 -4.49268e-06 0)
(0.000212277 -3.43997e-06 0)
(0.000213161 -2.36883e-06 0)
(0.000213826 -1.26071e-06 0)
(0.000214257 -9.70431e-08 0)
(0.000214442 1.13945e-06 0)
(0.000214358 2.4644e-06 0)
(0.000213982 3.89211e-06 0)
(0.000213284 5.43415e-06 0)
(0.000212236 7.1006e-06 0)
(0.000210802 8.89775e-06 0)
(0.00020895 1.08298e-05 0)
(0.000206642 1.28969e-05 0)
(0.000203847 1.50962e-05 0)
(0.000200526 1.74203e-05 0)
(0.000196653 1.98576e-05 0)
(0.000192195 2.23927e-05 0)
(0.000187131 2.50037e-05 0)
(0.00018144 2.76659e-05 0)
(0.000175113 3.03466e-05 0)
(0.000168142 3.30106e-05 0)
(0.000160535 3.56141e-05 0)
(0.000152306 3.81106e-05 0)
(0.000143482 4.04449e-05 0)
(0.000134103 4.25589e-05 0)
(0.000124222 4.43863e-05 0)
(0.00011391 4.58581e-05 0)
(0.000103247 4.6898e-05 0)
(9.23409e-05 4.74289e-05 0)
(8.13006e-05 4.73681e-05 0)
(7.02721e-05 4.6638e-05 0)
(5.93916e-05 4.51592e-05 0)
(4.88408e-05 4.28698e-05 0)
(3.8784e-05 3.97186e-05 0)
(2.94222e-05 3.56944e-05 0)
(2.09482e-05 3.08349e-05 0)
(1.35671e-05 2.52665e-05 0)
(7.45119e-06 1.92683e-05 0)
(2.93035e-06 1.27926e-05 0)
(3.87922e-07 4.76416e-06 0)
(5.56961e-07 -3.27905e-07 0)
(3.33149e-06 -1.02368e-05 0)
(7.91366e-06 -2.52298e-05 0)
(1.38054e-05 -3.81526e-05 0)
(2.10283e-05 -4.79682e-05 0)
(2.93954e-05 -5.5411e-05 0)
(3.86942e-05 -6.09073e-05 0)
(4.87232e-05 -6.47168e-05 0)
(5.92472e-05 -6.70966e-05 0)
(7.00712e-05 -6.8223e-05 0)
(8.10038e-05 -6.83133e-05 0)
(9.18862e-05 -6.75082e-05 0)
(0.000102581 -6.59916e-05 0)
(0.000112971 -6.38748e-05 0)
(0.000122969 -6.13084e-05 0)
(0.000132497 -5.83792e-05 0)
(0.00014151 -5.52071e-05 0)
(0.000149964 -5.1859e-05 0)
(0.000157848 -4.84277e-05 0)
(0.000165145 -4.49628e-05 0)
(0.000171869 -4.15335e-05 0)
(0.000178025 -3.81736e-05 0)
(0.000183642 -3.49316e-05 0)
(0.000188739 -3.18269e-05 0)
(0.000193358 -2.88892e-05 0)
(0.000197525 -2.61252e-05 0)
(0.000201284 -2.35483e-05 0)
(0.000204666 -2.11538e-05 0)
(0.000207714 -1.89412e-05 0)
(0.000210456 -1.68963e-05 0)
(0.00021293 -1.50072e-05 0)
(0.00021516 -1.32524e-05 0)
(0.000217173 -1.16114e-05 0)
(0.000218986 -1.00573e-05 0)
(0.000220616 -8.56408e-06 0)
(0.000222069 -7.10178e-06 0)
(0.000223351 -5.64126e-06 0)
(0.000224455 -4.15218e-06 0)
(0.000225376 -2.60497e-06 0)
(0.000226096 -9.71179e-07 0)
(0.000226598 7.76666e-07 0)
(0.000226853 2.66291e-06 0)
(0.000226835 4.71045e-06 0)
(0.000226505 6.93755e-06 0)
(0.000225828 9.36027e-06 0)
(0.00022476 1.19889e-05 0)
(0.000223262 1.48305e-05 0)
(0.000221287 1.78856e-05 0)
(0.000218793 2.11501e-05 0)
(0.000215735 2.46132e-05 0)
(0.000212076 2.82578e-05 0)
(0.000207775 3.206e-05 0)
(0.000202805 3.59881e-05 0)
(0.000197133 4.00038e-05 0)
(0.000190747 4.40594e-05 0)
(0.000183631 4.81012e-05 0)
(0.00017579 5.20649e-05 0)
(0.000167232 5.58804e-05 0)
(0.000157983 5.94669e-05 0)
(0.000148082 6.27377e-05 0)
(0.00013758 6.55964e-05 0)
(0.000126551 6.79415e-05 0)
(0.00011508 6.96629e-05 0)
(0.000103275 7.06489e-05 0)
(9.12578e-05 7.07814e-05 0)
(7.91742e-05 6.99466e-05 0)
(6.71849e-05 6.80332e-05 0)
(5.54748e-05 6.49419e-05 0)
(4.42323e-05 6.05968e-05 0)
(3.36929e-05 5.49534e-05 0)
(2.40639e-05 4.80304e-05 0)
(1.56173e-05 3.99409e-05 0)
(8.57632e-06 3.09625e-05 0)
(3.35978e-06 2.08772e-05 0)
(4.24734e-07 7.96909e-06 0)
(5.47428e-07 -3.99689e-06 0)
(3.544e-06 -1.84408e-05 0)
(8.57709e-06 -3.64576e-05 0)
(1.51312e-05 -5.20462e-05 0)
(2.29961e-05 -6.42537e-05 0)
(3.1931e-05 -7.37027e-05 0)
(4.16954e-05 -8.07663e-05 0)
(5.20711e-05 -8.57121e-05 0)
(6.28318e-05 -8.88048e-05 0)
(7.37837e-05 -9.02676e-05 0)
(8.47449e-05 -9.0347e-05 0)
(9.55627e-05 -8.92405e-05 0)
(0.000106106 -8.71676e-05 0)
(0.000116266 -8.42943e-05 0)
(0.000125959 -8.08062e-05 0)
(0.000135117 -7.68373e-05 0)
(0.000143701 -7.25384e-05 0)
(0.000151676 -6.80142e-05 0)
(0.000159037 -6.3383e-05 0)
(0.000165779 -5.87229e-05 0)
(0.000171922 -5.41221e-05 0)
(0.000177483 -4.96344e-05 0)
(0.000182499 -4.53207e-05 0)
(0.000187001 -4.12129e-05 0)
(0.000191038 -3.73472e-05 0)
(0.000194648 -3.37358e-05 0)
(0.000197883 -3.03931e-05 0)
(0.000200782 -2.73143e-05 0)
(0.000203396 -2.44953e-05 0)
(0.000205762 -2.19172e-05 0)
(0.000207922 -1.95609e-05 0)
(0.000209907 -1.73963e-05 0)
(0.000211748 -1.53929e-05 0)
(0.000213466 -1.35131e-05 0)
(0.00021508 -1.17186e-05 0)
(0.000216597 -9.96724e-06 0)
(0.000218023 -8.21701e-06 0)
(0.00021935 -6.4247e-06 0)
(0.00022057 -4.54793e-06 0)
(0.000221663 -2.54586e-06 0)
(0.000222605 -3.79256e-07 0)
(0.000223365 1.98723e-06 0)
(0.000223906 4.58629e-06 0)
(0.000224186 7.44486e-06 0)
(0.00022416 1.05859e-05 0)
(0.000223775 1.40253e-05 0)
(0.000222983 1.77732e-05 0)
(0.000221726 2.18317e-05 0)
(0.000219954 2.61958e-05 0)
(0.00021761 3.08512e-05 0)
(0.000214648 3.57751e-05 0)
(0.000211015 4.09351e-05 0)
(0.000206674 4.62884e-05 0)
(0.000201585 5.17825e-05 0)
(0.000195722 5.73533e-05 0)
(0.000189064 6.29269e-05 0)
(0.000181605 6.84171e-05 0)
(0.000173349 7.37277e-05 0)
(0.000164313 7.87507e-05 0)
(0.000154531 8.33681e-05 0)
(0.000144053 8.74511e-05 0)
(0.000132948 9.08622e-05 0)
(0.000121299 9.34556e-05 0)
(0.000109219 9.50787e-05 0)
(9.68259e-05 9.55766e-05 0)
(8.42822e-05 9.47919e-05 0)
(7.17412e-05 9.25736e-05 0)
(5.94175e-05 8.87814e-05 0)
(4.75099e-05 8.32946e-05 0)
(3.62697e-05 7.60321e-05 0)
(2.59574e-05 6.69685e-05 0)
(1.68555e-05 5.61855e-05 0)
(9.2498e-06 4.39435e-05 0)
(3.61662e-06 2.98288e-05 0)
(4.45971e-07 1.14946e-05 0)
(4.80105e-07 -7.65268e-06 0)
(3.50814e-06 -2.70098e-05 0)
(8.68139e-06 -4.84869e-05 0)
(1.55236e-05 -6.69019e-05 0)
(2.36573e-05 -8.14342e-05 0)
(3.27805e-05 -9.26955e-05 0)
(4.26164e-05 -0.000101081 0)
(5.29252e-05 -0.000106892 0)
(6.34802e-05 -0.000110434 0)
(7.4087e-05 -0.000111977 0)
(8.45723e-05 -0.000111811 0)
(9.47913e-05 -0.000110184 0)
(0.000104624 -0.00010736 0)
(0.000113972 -0.000103554 0)
(0.000122765 -9.89905e-05 0)
(0.000130947 -9.38486e-05 0)
(0.00013849 -8.83128e-05 0)
(0.000145376 -8.25239e-05 0)
(0.00015161 -7.66275e-05 0)
(0.000157203 -7.07294e-05 0)
(0.000162187 -6.49377e-05 0)
(0.000166594 -5.93256e-05 0)
(0.000170473 -5.39669e-05 0)
(0.00017387 -4.89047e-05 0)
(0.000176843 -4.41813e-05 0)
(0.000179446 -3.98134e-05 0)
(0.000181739 -3.58154e-05 0)
(0.000183774 -3.21807e-05 0)
(0.00018561 -2.89005e-05 0)
(0.000187293 -2.59487e-05 0)
(0.000188873 -2.32974e-05 0)
(0.000190386 -2.09058e-05 0)
(0.00019187 -1.87312e-05 0)
(0.000193348 -1.67224e-05 0)
(0.000194842 -1.48272e-05 0)
(0.00019636 -1.29881e-05 0)
(0.000197908 -1.11484e-05 0)
(0.000199477 -9.24887e-06 0)
(0.000201056 -7.23265e-06 0)
(0.000202621 -5.04359e-06 0)
(0.000204143 -2.62908e-06 0)
(0.000205583 5.98385e-08 0)
(0.000206899 3.06708e-06 0)
(0.000208038 6.43039e-06 0)
(0.000208948 1.0181e-05 0)
(0.000209564 1.43416e-05 0)
(0.000209829 1.8927e-05 0)
(0.000209673 2.39414e-05 0)
(0.000209033 2.93798e-05 0)
(0.00020784 3.52247e-05 0)
(0.000206036 4.14481e-05 0)
(0.000203556 4.80085e-05 0)
(0.000200348 5.48524e-05 0)
(0.000196362 6.19117e-05 0)
(0.000191559 6.91056e-05 0)
(0.000185906 7.63385e-05 0)
(0.000179388 8.35012e-05 0)
(0.000171995 9.04697e-05 0)
(0.000163738 9.71065e-05 0)
(0.000154642 0.00010326 0)
(0.000144748 0.000108768 0)
(0.000134121 0.000113451 0)
(0.000122841 0.000117126 0)
(0.000111016 0.000119596 0)
(9.87717e-05 0.000120661 0)
(8.62619e-05 0.000120117 0)
(7.3666e-05 0.000117767 0)
(6.11886e-05 0.000113415 0)
(4.90547e-05 0.000106894 0)
(3.75403e-05 9.80659e-05 0)
(2.69049e-05 8.6858e-05 0)
(1.74923e-05 7.33078e-05 0)
(9.60038e-06 5.76438e-05 0)
(3.74826e-06 3.92658e-05 0)
(4.57859e-07 1.52005e-05 0)
(4.14945e-07 -1.11624e-05 0)
(3.37912e-06 -3.55452e-05 0)
(8.48992e-06 -6.06926e-05 0)
(1.53081e-05 -8.1977e-05 0)
(2.33554e-05 -9.87164e-05 0)
(3.22844e-05 -0.000111575 0)
(4.17887e-05 -0.000121011 0)
(5.16098e-05 -0.000127392 0)
(6.15166e-05 -0.000131081 0)
(7.13145e-05 -0.000132407 0)
(8.08371e-05 -0.000131714 0)
(8.99489e-05 -0.000129307 0)
(9.85419e-05 -0.000125496 0)
(0.000106533 -0.000120548 0)
(0.000113867 -0.000114732 0)
(0.000120505 -0.000108268 0)
(0.000126435 -0.000101378 0)
(0.000131658 -9.4239e-05 0)
(0.000136195 -8.7024e-05 0)
(0.000140079 -7.98661e-05 0)
(0.000143355 -7.28935e-05 0)
(0.000146077 -6.61977e-05 0)
(0.000148307 -5.98646e-05 0)
(0.000150111 -5.39474e-05 0)
(0.00015156 -4.84934e-05 0)
(0.000152724 -4.35216e-05 0)
(0.000153677 -3.9045e-05 0)
(0.000154483 -3.50532e-05 0)
(0.000155212 -3.15299e-05 0)
(0.000155922 -2.84403e-05 0)
(0.00015667 -2.57444e-05 0)
(0.0001575 -2.33883e-05 0)
(0.000158455 -2.13145e-05 0)
(0.000159564 -1.94554e-05 0)
(0.000160849 -1.77419e-05 0)
(0.000162323 -1.60986e-05 0)
(0.000163988 -1.44508e-05 0)
(0.000165836 -1.27211e-05 0)
(0.000167851 -1.08349e-05 0)
(0.000170004 -8.71849e-06 0)
(0.000172262 -6.30315e-06 0)
(0.000174576 -3.52403e-06 0)
(0.000176896 -3.23786e-07 0)
(0.00017916 3.34825e-06 0)
(0.000181304 7.53326e-06 0)
(0.000183253 1.22628e-05 0)
(0.000184935 1.75573e-05 0)
(0.000186266 2.34247e-05 0)
(0.000187172 2.98605e-05 0)
(0.000187567 3.68453e-05 0)
(0.000187378 4.4346e-05 0)
(0.000186525 5.23123e-05 0)
(0.000184943 6.06797e-05 0)
(0.000182563 6.93645e-05 0)
(0.000179334 7.82683e-05 0)
(0.000175207 8.72729e-05 0)
(0.000170153 9.62446e-05 0)
(0.00016415 0.00010503 0)
(0.000157195 0.000113461 0)
(0.000149305 0.000121349 0)
(0.000140508 0.000128493 0)
(0.000130863 0.000134675 0)
(0.000120442 0.000139664 0)
(0.000109353 0.000143217 0)
(9.77127e-05 0.000145083 0)
(8.56895e-05 0.000145007 0)
(7.34471e-05 0.000142732 0)
(6.12192e-05 0.00013801 0)
(4.92327e-05 0.00013061 0)
(3.77695e-05 0.000120335 0)
(2.7142e-05 0.000107055 0)
(1.76725e-05 9.0751e-05 0)
(9.71157e-06 7.16341e-05 0)
(3.79999e-06 4.89048e-05 0)
(4.60986e-07 1.89871e-05 0)
(3.64242e-07 -1.44848e-05 0)
(3.206e-06 -4.38049e-05 0)
(8.10655e-06 -7.26049e-05 0)
(1.46478e-05 -9.66449e-05 0)
(2.22981e-05 -0.000115379 0)
(3.06791e-05 -0.000129558 0)
(3.94655e-05 -0.000139728 0)
(4.8385e-05 -0.000146341 0)
(5.72043e-05 -0.000149832 0)
(6.573e-05 -0.000150605 0)
(7.38038e-05 -0.000149066 0)
(8.13012e-05 -0.000145581 0)
(8.81289e-05 -0.000140516 0)
(9.42215e-05 -0.000134192 0)
(9.95408e-05 -0.000126922 0)
(0.000104071 -0.000118975 0)
(0.00010782 -0.000110609 0)
(0.000110811 -0.000102038 0)
(0.000113087 -9.3462e-05 0)
(0.000114703 -8.50426e-05 0)
(0.000115727 -7.69268e-05 0)
(0.000116234 -6.92236e-05 0)
(0.000116306 -6.20294e-05 0)
(0.000116031 -5.54062e-05 0)
(0.000115497 -4.94039e-05 0)
(0.000114793 -4.40421e-05 0)
(0.000114008 -3.93296e-05 0)
(0.000113224 -3.52496e-05 0)
(0.000112522 -3.17757e-05 0)
(0.000111973 -2.88609e-05 0)
(0.000111643 -2.64507e-05 0)
(0.000111586 -2.44744e-05 0)
(0.000111851 -2.28564e-05 0)
(0.000112471 -2.15096e-05 0)
(0.000113474 -2.03447e-05 0)
(0.000114871 -1.92648e-05 0)
(0.000116665 -1.81742e-05 0)
(0.000118846 -1.69738e-05 0)
(0.000121393 -1.55684e-05 0)
(0.000124272 -1.38634e-05 0)
(0.000127441 -1.17713e-05 0)
(0.000130845 -9.20849e-06 0)
(0.000134423 -6.10165e-06 0)
(0.000138099 -2.3847e-06 0)
(0.000141798 1.99556e-06 0)
(0.000145431 7.08168e-06 0)
(0.00014891 1.29012e-05 0)
(0.000152136 1.94678e-05 0)
(0.000155017 2.67783e-05 0)
(0.000157451 3.48125e-05 0)
(0.000159347 4.35327e-05 0)
(0.000160607 5.28806e-05 0)
(0.000161145 6.27801e-05 0)
(0.000160878 7.31324e-05 0)
(0.000159735 8.38203e-05 0)
(0.000157649 9.47022e-05 0)
(0.000154576 0.000105619 0)
(0.000150475 0.000116385 0)
(0.000145332 0.000126799 0)
(0.000139145 0.000136635 0)
(0.000131934 0.00014565 0)
(0.000123745 0.00015358 0)
(0.000114644 0.000160145 0)
(0.000104729 0.00016505 0)
(9.4121e-05 0.000167989 0)
(8.29731e-05 0.000168647 0)
(7.14737e-05 0.000166705 0)
(5.98409e-05 0.000161849 0)
(4.8317e-05 0.000153785 0)
(3.72142e-05 0.000142246 0)
(2.68136e-05 0.00012704 0)
(1.75097e-05 0.000108097 0)
(9.64461e-06 8.559e-05 0)
(3.77301e-06 5.85445e-05 0)
(4.59262e-07 2.27796e-05 0)
(3.23844e-07 -1.75955e-05 0)
(2.99289e-06 -5.16001e-05 0)
(7.5563e-06 -8.38471e-05 0)
(1.36078e-05 -0.000110379 0)
(2.05855e-05 -0.000130783 0)
(2.80913e-05 -0.00014592 0)
(3.57889e-05 -0.000156435 0)
(4.33983e-05 -0.000162879 0)
(5.06879e-05 -0.000165775 0)
(5.74687e-05 -0.000165609 0)
(6.35937e-05 -0.000162857 0)
(6.89525e-05 -0.000157958 0)
(7.34699e-05 -0.000151336 0)
(7.71012e-05 -0.000143372 0)
(7.98308e-05 -0.00013443 0)
(8.16678e-05 -0.000124825 0)
(8.26449e-05 -0.000114856 0)
(8.2813e-05 -0.000104773 0)
(8.22413e-05 -9.48077e-05 0)
(8.10112e-05 -8.51456e-05 0)
(7.92169e-05 -7.59529e-05 0)
(7.69592e-05 -6.73551e-05 0)
(7.43462e-05 -5.94573e-05 0)
(7.14877e-05 -5.23281e-05 0)
(6.84963e-05 -4.60175e-05 0)
(6.5481e-05 -4.05432e-05 0)
(6.255e-05 -3.59063e-05 0)
(5.98037e-05 -3.20807e-05 0)
(5.73383e-05 -2.90262e-05 0)
(5.52388e-05 -2.66803e-05 0)
(5.35834e-05 -2.49698e-05 0)
(5.24364e-05 -2.38038e-05 0)
(5.18534e-05 -2.30846e-05 0)
(5.18743e-05 -2.27015e-05 0)
(5.25289e-05 -2.25409e-05 0)
(5.38305e-05 -2.2481e-05 0)
(5.57815e-05 -2.24008e-05 0)
(5.83677e-05 -2.2176e-05 0)
(6.15645e-05 -2.1687e-05 0)
(6.53305e-05 -2.08149e-05 0)
(6.96154e-05 -1.94498e-05 0)
(7.43528e-05 -1.74864e-05 0)
(7.94693e-05 -1.48319e-05 0)
(8.48772e-05 -1.14027e-05 0)
(9.04837e-05 -7.13028e-06 0)
(9.61843e-05 -1.95938e-06 0)
(0.000101873 4.14732e-06 0)
(0.000107433 1.12102e-05 0)
(0.00011275 1.92297e-05 0)
(0.000117705 2.81856e-05 0)
(0.000122183 3.80364e-05 0)
(0.000126066 4.87165e-05 0)
(0.000129248 6.01384e-05 0)
(0.000131621 7.21876e-05 0)
(0.000133094 8.47275e-05 0)
(0.000133582 9.75925e-05 0)
(0.000133017 0.000110595 0)
(0.000131341 0.000123519 0)
(0.000128521 0.000136124 0)
(0.000124538 0.000148144 0)
(0.000119399 0.000159291 0)
(0.000113135 0.000169251 0)
(0.000105802 0.000177693 0)
(9.74905e-05 0.00018426 0)
(8.83085e-05 0.00018859 0)
(7.84236e-05 0.000190298 0)
(6.79979e-05 0.000189001 0)
(5.7279e-05 0.000184314 0)
(4.65067e-05 0.000175866 0)
(3.59849e-05 0.000163325 0)
(2.60595e-05 0.000146422 0)
(1.70789e-05 0.000125032 0)
(9.43853e-06 9.92947e-05 0)
(3.71295e-06 6.80461e-05 0)
(4.52997e-07 2.6528e-05 0)
(2.89853e-07 -2.04662e-05 0)
(2.7353e-06 -5.87649e-05 0)
(6.84204e-06 -9.40963e-05 0)
(1.22073e-05 -0.000122717 0)
(1.82518e-05 -0.000144349 0)
(2.45641e-05 -0.000159975 0)
(3.0802e-05 -0.000170354 0)
(3.6684e-05 -0.00017615 0)
(4.19839e-05 -0.00017798 0)
(4.65224e-05 -0.000176424 0)
(5.01676e-05 -0.000172037 0)
(5.28278e-05 -0.000165338 0)
(5.44501e-05 -0.000156816 0)
(5.50152e-05 -0.000146917 0)
(5.45351e-05 -0.000136057 0)
(5.30482e-05 -0.000124606 0)
(5.06176e-05 -0.000112901 0)
(4.73261e-05 -0.000101233 0)
(4.3274e-05 -8.98597e-05 0)
(3.85748e-05 -7.89957e-05 0)
(3.33534e-05 -6.88236e-05 0)
(2.77414e-05 -5.94836e-05 0)
(2.1876e-05 -5.10873e-05 0)
(1.58952e-05 -4.37075e-05 0)
(9.93755e-06 -3.7391e-05 0)
(4.13736e-06 -3.21504e-05 0)
(-1.37506e-06 -2.79755e-05 0)
(-6.47814e-06 -2.48269e-05 0)
(-1.10578e-05 -2.26464e-05 0)
(-1.50125e-05 -2.13517e-05 0)
(-1.82507e-05 -2.08463e-05 0)
(-2.06966e-05 -2.1015e-05 0)
(-2.22861e-05 -2.17326e-05 0)
(-2.29728e-05 -2.28611e-05 0)
(-2.27235e-05 -2.42574e-05 0)
(-2.15235e-05 -2.57704e-05 0)
(-1.93715e-05 -2.72492e-05 0)
(-1.62855e-05 -2.85401e-05 0)
(-1.22963e-05 -2.94943e-05 0)
(-7.45324e-06 -2.99652e-05 0)
(-1.81738e-06 -2.98159e-05 0)
(4.53262e-06 -2.89162e-05 0)
(1.15086e-05 -2.71501e-05 0)
(1.90067e-05 -2.44132e-05 0)
(2.69161e-05 -2.06185e-05 0)
(3.51127e-05 -1.56957e-05 0)
(4.3469e-05 -9.59492e-06 0)
(5.18471e-05 -2.28723e-06 0)
(6.01097e-05 6.23337e-06 0)
(6.81124e-05 1.59476e-05 0)
(7.5716e-05 2.68118e-05 0)
(8.2778e-05 3.8753e-05 0)
(8.9166e-05 5.16729e-05 0)
(9.47484e-05 6.54408e-05 0)
(9.94088e-05 7.99003e-05 0)
(0.000103036 9.48602e-05 0)
(0.00010554 0.000110104 0)
(0.00010684 0.000125379 0)
(0.000106881 0.000140409 0)
(0.000105624 0.00015488 0)
(0.000103058 0.000168458 0)
(9.92005e-05 0.000180772 0)
(9.40897e-05 0.000191437 0)
(8.78071e-05 0.00020003 0)
(8.046e-05 0.000206124 0)
(7.21926e-05 0.000209261 0)
(6.31961e-05 0.000208988 0)
(5.36876e-05 0.000204836 0)
(4.39294e-05 0.000196363 0)
(3.42452e-05 0.000183149 0)
(2.49415e-05 0.000164857 0)
(1.64479e-05 0.000141294 0)
(9.13735e-06 0.000112554 0)
(3.60559e-06 7.72954e-05 0)
(4.45559e-07 3.01949e-05 0)
(2.58079e-07 -2.30562e-05 0)
(2.42415e-06 -6.51247e-05 0)
(5.95001e-06 -0.000103034 0)
(1.0431e-05 -0.000133205 0)
(1.52754e-05 -0.000155495 0)
(2.00631e-05 -0.000171025 0)
(2.44504e-05 -0.000180682 0)
(2.81587e-05 -0.000185251 0)
(3.09723e-05 -0.000185456 0)
(3.27266e-05 -0.000181981 0)
(3.33102e-05 -0.00017547 0)
(3.26551e-05 -0.000166526 0)
(3.07369e-05 -0.000155712 0)
(2.75666e-05 -0.000143544 0)
(2.31899e-05 -0.000130496 0)
(1.76803e-05 -0.000116992 0)
(1.11373e-05 -0.000103412 0)
(3.68078e-06 -9.00877e-05 0)
(-4.55157e-06 -7.73057e-05 0)
(-1.34089e-05 -6.53059e-05 0)
(-2.273e-05 -5.42868e-05 0)
(-3.23474e-05 -4.44015e-05 0)
(-4.209e-05 -3.57654e-05 0)
(-5.17867e-05 -2.84524e-05 0)
(-6.12686e-05 -2.25025e-05 0)
(-7.03725e-05 -1.79189e-05 0)
(-7.8942e-05 -1.46759e-05 0)
(-8.68314e-05 -1.27161e-05 0)
(-9.39057e-05 -1.19582e-05 0)
(-0.000100045 -1.22954e-05 0)
(-0.000105141 -1.36023e-05 0)
(-0.000109107 -1.57339e-05 0)
(-0.000111867 -1.85328e-05 0)
(-0.00011337 -2.18276e-05 0)
(-0.000113576 -2.54404e-05 0)
(-0.000112472 -2.91858e-05 0)
(-0.000110056 -3.28774e-05 0)
(-0.000106353 -3.63273e-05 0)
(-0.000101399 -3.93523e-05 0)
(-9.52543e-05 -4.17734e-05 0)
(-8.79926e-05 -4.34219e-05 0)
(-7.9707e-05 -4.41388e-05 0)
(-7.05032e-05 -4.37804e-05 0)
(-6.0504e-05 -4.22179e-05 0)
(-4.98419e-05 -3.93425e-05 0)
(-3.86633e-05 -3.50655e-05 0)
(-2.71212e-05 -2.93217e-05 0)
(-1.53785e-05 -2.20713e-05 0)
(-3.60077e-06 -1.33008e-05 0)
(8.04046e-06 -3.02675e-06 0)
(1.93764e-05 8.70577e-06 0)
(3.02357e-05 2.18175e-05 0)
(4.0456e-05 3.61992e-05 0)
(4.98766e-05 5.17041e-05 0)
(5.83513e-05 6.81545e-05 0)
(6.57414e-05 8.5333e-05 0)
(7.1927e-05 0.000102991 0)
(7.68035e-05 0.00012084 0)
(8.02872e-05 0.000138559 0)
(8.23209e-05 0.000155789 0)
(8.28673e-05 0.000172141 0)
(8.19271e-05 0.000187187 0)
(7.95227e-05 0.000200476 0)
(7.57236e-05 0.000211521 0)
(7.06188e-05 0.000219816 0)
(6.43634e-05 0.000224833 0)
(5.71167e-05 0.000226028 0)
(4.91256e-05 0.000222858 0)
(4.06433e-05 0.000214785 0)
(3.19824e-05 0.000201312 0)
(2.35221e-05 0.000182013 0)
(1.56307e-05 0.000156623 0)
(8.74746e-06 0.000125192 0)
(3.49063e-06 8.61881e-05 0)
(4.32991e-07 3.37495e-05 0)
(2.26098e-07 -2.53151e-05 0)
(2.0495e-06 -7.04961e-05 0)
(4.85794e-06 -0.000110331 0)
(8.23829e-06 -0.000141368 0)
(1.15905e-05 -0.000163608 0)
(1.44894e-05 -0.000178325 0)
(1.6593e-05 -0.000186549 0)
(1.76307e-05 -0.000189198 0)
(1.74025e-05 -0.000187117 0)
(1.57642e-05 -0.000181101 0)
(1.26309e-05 -0.000171894 0)
(7.96492e-06 -0.000160192 0)
(1.77655e-06 -0.000146638 0)
(-5.88569e-06 -0.000131823 0)
(-1.49359e-05 -0.000116283 0)
(-2.52587e-05 -0.000100501 0)
(-3.67113e-05 -8.49009e-05 0)
(-4.913e-05 -6.98547e-05 0)
(-6.23329e-05 -5.56795e-05 0)
(-7.61257e-05 -4.2639e-05 0)
(-9.03044e-05 -3.09461e-05 0)
(-0.00010466 -2.07638e-05 0)
(-0.000118982 -1.22084e-05 0)
(-0.00013306 -5.35054e-06 0)
(-0.000146692 -2.19456e-07 0)
(-0.000159679 3.19591e-06 0)
(-0.000171836 4.94217e-06 0)
(-0.000182989 5.10013e-06 0)
(-0.000192979 3.77979e-06 0)
(-0.000201664 1.11883e-06 0)
(-0.000208921 -2.72264e-06 0)
(-0.000214645 -7.56364e-06 0)
(-0.000218752 -1.32076e-05 0)
(-0.00022118 -1.94441e-05 0)
(-0.000221888 -2.6054e-05 0)
(-0.00022086 -3.28113e-05 0)
(-0.000218099 -3.94879e-05 0)
(-0.000213632 -4.58559e-05 0)
(-0.000207508 -5.16918e-05 0)
(-0.000199796 -5.67789e-05 0)
(-0.000190586 -6.09113e-05 0)
(-0.000179989 -6.3896e-05 0)
(-0.00016813 -6.55569e-05 0)
(-0.000155155 -6.57368e-05 0)
(-0.000141222 -6.43006e-05 0)
(-0.000126504 -6.1138e-05 0)
(-0.000111183 -5.61652e-05 0)
(-9.54517e-05 -4.93287e-05 0)
(-7.95082e-05 -4.06052e-05 0)
(-6.35567e-05 -3.00068e-05 0)
(-4.77999e-05 -1.75787e-05 0)
(-3.24429e-05 -3.40556e-06 0)
(-1.76831e-05 1.23923e-05 0)
(-3.71527e-06 2.96519e-05 0)
(9.28e-06 4.81733e-05 0)
(2.11308e-05 6.77112e-05 0)
(3.16848e-05 8.79832e-05 0)
(4.08063e-05 0.00010866 0)
(4.8383e-05 0.000129377 0)
(5.43281e-05 0.000149721 0)
(5.85824e-05 0.000169246 0)
(6.11214e-05 0.000187462 0)
(6.19509e-05 0.000203845 0)
(6.11185e-05 0.000217838 0)
(5.87144e-05 0.00022885 0)
(5.48605e-05 0.00023627 0)
(4.97448e-05 0.000239467 0)
(4.35815e-05 0.000237802 0)
(3.66385e-05 0.000230648 0)
(2.92621e-05 0.000217407 0)
(2.17728e-05 0.000197569 0)
(1.46415e-05 0.000170787 0)
(8.28248e-06 0.000137051 0)
(3.32997e-06 9.46418e-05 0)
(4.23966e-07 3.71686e-05 0)
(1.92e-07 -2.71782e-05 0)
(1.59817e-06 -7.46627e-05 0)
(3.53105e-06 -0.000115607 0)
(5.56243e-06 -0.000146668 0)
(7.08743e-06 -0.000167992 0)
(7.6801e-06 -0.000181028 0)
(7.00361e-06 -0.000186966 0)
(4.80094e-06 -0.000186871 0)
(8.93075e-07 -0.000181723 0)
(-4.83669e-06 -0.000172438 0)
(-1.24399e-05 -0.00015987 0)
(-2.19163e-05 -0.000144816 0)
(-3.32133e-05 -0.000128009 0)
(-4.62369e-05 -0.000110118 0)
(-6.0853e-05 -9.17479e-05 0)
(-7.68962e-05 -7.34399e-05 0)
(-9.41725e-05 -5.56678e-05 0)
(-0.000112466 -3.88431e-05 0)
(-0.000131545 -2.33123e-05 0)
(-0.000151162 -9.36162e-06 0)
(-0.000171063 2.78353e-06 0)
(-0.000190993 1.2954e-05 0)
(-0.000210693 2.10363e-05 0)
(-0.000229911 2.69678e-05 0)
(-0.000248401 3.07351e-05 0)
(-0.000265928 3.23695e-05 0)
(-0.000282272 3.19443e-05 0)
(-0.000297227 2.95705e-05 0)
(-0.000310606 2.53934e-05 0)
(-0.000322244 1.95888e-05 0)
(-0.000331995 1.23585e-05 0)
(-0.000339741 3.92687e-06 0)
(-0.000345384 -5.46325e-06 0)
(-0.000348854 -1.55548e-05 0)
(-0.000350106 -2.60802e-05 0)
(-0.000349122 -3.67654e-05 0)
(-0.00034591 -4.73341e-05 0)
(-0.000340503 -5.7511e-05 0)
(-0.000332961 -6.70259e-05 0)
(-0.000323368 -7.56177e-05 0)
(-0.000311831 -8.30375e-05 0)
(-0.000298482 -8.90524e-05 0)
(-0.000283471 -9.34484e-05 0)
(-0.000266969 -9.6035e-05 0)
(-0.000249164 -9.66461e-05 0)
(-0.000230261 -9.51456e-05 0)
(-0.000210475 -9.14275e-05 0)
(-0.000190036 -8.54215e-05 0)
(-0.000169178 -7.70919e-05 0)
(-0.000148143 -6.64442e-05 0)
(-0.000127174 -5.35223e-05 0)
(-0.000106517 -3.84158e-05 0)
(-8.64077e-05 -2.12553e-05 0)
(-6.70818e-05 -2.2209e-06 0)