/*--------------------------------*- C++ -*----------------------------------*\
  =========                 |
  \\      /  F ield         | OpenFOAM: The Open Source CFD Toolbox
   \\    /   O peration     | Website:  https://openfoam.org
    \\  /    A nd           | Version:  12
     \\/     M anipulation  |
\*---------------------------------------------------------------------------*/
FoamFile
{
    format      ascii;
    class       volScalarField;
    location    "8";
    object      k;
}
// * * * * * * * * * * * * * * * * * * * * * * * * * * * * * * * * * * * * * //

dimensions      [0 2 -2 0 0 0 0];

internalField   nonuniform List<scalar> 
18225
(
3.63316e-10
2.45887e-09
5.48161e-09
9.09367e-09
1.31391e-08
1.7519e-08
2.21587e-08
2.69966e-08
3.19787e-08
3.7057e-08
4.21886e-08
4.73362e-08
5.24683e-08
5.75603e-08
6.25952e-08
6.75646e-08
7.24696e-08
7.73215e-08
8.21423e-08
8.69656e-08
9.1837e-08
9.68146e-08
1.0197e-07
1.07387e-07
1.13165e-07
1.19418e-07
1.26276e-07
1.33885e-07
1.42408e-07
1.52026e-07
1.62941e-07
1.75373e-07
1.89562e-07
2.05772e-07
2.24284e-07
2.45402e-07
2.69453e-07
2.9678e-07
3.27747e-07
3.62736e-07
4.02146e-07
4.46387e-07
4.95883e-07
5.51071e-07
6.12392e-07
6.80296e-07
7.55237e-07
8.3767e-07
9.28054e-07
1.02684e-06
1.13449e-06
1.25144e-06
1.37813e-06
1.51499e-06
1.66243e-06
1.82085e-06
1.99062e-06
2.17209e-06
2.36559e-06
2.5714e-06
2.78981e-06
3.02105e-06
3.26532e-06
3.52279e-06
3.79361e-06
4.0779e-06
4.37575e-06
4.6872e-06
5.01229e-06
5.35103e-06
5.7034e-06
6.06937e-06
6.44885e-06
6.84174e-06
7.24792e-06
7.66722e-06
8.09941e-06
8.54425e-06
9.0014e-06
9.47047e-06
9.95098e-06
1.04424e-05
1.09439e-05
1.14547e-05
1.19738e-05
1.25e-05
1.30318e-05
1.35676e-05
1.41053e-05
1.46425e-05
1.51765e-05
1.57041e-05
1.62216e-05
1.67246e-05
1.72085e-05
1.76679e-05
1.80966e-05
1.84881e-05
1.88346e-05
1.91281e-05
1.93597e-05
1.95141e-05
1.95843e-05
1.95911e-05
1.95006e-05
1.93032e-05
1.89951e-05
1.85736e-05
1.80379e-05
1.73896e-05
1.66331e-05
1.57766e-05
1.48317e-05
1.38132e-05
1.2739e-05
1.16291e-05
1.05046e-05
9.38697e-06
8.29647e-06
7.25139e-06
6.26711e-06
5.35543e-06
4.52431e-06
3.77791e-06
3.11679e-06
2.53851e-06
2.03815e-06
1.60912e-06
1.24365e-06
9.3369e-07
6.71477e-07
4.5037e-07
2.65926e-07
1.18018e-07
1.74068e-08
2.74611e-09
2.18991e-08
4.91893e-08
8.17377e-08
1.18172e-07
1.5761e-07
1.99383e-07
2.42938e-07
2.87789e-07
3.33505e-07
3.79699e-07
4.26036e-07
4.72231e-07
5.18064e-07
5.6338e-07
6.08106e-07
6.5225e-07
6.95913e-07
7.39294e-07
7.82695e-07
8.26526e-07
8.7131e-07
9.17687e-07
9.66419e-07
1.0184e-06
1.07465e-06
1.13634e-06
1.20478e-06
1.28145e-06
1.36797e-06
1.46616e-06
1.57799e-06
1.70564e-06
1.85146e-06
2.018e-06
2.208e-06
2.42438e-06
2.67024e-06
2.94887e-06
3.26369e-06
3.61829e-06
4.01637e-06
4.46175e-06
4.95835e-06
5.51016e-06
6.12121e-06
6.79559e-06
7.5374e-06
8.35076e-06
9.23977e-06
1.02085e-05
1.12609e-05
1.24011e-05
1.36327e-05
1.49596e-05
1.63853e-05
1.79131e-05
1.95462e-05
2.12875e-05
2.31398e-05
2.51053e-05
2.71862e-05
2.93844e-05
3.17015e-05
3.41386e-05
3.6697e-05
3.93772e-05
4.21799e-05
4.51053e-05
4.81535e-05
5.13243e-05
5.46173e-05
5.8032e-05
6.15673e-05
6.52221e-05
6.89948e-05
7.28835e-05
7.6886e-05
8.09992e-05
8.52196e-05
8.95429e-05
9.39639e-05
9.84761e-05
0.000103072
0.000107743
0.000112477
0.000117262
0.000122082
0.00012692
0.000131755
0.00013656
0.000141308
0.000145964
0.000150492
0.000154848
0.000158983
0.000162844
0.000166369
0.000169491
0.000172136
0.000174214
0.000175589
0.000176199
0.000176249
0.00017542
0.000173629
0.000170842
0.000167038
0.000162209
0.000156368
0.000149557
0.000141849
0.000133348
0.000124187
0.000114528
0.000104549
9.44396e-05
8.43923e-05
7.45893e-05
6.51947e-05
5.63463e-05
4.81503e-05
4.06782e-05
3.39674e-05
2.80232e-05
2.28234e-05
1.83242e-05
1.44653e-05
1.11784e-05
8.39083e-06
6.03276e-06
4.04403e-06
2.38415e-06
1.05033e-06
1.3151e-07
5.83382e-09
5.00262e-08
1.13098e-07
1.88328e-07
2.72527e-07
3.63655e-07
4.6017e-07
5.60793e-07
6.64405e-07
7.70009e-07
8.76713e-07
9.83738e-07
1.09043e-06
1.19627e-06
1.30091e-06
1.40418e-06
1.50609e-06
1.60687e-06
1.70699e-06
1.80714e-06
1.90827e-06
2.01158e-06
2.11855e-06
2.23094e-06
2.35082e-06
2.48053e-06
2.62278e-06
2.78061e-06
2.9574e-06
3.15693e-06
3.38337e-06
3.64129e-06
3.93572e-06
4.27208e-06
4.65628e-06
5.09462e-06
5.59388e-06
6.16121e-06
6.80421e-06
7.53079e-06
8.34925e-06
9.26816e-06
1.02964e-05
1.14429e-05
1.2717e-05
1.4128e-05
1.56854e-05
1.73987e-05
1.92774e-05
2.13311e-05
2.35692e-05
2.6001e-05
2.86357e-05
3.14822e-05
3.45492e-05
3.7845e-05
4.13774e-05
4.51539e-05
4.91814e-05
5.34661e-05
5.80137e-05
6.28292e-05
6.79171e-05
7.32811e-05
7.89244e-05
8.48494e-05
9.10582e-05
9.75519e-05
0.000104331
0.000111396
0.000118747
0.000126382
0.000134301
0.000142499
0.000150976
0.000159725
0.000168744
0.000178025
0.000187561
0.000197344
0.000207362
0.000217603
0.00022805
0.000238686
0.000249487
0.000260428
0.000271479
0.000282602
0.000293755
0.000304888
0.000315943
0.000326854
0.000337543
0.000347922
0.000357893
0.000367344
0.000376152
0.00038418
0.000391272
0.000397265
0.000401968
0.000405043
0.000406349
0.000406413
0.000404441
0.000400255
0.000393784
0.000384978
0.000373819
0.000360336
0.000344625
0.000326852
0.000307255
0.000286141
0.000263877
0.000240878
0.00021758
0.000194425
0.000171833
0.000150183
0.000129793
0.000110908
9.36917e-05
7.82303e-05
6.4536e-05
5.25575e-05
4.21934e-05
3.33056e-05
2.57348e-05
1.93136e-05
1.38807e-05
9.29742e-06
5.47056e-06
2.39477e-06
2.78864e-07
9.54297e-09
8.3875e-08
1.90537e-07
3.17926e-07
4.6054e-07
6.14892e-07
7.78364e-07
9.48785e-07
1.12426e-06
1.3031e-06
1.48378e-06
1.66499e-06
1.84562e-06
2.02479e-06
2.2019e-06
2.37664e-06
2.54906e-06
2.71954e-06
2.88886e-06
3.05819e-06
3.22913e-06
3.40373e-06
3.58448e-06
3.77436e-06
3.97686e-06
4.19598e-06
4.43626e-06
4.70286e-06
5.0015e-06
5.33859e-06
5.72117e-06
6.15701e-06
6.65459e-06
7.22313e-06
7.8726e-06
8.61373e-06
9.45795e-06
1.04175e-05
1.15051e-05
1.27343e-05
1.41191e-05
1.56742e-05
1.74144e-05
1.93553e-05
2.15124e-05
2.39017e-05
2.65394e-05
2.94415e-05
3.26245e-05
3.61044e-05
3.98974e-05
4.40196e-05
4.84866e-05
5.33138e-05
5.85161e-05
6.41078e-05
7.01024e-05
7.65129e-05
8.33511e-05
9.0628e-05
9.83536e-05
0.000106537
0.000115185
0.000124305
0.000133903
0.000143982
0.000154547
0.000165598
0.000177138
0.000189165
0.000201678
0.000214675
0.000228153
0.000242104
0.000256523
0.0002714
0.000286724
0.000302484
0.000318663
0.000335242
0.000352202
0.000369515
0.000387153
0.00040508
0.000423258
0.00044164
0.000460172
0.000478791
0.000497426
0.000515994
0.000534398
0.000552529
0.000570261
0.000587451
0.000603939
0.000619545
0.000634068
0.000647285
0.000658951
0.000668797
0.000676524
0.000681531
0.000683596
0.00068366
0.000680343
0.000673335
0.000662521
0.000647811
0.000629161
0.000606611
0.000580308
0.000550518
0.000517633
0.000482165
0.00044473
0.000406022
0.000366783
0.000327763
0.000289677
0.000253169
0.000218782
0.000186932
0.000157899
0.000131829
0.000108741
8.85494e-05
7.1081e-05
5.61024e-05
4.33437e-05
3.25214e-05
2.33632e-05
1.56356e-05
9.18286e-06
4.00123e-06
4.54626e-07
1.37584e-08
1.22141e-07
2.78428e-07
4.65418e-07
6.74879e-07
9.01621e-07
1.14177e-06
1.39213e-06
1.6499e-06
1.9126e-06
2.17798e-06
2.44411e-06
2.70934e-06
2.97238e-06
3.23234e-06
3.48878e-06
3.74174e-06
3.99178e-06
4.24004e-06
4.48825e-06
4.73875e-06
4.99454e-06
5.25928e-06
5.53736e-06
5.83387e-06
6.1547e-06
6.50653e-06
6.8969e-06
7.33424e-06
7.82794e-06
8.38836e-06
9.0269e-06
9.75604e-06
1.05893e-05
1.15414e-05
1.26281e-05
1.38663e-05
1.52738e-05
1.68696e-05
1.86735e-05
2.07063e-05
2.29894e-05
2.5545e-05
2.83959e-05
3.15651e-05
3.50764e-05
3.89534e-05
4.32203e-05
4.79012e-05
5.30202e-05
5.86014e-05
6.46685e-05
7.12452e-05
7.83542e-05
8.60182e-05
9.42585e-05
0.000103096
0.000112549
0.000122637
0.000133376
0.000144781
0.000156865
0.000169641
0.000183117
0.000197302
0.000212201
0.000227819
0.000244157
0.000261215
0.00027899
0.000297476
0.000316667
0.000336551
0.000357116
0.000378344
0.000400218
0.000422713
0.000445803
0.000469459
0.000493646
0.000518324
0.000543451
0.000568977
0.000594847
0.000621
0.000647366
0.000673867
0.000700415
0.00072691
0.000753239
0.000779273
0.000804864
0.000829843
0.000854023
0.000877188
0.000899097
0.000919481
0.000938036
0.000954436
0.000968314
0.000979237
0.000986394
0.000989376
0.000989558
0.000985063
0.000975304
0.000960119
0.000939354
0.000912913
0.000880816
0.000843238
0.000800532
0.000753238
0.000702078
0.000647937
0.000591827
0.000534834
0.000478067
0.000422589
0.000369362
0.000319195
0.000272714
0.000230339
0.000192288
0.000158596
0.000129134
0.00010365
8.18011e-05
6.31903e-05
4.74028e-05
3.40405e-05
2.27634e-05
1.33478e-05
5.79687e-06
6.52141e-07
1.83998e-08
1.64123e-07
3.75064e-07
6.27907e-07
9.11354e-07
1.21829e-06
1.54341e-06
1.88237e-06
2.23135e-06
2.58698e-06
2.94621e-06
3.30641e-06
3.66532e-06
4.02119e-06
4.3728e-06
4.71955e-06
5.06148e-06
5.39935e-06
5.7347e-06
6.06985e-06
6.40799e-06
6.75316e-06
7.11033e-06
7.48542e-06
7.88533e-06
8.31802e-06
8.79254e-06
9.31908e-06
9.90908e-06
1.05752e-05
1.13316e-05
1.21935e-05
1.31781e-05
1.43035e-05
1.55898e-05
1.70583e-05
1.8732e-05
2.06351e-05
2.27934e-05
2.52339e-05
2.79849e-05
3.10755e-05
3.45361e-05
3.83975e-05
4.26915e-05
4.74504e-05
5.27067e-05
5.84934e-05
6.48437e-05
7.17907e-05
7.93676e-05
8.76074e-05
9.65425e-05
0.000106205
0.000116626
0.000127834
0.00013986
0.00015273
0.000166469
0.0001811
0.000196643
0.000213118
0.000230538
0.000248917
0.000268263
0.000288582
0.000309876
0.000332143
0.000355376
0.000379565
0.000404694
0.000430745
0.000457692
0.000485504
0.000514149
0.000543585
0.000573768
0.000604649
0.000636173
0.000668283
0.000700915
0.000734002
0.000767471
0.000801246
0.000835244
0.000869376
0.000903546
0.000937649
0.000971567
0.00100517
0.00103831
0.00107083
0.00110252
0.00113317
0.00116254
0.00119034
0.00121625
0.0012399
0.00126089
0.00127878
0.00129298
0.00130263
0.00130688
0.00130747
0.0013024
0.00129049
0.00127154
0.00124532
0.00121163
0.00117043
0.00112188
0.00106639
0.0010046
0.000937453
0.000866081
0.000791825
0.000716148
0.000640552
0.000566498
0.000495315
0.00042813
0.000365821
0.000308983
0.000257931
0.000212723
0.000173195
0.000139006
0.000109697
8.47324e-05
6.35526e-05
4.56228e-05
3.04884e-05
1.78545e-05
7.73615e-06
8.66235e-07
2.34164e-08
2.09406e-07
4.79414e-07
8.03606e-07
1.16735e-06
1.5614e-06
1.97888e-06
2.41416e-06
2.86232e-06
3.31898e-06
3.78023e-06
4.24263e-06
4.70328e-06
5.15992e-06
5.61096e-06
6.05559e-06
6.49387e-06
6.92679e-06
7.35628e-06
7.78536e-06
8.21809e-06
8.65968e-06
9.1165e-06
9.59615e-06
1.01075e-05
1.06608e-05
1.12676e-05
1.1941e-05
1.26957e-05
1.35481e-05
1.45162e-05
1.56198e-05
1.68807e-05
1.83225e-05
1.9971e-05
2.18537e-05
2.40001e-05
2.64416e-05
2.92116e-05
3.23448e-05
3.58778e-05
3.98485e-05
4.42961e-05
4.92607e-05
5.47836e-05
6.09067e-05
6.76725e-05
7.51239e-05
8.33045e-05
9.22576e-05
0.000102027
0.000112655
0.000124186
0.000136661
0.00015012
0.000164605
0.000180152
0.000196797
0.000214572
0.000233508
0.000253629
0.000274957
0.000297511
0.000321302
0.000346338
0.000372618
0.000400138
0.000428884
0.000458837
0.000489969
0.000522245
0.00055562
0.000590044
0.000625459
0.000661798
0.00069899
0.000736956
0.000775615
0.000814881
0.000854665
0.000894876
0.000935424
0.000976215
0.00101716
0.00105816
0.00109912
0.00113994
0.00118052
0.00122075
0.00126049
0.00129961
0.00133794
0.0013753
0.00141146
0.00144617
0.00147912
0.00150995
0.00153826
0.00156358
0.00158537
0.00160295
0.00161552
0.00162159
0.00162301
0.00161824
0.00160515
0.00158351
0.00155297
0.00151319
0.00146405
0.00140563
0.00133834
0.00126291
0.00118042
0.00109224
0.00100003
0.000905622
0.000810929
0.000717837
0.000628089
0.000543181
0.000464291
0.000392234
0.00032746
0.000270073
0.000219885
0.000176477
0.000139263
0.000107564
8.06687e-05
5.78952e-05
3.86689e-05
2.26227e-05
9.78617e-06
1.09303e-06
2.87765e-08
2.57731e-07
5.90836e-07
9.91383e-07
1.44119e-06
1.92869e-06
2.44532e-06
2.98403e-06
3.53869e-06
4.10384e-06
4.6746e-06
5.24668e-06
5.81646e-06
6.38109e-06
6.9386e-06
7.48798e-06
8.02927e-06
8.56367e-06
9.09362e-06
9.6228e-06
1.01563e-05
1.07005e-05
1.12633e-05
1.18542e-05
1.2484e-05
1.31656e-05
1.39132e-05
1.4743e-05
1.56734e-05
1.67244e-05
1.79185e-05
1.92803e-05
2.08369e-05
2.26175e-05
2.46541e-05
2.6981e-05
2.96349e-05
3.26551e-05
3.60829e-05
3.99618e-05
4.43376e-05
4.92576e-05
5.47709e-05
6.09278e-05
6.778e-05
7.53803e-05
8.37823e-05
9.30401e-05
0.000103209
0.000114343
0.000126498
0.000139728
0.000154089
0.000169633
0.000186413
0.000204478
0.000223875
0.000244649
0.00026684
0.000290481
0.000315604
0.00034223
0.000370375
0.000400047
0.000431244
0.000463954
0.000498155
0.000533814
0.000570884
0.000609309
0.000649017
0.000689928
0.000731949
0.000774979
0.000818908
0.00086362
0.000908996
0.000954914
0.00100125
0.0010479
0.00109473
0.00114165
0.00118854
0.00123533
0.00128192
0.00132824
0.0013742
0.00141972
0.00146472
0.00150911
0.00155277
0.00159558
0.00163736
0.00167791
0.00171698
0.00175426
0.00178937
0.00182187
0.00185123
0.00187684
0.00189794
0.00191377
0.00192231
0.00192499
0.00192145
0.00190828
0.00188518
0.00185169
0.00180732
0.00175179
0.00168511
0.00160763
0.0015201
0.00142368
0.00131995
0.00121081
0.00109845
0.000985169
0.000873294
0.000765003
0.000662201
0.000566419
0.000478745
0.000399808
0.000329801
0.000268538
0.000215533
0.000170085
0.000131369
9.85146e-05
7.06898e-05
4.71952e-05
2.759e-05
1.19213e-05
1.32954e-06
3.44607e-08
3.08939e-07
7.08935e-07
1.19053e-06
1.73179e-06
2.31871e-06
2.94087e-06
3.5897e-06
4.25776e-06
4.93843e-06
5.62575e-06
6.31451e-06
7.00032e-06
7.6797e-06
8.35023e-06
9.01067e-06
9.66106e-06
1.03029e-05
1.0939e-05
1.15738e-05
1.22136e-05
1.2866e-05
1.35405e-05
1.42486e-05
1.50034e-05
1.58202e-05
1.67164e-05
1.77115e-05
1.88275e-05
2.00888e-05
2.15223e-05
2.3158e-05
2.50284e-05
2.71691e-05
2.96187e-05
3.24188e-05
3.56139e-05
3.92517e-05
4.33824e-05
4.80592e-05
5.33375e-05
5.92751e-05
6.5932e-05
7.33697e-05
8.16517e-05
9.08424e-05
0.000101008
0.000112215
0.00012453
0.000138022
0.000152759
0.000168809
0.000186238
0.000205112
0.000225494
0.000247446
0.000271023
0.000296278
0.000323256
0.000351994
0.000382523
0.00041486
0.000449013
0.000484978
0.000522733
0.000562245
0.000603461
0.000646311
0.000690711
0.000736555
0.000783724
0.000832081
0.000881481
0.000931765
0.000982769
0.00103433
0.00108628
0.00113845
0.00119071
0.00124291
0.00129494
0.00134668
0.00139805
0.00144899
0.00149944
0.00154935
0.00159871
0.00164748
0.00169564
0.00174313
0.0017899
0.00183586
0.00188088
0.00192479
0.00196733
0.0020082
0.00204701
0.00208327
0.0021164
0.00214572
0.00217042
0.00218966
0.00220129
0.00220563
0.00220399
0.00219177
0.00216839
0.0021333
0.00208589
0.00202571
0.00195264
0.00186693
0.0017693
0.00166094
0.00154352
0.00141916
0.00129031
0.00115964
0.00102988
0.000903649
0.000783289
0.000670723
0.000567369
0.000474092
0.000391223
0.00031862
0.00025576
0.000201842
0.000155899
0.000116905
8.38742e-05
5.59803e-05
3.27074e-05
1.4121e-05
1.5734e-06
4.0458e-08
3.6294e-07
8.33487e-07
1.40063e-06
2.03853e-06
2.73058e-06
3.46438e-06
4.22976e-06
5.01785e-06
5.82076e-06
6.63139e-06
7.44354e-06
8.25194e-06
9.05244e-06
9.84216e-06
1.06196e-05
1.13848e-05
1.21394e-05
1.2887e-05
1.36327e-05
1.43838e-05
1.51495e-05
1.5941e-05
1.67717e-05
1.76574e-05
1.8616e-05
1.96681e-05
2.08368e-05
2.2148e-05
2.36306e-05
2.53167e-05
2.72414e-05
2.94435e-05
3.19652e-05
3.48523e-05
3.81543e-05
4.19242e-05
4.62186e-05
5.10977e-05
5.66246e-05
6.28658e-05
6.98905e-05
7.77703e-05
8.65794e-05
9.63937e-05
0.000107291
0.000119351
0.000132653
0.00014728
0.000163313
0.000180834
0.000199925
0.000220666
0.000243135
0.000267408
0.000293555
0.000321642
0.000351724
0.000383851
0.000418057
0.000454366
0.000492786
0.000533306
0.000575896
0.000620507
0.000667064
0.000715471
0.000765606
0.000817325
0.000870461
0.000924827
0.000980221
0.00103643
0.00109323
0.0011504
0.00120772
0.001265
0.00132204
0.00137869
0.00143481
0.00149029
0.00154507
0.00159909
0.00165235
0.00170484
0.00175661
0.00180769
0.00185812
0.00190794
0.00195718
0.00200583
0.00205384
0.00210113
0.00214752
0.0021928
0.00223664
0.00227863
0.00231824
0.00235484
0.00238766
0.00241585
0.00243846
0.00245354
0.00245999
0.00246042
0.00245001
0.00242734
0.00239189
0.00234293
0.00227983
0.00220233
0.00211053
0.00200507
0.00188709
0.0017583
0.00162091
0.00147758
0.00133125
0.00118504
0.00104197
0.000904822
0.000775956
0.000657161
0.0005496
0.000453803
0.000369726
0.000296845
0.000234288
0.000180965
0.000135697
9.73464e-05
6.49568e-05
3.79365e-05
1.63691e-05
1.82277e-06
4.67633e-08
4.19695e-07
9.64392e-07
1.6215e-06
2.36109e-06
3.16384e-06
4.01526e-06
4.90346e-06
5.81804e-06
6.74974e-06
7.69024e-06
8.63225e-06
9.56958e-06
1.04973e-05
1.14122e-05
1.23122e-05
1.31976e-05
1.40702e-05
1.49341e-05
1.57954e-05
1.66626e-05
1.75463e-05
1.84597e-05
1.94183e-05
2.04405e-05
2.15471e-05
2.27622e-05
2.41125e-05
2.56283e-05
2.73432e-05
2.92947e-05
3.15237e-05
3.40755e-05
3.69993e-05
4.03489e-05
4.4182e-05
4.85609e-05
5.3552e-05
5.92259e-05
6.5657e-05
7.29235e-05
8.1107e-05
9.02922e-05
0.000100567
0.00011202
0.000124745
0.000138835
0.000154386
0.000171495
0.000190258
0.000210772
0.000233134
0.000257438
0.000283774
0.000312229
0.000342881
0.0003758
0.000411046
0.000448662
0.000488677
0.000531098
0.000575911
0.000623075
0.000672523
0.000724158
0.00077785
0.00083344
0.000890736
0.000949519
0.00100954
0.00107054
0.00113224
0.00119434
0.00125657
0.00131866
0.00138034
0.0014414
0.00150165
0.00156094
0.00161916
0.00167627
0.00173224
0.00178712
0.00184095
0.00189384
0.00194591
0.00199727
0.00204806
0.00209837
0.00214829
0.00219787
0.00224709
0.00229589
0.00234411
0.00239151
0.00243776
0.00248242
0.00252491
0.00256455
0.00260053
0.0026319
0.00265759
0.00267612
0.00268516
0.00268735
0.00267942
0.00265824
0.00262349
0.00257433
0.00250997
0.00242998
0.00233431
0.00222343
0.00209837
0.00196077
0.00181287
0.00165742
0.00149758
0.00133674
0.00117831
0.00102551
0.000881127
0.000747381
0.000625789
0.000517145
0.00042156
0.000338566
0.000267255
0.000206436
0.00015479
0.000111032
7.40744e-05
4.3248e-05
1.86532e-05
2.07624e-06
5.33766e-08
4.79206e-07
1.10165e-06
1.85312e-06
2.69942e-06
3.61839e-06
4.59335e-06
5.61056e-06
6.65802e-06
7.72497e-06
8.80178e-06
9.87999e-06
1.09524e-05
1.20134e-05
1.3059e-05
1.40871e-05
1.50978e-05
1.60933e-05
1.70782e-05
1.80597e-05
1.90474e-05
2.00536e-05
2.10935e-05
2.2185e-05
2.33491e-05
2.46098e-05
2.59947e-05
2.75347e-05
2.92646e-05
3.1223e-05
3.34529e-05
3.60018e-05
3.89217e-05
4.22695e-05
4.61072e-05
5.05018e-05
5.55254e-05
6.12549e-05
6.77722e-05
7.51641e-05
8.35213e-05
9.29391e-05
0.000103516
0.000115355
0.00012856
0.000143239
0.000159503
0.000177463
0.000197232
0.000218922
0.000242647
0.000268517
0.00029664
0.000327117
0.000360043
0.000395503
0.000433568
0.000474292
0.000517709
0.000563828
0.000612631
0.000664069
0.000718055
0.000774468
0.000833144
0.000893882
0.000956441
0.00102054
0.00108587
0.00115211
0.00121888
0.00128585
0.00135265
0.00141894
0.00148443
0.00154885
0.00161197
0.00167365
0.00173377
0.0017923
0.00184927
0.00190475
0.00195888
0.00201181
0.00206375
0.00211489
0.00216545
0.00221562
0.00226558
0.00231543
0.00236527
0.00241509
0.00246482
0.0025143
0.00256328
0.00261139
0.00265815
0.00270295
0.00274507
0.00278366
0.00281772
0.00284614
0.00286765
0.00287936
0.00288317
0.002878
0.00285893
0.00282578
0.00277762
0.00271357
0.00263297
0.0025356
0.00242172
0.00229219
0.0021485
0.0019928
0.00182783
0.00165686
0.0014835
0.00131147
0.00114439
0.000985516
0.000837505
0.000702287
0.000580986
0.000473938
0.000380788
0.000300639
0.000232229
0.000174119
0.000124881
8.32989e-05
4.86219e-05
2.09647e-05
2.33282e-06
6.03014e-08
5.41508e-07
1.24533e-06
2.09559e-06
3.05366e-06
4.0944e-06
5.19884e-06
6.35127e-06
7.53795e-06
8.74659e-06
9.96612e-06
1.11868e-05
1.24004e-05
1.36005e-05
1.47824e-05
1.59438e-05
1.70847e-05
1.82078e-05
1.93182e-05
2.04241e-05
2.15366e-05
2.26697e-05
2.38407e-05
2.50699e-05
2.63812e-05
2.78022e-05
2.9364e-05
3.11019e-05
3.30555e-05
3.52688e-05
3.77909e-05
4.06758e-05
4.39831e-05
4.77778e-05
5.21307e-05
5.71188e-05
6.28245e-05
6.93365e-05
7.67488e-05
8.51611e-05
9.46783e-05
0.00010541
0.00011747
0.000130977
0.000146053
0.000162821
0.000181409
0.000201945
0.00022456
0.000249383
0.000276542
0.000306162
0.000338362
0.000373253
0.000410936
0.000451496
0.000494998
0.000541484
0.000590968
0.000643429
0.000698807
0.000757003
0.000817868
0.000881206
0.000946772
0.00101427
0.00108337
0.00115368
0.0012248
0.00129629
0.00136773
0.00143869
0.00150875
0.00157756
0.00164479
0.00171022
0.00177364
0.00183499
0.00189423
0.00195143
0.00200672
0.0020603
0.00211241
0.00216332
0.00221331
0.00226269
0.00231172
0.00236066
0.00240971
0.00245901
0.00250863
0.00255859
0.00260877
0.002659
0.002709
0.00275835
0.00280656
0.00285299
0.00289689
0.0029374
0.00297351
0.00300411
0.00302799
0.00304224
0.00304755
0.00304512
0.00302863
0.00299783
0.00295176
0.00288943
0.00281
0.00271302
0.00259852
0.00246711
0.00232005
0.0021593
0.00198751
0.00180794
0.00162432
0.00144064
0.00126085
0.00108866
0.000927208
0.000778879
0.000645191
0.000526776
0.000423457
0.000334399
0.000258311
0.000193654
0.000138868
9.26114e-05
5.40462e-05
2.32982e-05
2.59191e-06
6.75445e-08
6.06662e-07
1.39559e-06
2.34916e-06
3.42414e-06
4.59228e-06
5.8322e-06
7.12611e-06
8.45845e-06
9.81523e-06
1.11839e-05
1.25533e-05
1.39142e-05
1.5259e-05
1.65827e-05
1.78826e-05
1.91586e-05
2.04137e-05
2.1654e-05
2.28886e-05
2.413e-05
2.53942e-05
2.67007e-05
2.80725e-05
2.95366e-05
3.1124e-05
3.28699e-05
3.48143e-05
3.70017e-05
3.9482e-05
4.23106e-05
4.55487e-05
4.92637e-05
5.35295e-05
5.84265e-05
6.40419e-05
7.04699e-05
7.78111e-05
8.6173e-05
9.56694e-05
0.00010642
0.000118551
0.000132191
0.000147477
0.000164548
0.000183546
0.000204616
0.000227904
0.000253559
0.000281725
0.000312546
0.000346159
0.000382694
0.000422268
0.00046498
0.000510911
0.000560112
0.000612602
0.000668361
0.000727325
0.000789378
0.000854351
0.000922013
0.000992078
0.0010642
0.00113798
0.00121296
0.00128866
0.00136457
0.00144016
0.00151494
0.00158842
0.00166018
0.00172984
0.00179713
0.00186186
0.00192393
0.00198335
0.00204022
0.00209472
0.00214713
0.00219775
0.00224694
0.00229507
0.00234251
0.00238962
0.00243672
0.00248408
0.0025319
0.00258033
0.0026294
0.0026791
0.00272928
0.00277974
0.00283015
0.00288009
0.00292902
0.00297631
0.0030212
0.00306284
0.00310025
0.00313235
0.00315798
0.00317456
0.00318133
0.00318131
0.00316778
0.00313995
0.00309691
0.00303757
0.00296091
0.00286627
0.00275339
0.00262257
0.00247478
0.00231171
0.0021358
0.00195021
0.00175868
0.00156537
0.00137455
0.00119033
0.00101635
0.000855496
0.000709741
0.000580082
0.000466589
0.000368552
0.000284691
0.000213396
0.000152991
0.000102007
5.95167e-05
2.56516e-05
2.85326e-06
7.51154e-08
6.74758e-07
1.55261e-06
2.61415e-06
3.81132e-06
5.11263e-06
6.49416e-06
7.93595e-06
9.42046e-06
1.09319e-05
1.24561e-05
1.39806e-05
1.54947e-05
1.69902e-05
1.84611e-05
1.99044e-05
2.13202e-05
2.27119e-05
2.40862e-05
2.54536e-05
2.68281e-05
2.82277e-05
2.96741e-05
3.11934e-05
3.28159e-05
3.45762e-05
3.65139e-05
3.86737e-05
4.11056e-05
4.38657e-05
4.70161e-05
5.06257e-05
5.47703e-05
5.95331e-05
6.50048e-05
7.1284e-05
7.84767e-05
8.66973e-05
9.60672e-05
0.000106715
0.000118778
0.000132397
0.000147721
0.000164903
0.000184101
0.000205476
0.000229193
0.000255415
0.000284307
0.000316032
0.000350746
0.000388596
0.000429718
0.000474229
0.000522224
0.000573768
0.000628888
0.000687569
0.000749742
0.000815282
0.000884
0.000955637
0.00102987
0.00110629
0.00118445
0.00126381
0.00134383
0.00142389
0.0015034
0.00158176
0.00165841
0.00173286
0.00180469
0.00187357
0.00193929
0.00200176
0.002061
0.00211716
0.00217047
0.00222126
0.00226993
0.00231691
0.00236265
0.00240761
0.00245222
0.00249686
0.00254186
0.00258748
0.0026339
0.00268123
0.00272947
0.00277855
0.00282829
0.00287844
0.00292865
0.00297846
0.00302735
0.0030747
0.00311976
0.00316173
0.00319968
0.00323256
0.00325926
0.00327785
0.00328643
0.00328806
0.00327783
0.00325346
0.00321423
0.00315897
0.0030865
0.00299591
0.00288667
0.00275873
0.0026127
0.00244991
0.00227251
0.00208343
0.00188635
0.00168548
0.00148536
0.00129047
0.00110494
0.000932188
0.00077471
0.000633938
0.000510264
0.000403163
0.000311416
0.000233377
0.000167266
0.000111492
6.50363e-05
2.80257e-05
3.11695e-06
8.30263e-08
7.45904e-07
1.71667e-06
2.89099e-06
4.21581e-06
5.65624e-06
7.1857e-06
8.78191e-06
1.04253e-05
1.20981e-05
1.37844e-05
1.54703e-05
1.71437e-05
1.87955e-05
2.04189e-05
2.20108e-05
2.35711e-05
2.51038e-05
2.66164e-05
2.81206e-05
2.96323e-05
3.11714e-05
3.27625e-05
3.44345e-05
3.62211e-05
3.81611e-05
4.02986e-05
4.26833e-05
4.53713e-05
4.84248e-05
5.19135e-05
5.59142e-05
6.05118e-05
6.57995e-05
7.18788e-05
7.88605e-05
8.68639e-05
9.60172e-05
0.000106457
0.00011833
0.000131787
0.00014699
0.000164106
0.000183307
0.000204771
0.000228678
0.000255211
0.000284554
0.000316888
0.000352388
0.000391222
0.000433546
0.000479495
0.000529182
0.000582686
0.000640046
0.000701254
0.000766245
0.000834886
0.000906974
0.000982226
0.00106028
0.00114069
0.00122293
0.00130642
0.00139051
0.00147452
0.00155775
0.00163953
0.0017192
0.0017962
0.00187005
0.00194036
0.00200692
0.00206961
0.00212849
0.00218372
0.00223559
0.00228451
0.00233093
0.00237538
0.00241839
0.00246049
0.00250219
0.00254394
0.0025861
0.00262899
0.00267283
0.00271776
0.00276383
0.00281098
0.00285909
0.00290795
0.00295725
0.00300662
0.00305563
0.00310375
0.00315039
0.00319486
0.00323641
0.00327417
0.00330721
0.00333444
0.00335458
0.00336492
0.00336793
0.0033611
0.00334051
0.0033057
0.00325538
0.00318825
0.00310318
0.00299933
0.0028763
0.00273428
0.00257418
0.00239776
0.00220765
0.00200733
0.00180099
0.00159332
0.00138915
0.00119308
0.00100909
0.000840246
0.000688492
0.000554612
0.000438338
0.000338566
0.00025365
0.000181726
0.000121086
7.06139e-05
3.04241e-05
3.38335e-06
9.12913e-08
8.20228e-07
1.88804e-06
3.18017e-06
4.63832e-06
6.22404e-06
7.90795e-06
9.66534e-06
1.14744e-05
1.33154e-05
1.51705e-05
1.70242e-05
1.88632e-05
2.0677e-05
2.24584e-05
2.42038e-05
2.59133e-05
2.75913e-05
2.92464e-05
3.08916e-05
3.25446e-05
3.42278e-05
3.59682e-05
3.77982e-05
3.97551e-05
4.1882e-05
4.42279e-05
4.68479e-05
4.98042e-05
5.3166e-05
5.70106e-05
6.14235e-05
6.64992e-05
7.23416e-05
7.9064e-05
8.67899e-05
9.56527e-05
0.000105796
0.000117373
0.000130546
0.000145486
0.000162374
0.000181396
0.000202745
0.000226618
0.000253217
0.000282743
0.000315397
0.000351375
0.000390866
0.000434045
0.000481069
0.000532069
0.000587142
0.000646343
0.000709676
0.000777079
0.000848422
0.000923491
0.00100199
0.00108351
0.00116759
0.00125363
0.00134099
0.00142894
0.00151672
0.00160355
0.00168864
0.00177126
0.00185076
0.00192658
0.00199831
0.00206567
0.00212855
0.002187
0.00224123
0.00229158
0.0023385
0.00238254
0.00242428
0.00246437
0.0025034
0.00254193
0.00258048
0.0026195
0.00265932
0.0027002
0.0027423
0.00278569
0.00283036
0.00287619
0.002923
0.00297054
0.00301849
0.00306647
0.00311405
0.00316075
0.003206
0.00324921
0.00328969
0.00332668
0.00335932
0.00338668
0.00340772
0.00341978
0.00342403
0.00342049
0.0034039
0.00337387
0.00332912
0.0032682
0.00318978
0.00309276
0.00297635
0.00284029
0.00268505
0.00251191
0.00232308
0.00212175
0.00191199
0.00169854
0.0014865
0.00128093
0.00108639
0.000906544
0.000743928
0.000599797
0.000474212
0.000366245
0.000274288
0.000196418
0.000130817
7.62638e-05
3.28522e-05
3.65307e-06
9.99268e-08
8.97879e-07
2.06707e-06
3.48226e-06
5.07966e-06
6.81712e-06
8.66227e-06
1.05878e-05
1.25696e-05
1.45858e-05
1.66166e-05
1.86447e-05
2.06554e-05
2.26371e-05
2.45819e-05
2.64859e-05
2.83493e-05
3.01771e-05
3.19789e-05
3.37693e-05
3.55679e-05
3.73995e-05
3.92943e-05
4.1288e-05
4.34218e-05
4.57434e-05
4.83069e-05
5.11732e-05
5.4411e-05
5.8097e-05
6.23165e-05
6.71644e-05
7.27453e-05
7.91745e-05
8.65778e-05
9.50925e-05
0.000104867
0.000116061
0.000128845
0.000143399
0.000159916
0.000178595
0.000199643
0.000223273
0.000249706
0.00027916
0.000311857
0.000348013
0.000387839
0.000431531
0.000479268
0.000531202
0.000587452
0.00064809
0.000713134
0.000782536
0.00085617
0.000933821
0.00101518
0.00109982
0.00118723
0.00127679
0.00136777
0.00145939
0.0015508
0.00164111
0.00172946
0.00181503
0.00189705
0.00197492
0.00204813
0.00211637
0.00217951
0.00223761
0.0022909
0.00233975
0.00238468
0.00242631
0.00246532
0.0025024
0.00253825
0.0025735
0.00260872
0.0026444
0.00268096
0.00271865
0.00275766
0.00279809
0.00283992
0.00288307
0.00292737
0.00297259
0.00301846
0.00306463
0.00311075
0.0031564
0.00320115
0.00324449
0.00328591
0.00332482
0.00336055
0.00339235
0.00341941
0.00344085
0.00345452
0.00346001
0.00345933
0.00344685
0.00342173
0.00338287
0.00332873
0.00325776
0.00316863
0.00306018
0.00293171
0.00278319
0.00261538
0.00242998
0.00222978
0.00201859
0.00180112
0.00158266
0.00136867
0.00116428
0.000973819
0.000800457
0.00064601
0.000510945
0.000394576
0.00029538
0.000211402
0.000140719
8.20045e-05
3.53175e-05
3.92691e-06
1.08951e-07
9.79019e-07
2.25414e-06
3.79789e-06
5.54076e-06
7.43667e-06
9.45015e-06
1.15512e-05
1.37131e-05
1.59117e-05
1.81252e-05
2.03344e-05
2.25231e-05
2.46787e-05
2.67924e-05
2.88601e-05
3.08821e-05
3.28641e-05
3.48169e-05
3.67568e-05
3.87054e-05
4.06903e-05
4.27448e-05
4.4908e-05
4.72258e-05
4.97505e-05
5.25415e-05
5.56661e-05
5.91998e-05
6.3227e-05
6.7842e-05
7.31492e-05
7.92644e-05
8.63147e-05
9.44394e-05
0.00010379
0.000114532
0.000126841
0.000140906
0.000156929
0.000175119
0.000195699
0.000218897
0.000244949
0.000274093
0.000306569
0.000342616
0.000382466
0.000426337
0.000474432
0.000526925
0.000583959
0.000645627
0.000711967
0.000782947
0.000858452
0.000938272
0.00102209
0.00110948
0.00119989
0.00129266
0.00138702
0.00148212
0.00157701
0.00167075
0.00176235
0.00185089
0.00193554
0.00201557
0.00209042
0.00215972
0.00222331
0.00228123
0.00233373
0.00238122
0.00242428
0.00246359
0.00249991
0.00253403
0.0025667
0.00259864
0.00263049
0.00266279
0.00269598
0.0027304
0.00276623
0.00280355
0.0028424
0.00288268
0.00292423
0.00296685
0.00301027
0.00305419
0.00309828