/*--------------------------------*- C++ -*----------------------------------*\
  =========                 |
  \\      /  F ield         | OpenFOAM: The Open Source CFD Toolbox
   \\    /   O peration     | Website:  https://openfoam.org
    \\  /    A nd           | Version:  12
     \\/     M anipulation  |
\*---------------------------------------------------------------------------*/
FoamFile
{
    format      ascii;
    class       volScalarField;
    location    "8";
    object      p;
}
// * * * * * * * * * * * * * * * * * * * * * * * * * * * * * * * * * * * * * //

dimensions      [0 2 -2 0 0 0 0];

internalField   nonuniform List<scalar> 
18225
(
-5.49943e-08
7.10222e-06
2.17497e-05
4.11112e-05
6.19001e-05
8.17035e-05
9.87268e-05
0.00011164
0.000119469
0.000121518
0.000117319
0.000106586
8.91933e-05
6.51419e-05
3.45446e-05
-2.39443e-06
-4.53961e-05
-9.41219e-05
-0.000148189
-0.000207185
-0.00027068
-0.000338246
-0.000409464
-0.000483941
-0.000561325
-0.000641315
-0.000723669
-0.000808214
-0.000894848
-0.00098355
-0.00107438
-0.00116749
-0.0012631
-0.00136154
-0.0014632
-0.00156858
-0.00167825
-0.00179287
-0.00191316
-0.00203993
-0.00217404
-0.00231642
-0.00246806
-0.00263
-0.00280332
-0.00298914
-0.00318863
-0.00340296
-0.00363337
-0.00388109
-0.0041474
-0.00443359
-0.00474098
-0.00507087
-0.0054246
-0.00580349
-0.00620883
-0.00664186
-0.00710377
-0.00759562
-0.00811835
-0.0086727
-0.00925917
-0.00987796
-0.0105289
-0.0112113
-0.0119242
-0.0126657
-0.0134335
-0.0142244
-0.0150346
-0.015859
-0.0166919
-0.0175263
-0.0183544
-0.0191671
-0.0199543
-0.0207048
-0.0214064
-0.0220457
-0.0226087
-0.0230806
-0.0234458
-0.0236884
-0.0237924
-0.0237416
-0.0235202
-0.0231131
-0.0225058
-0.0216854
-0.0206403
-0.0193612
-0.0178409
-0.0160751
-0.0140628
-0.0118062
-0.00931139
-0.00659286
-0.00366727
-0.000545496
0.0027423
0.00616074
0.00967733
0.0132514
0.0168378
0.0203889
0.0238546
0.027184
0.030327
0.0332362
0.0358682
0.0381866
0.0401627
0.0417781
0.043025
0.0439072
0.0444402
0.04465
0.044572
0.044249
0.0437285
0.0430604
0.0422941
0.0414766
0.0406501
0.0398511
0.0391097
0.0384493
0.0378887
0.0374404
0.0371135
0.0369134
0.0368387
0.0368769
0.0369748
-2.92277e-07
6.08691e-06
1.90991e-05
3.63662e-05
5.49449e-05
7.26387e-05
8.77644e-05
9.90441e-05
0.000105525
0.000106514
0.000101537
9.0297e-05
7.26484e-05
4.85741e-05
1.8164e-05
-1.84017e-05
-6.08691e-05
-0.000108925
-0.000162214
-0.000220346
-0.00028292
-0.000349527
-0.000419771
-0.00049328
-0.000569717
-0.000648798
-0.000730293
-0.000814038
-0.000899939
-0.00098798
-0.00107822
-0.00117081
-0.00126597
-0.00136401
-0.00146532
-0.00157039
-0.00167976
-0.00179408
-0.00191405
-0.00204045
-0.00217412
-0.00231597
-0.00246696
-0.00262809
-0.00280042
-0.00298503
-0.00318307
-0.00339569
-0.00362407
-0.00386945
-0.00413306
-0.00441616
-0.00472004
-0.00504598
-0.0053953
-0.00576926
-0.00616915
-0.00659618
-0.0070515
-0.00753618
-0.00805113
-0.00859708
-0.00917449
-0.0097836
-0.0104242
-0.0110958
-0.0117972
-0.0125268
-0.0132822
-0.0140604
-0.0148576
-0.0156689
-0.0164886
-0.01731
-0.0181254
-0.0189259
-0.0197015
-0.0204412
-0.0211329
-0.0217637
-0.0223196
-0.0227858
-0.0231473
-0.0233881
-0.0234923
-0.0234441
-0.0232277
-0.0228281
-0.0222311
-0.0214237
-0.0203945
-0.0191342
-0.0176357
-0.0158947
-0.01391
-0.011684
-0.0092224
-0.00654107
-0.00365414
-0.000570026
0.00267409
0.00604853
0.00952055
0.0130498
0.0165921
0.0201001
0.0235249
0.0268165
0.0299257
0.0328058
0.0354146
0.0377162
0.0396829
0.0412964
0.0425495
0.0434458
0.0440006
0.0442392
0.0441964
0.0439136
0.0434371
0.0428155
0.0420966
0.0413258
0.0405441
0.0397868
0.0390829
0.038455
0.0379209
0.0374926
0.037178
0.0369811
0.0368994
0.0369224
0.0370055
-2.54709e-06
3.59975e-06
1.52866e-05
3.05912e-05
4.69962e-05
6.25533e-05
7.57183e-05
8.52856e-05
9.03362e-05
9.01907e-05
8.4372e-05
7.25739e-05
5.4636e-05
3.05209e-05
2.96411e-07
-3.58822e-05
-7.77872e-05
-0.000125133
-0.000177588
-0.000234794
-0.000296372
-0.000361938
-0.00043112
-0.000503565
-0.000578956
-0.000657023
-0.000737552
-0.000820387
-0.000905442
-0.000992704
-0.00108224
-0.00117418
-0.00126876
-0.00136627
-0.0014671
-0.0015717
-0.00168062
-0.00179447
-0.00191392
-0.00203975
-0.00217276
-0.00231382
-0.00246387
-0.00262387
-0.00279485
-0.00297788
-0.00317403
-0.00338445
-0.00361029
-0.00385273
-0.00411299
-0.00439229
-0.00469188
-0.00501303
-0.005357
-0.00572505
-0.0061184
-0.00653829
-0.00698585
-0.00746208
-0.0079679
-0.00850404
-0.00907098
-0.00966895
-0.0102978
-0.010957
-0.0116455
-0.0123618
-0.0131035
-0.0138677
-0.0146508
-0.015448
-0.0162539
-0.0170618
-0.0178642
-0.0186524
-0.0194167
-0.0201462
-0.0208292
-0.0214527
-0.0220031
-0.0224659
-0.0228259
-0.0230677
-0.0231753
-0.0231331
-0.0229254
-0.0225373
-0.0219547
-0.0211646
-0.0201558
-0.0189187
-0.0174465
-0.0157346
-0.013782
-0.0115907
-0.00916649
-0.00652636
-0.00367794
-0.000636039
0.0025617
0.00589104
0.00931769
0.012802
0.0163004
0.0197665
0.023152
0.0264077
0.0294853
0.0323389
0.0349271
0.0372145
0.039174
0.0407877
0.0420484
0.0429599
0.043537
0.0438047
0.0437969
0.0435542
0.0431217
0.0425465
0.0418754
0.0411523
0.0404168
0.0397028
0.0390384
0.0384451
0.0379395
0.0375329
0.0372318
0.0370394
0.0369525
0.0369646
0.0370422
-7.14049e-06
-5.10451e-07
1.06007e-05
2.46284e-05
3.94605e-05
5.33798e-05
6.49846e-05
7.3153e-05
7.70117e-05
7.59034e-05
6.9358e-05
5.7067e-05
3.88606e-05
1.46878e-05
-1.54006e-05
-5.12687e-05
-9.27094e-05
-0.000139459
-0.000191208
-0.000247619
-0.000308336
-0.000372994
-0.00044124
-0.000512738
-0.000587187
-0.00066433
-0.000743962
-0.000825938
-0.000910177
-0.000996668
-0.00108548
-0.00117674
-0.00127067
-0.00136757
-0.0014678
-0.00157181
-0.00168012
-0.00179333
-0.00191209
-0.00203715
-0.00216928
-0.00230934
-0.00245821
-0.00261686
-0.00278627
-0.00296746
-0.0031615
-0.00336949
-0.00359255
-0.00383183
-0.00408853
-0.00436382
-0.00465895
-0.00497513
-0.0053136
-0.00567561
-0.00606239
-0.00647511
-0.00691489
-0.00738276
-0.00787961
-0.00840618
-0.008963
-0.00955031
-0.010168
-0.0108157
-0.0114923
-0.0121964
-0.0129259
-0.0136779
-0.0144488
-0.0152342
-0.0160287
-0.0168259
-0.0176185
-0.0183979
-0.0191546
-0.019878
-0.0205564
-0.0211772
-0.0217267
-0.0221907
-0.0225542
-0.0228016
-0.0229173
-0.0228856
-0.0226909
-0.0223182
-0.0217535
-0.0209838
-0.0199976
-0.0187856
-0.0173406
-0.015658
-0.0137366
-0.0115784
-0.00918935
-0.00658438
-0.00376951
-0.000767127
0.00239366
0.00568647
0.00907722
0.012527
0.0159927
0.0194285
0.0227867
0.0260187
0.0290764
0.0319145
0.0344919
0.0367735
0.0387322
0.0403503
0.0416205
0.0425465
0.0431429
0.0434342
0.043454
0.0432423
0.0428436
0.0423044
0.0416704
0.0409848
0.0402862
0.0396076
0.0389759
0.0384119
0.0379307
0.037543
0.0372544
0.0370673
0.036979
0.0369882
0.0370694
-1.35559e-05
-5.93431e-06
5.18786e-06
1.84848e-05
3.22362e-05
4.49332e-05
5.5316e-05
6.23522e-05
6.52221e-05
6.32981e-05
5.61242e-05
4.33953e-05
2.4938e-05
6.92924e-07
-2.93015e-05
-6.49237e-05
-0.000105983
-0.000152232
-0.000203381
-0.000259108
-0.000319074
-0.000382934
-0.000450346
-0.000520991
-0.00059458
-0.000670866
-0.000749653
-0.000830803
-0.000914239
-0.000999954
-0.00108801
-0.00117854
-0.00127176
-0.00136795
-0.00146748
-0.00157076
-0.00167832
-0.00179072
-0.00190862
-0.0020327
-0.00216375
-0.00230258
-0.00245006
-0.00260711
-0.0027747
-0.00295381
-0.00314549
-0.0033508
-0.00357083
-0.00380672
-0.0040596
-0.00433065
-0.00462107
-0.00493206
-0.00526485
-0.00562066
-0.00600069
-0.00640612
-0.00683804
-0.00729751
-0.00778544
-0.0083026
-0.00884955
-0.00942659
-0.0100337
-0.0106705
-0.0113362
-0.0120292
-0.0127478
-0.0134892
-0.0142499
-0.0150258
-0.0158115
-0.016601
-0.0173869
-0.0181611
-0.0189142
-0.0196357
-0.020314
-0.0209367
-0.0214903
-0.0219606
-0.0223325
-0.0225908
-0.0227196
-0.0227033
-0.0225262
-0.0221734
-0.0216306
-0.0208848
-0.0199244
-0.0187399
-0.0173239
-0.0156718
-0.013782
-0.0116563
-0.0093006
-0.00672755
-0.00394607
-0.000977708
0.0021514
0.00541364
0.00877536
0.0121984
0.0156401
0.0190548
0.0223954
0.0256135
0.0286614
0.0314939
0.0340697
0.0363539
0.0383191
0.0399474
0.0412311
0.0421737
0.0427893
0.0431024
0.0431461
0.0429601
0.0425889
0.0420783
0.041474
0.0408185
0.0401498
0.0395002
0.0388959
0.0383567
0.0378967
0.0375257
0.0372485
0.0370673
0.0369801
0.0369905
0.0370784
-2.13127e-05
-1.2344e-05
-7.899e-07
1.21731e-05
2.52084e-05
3.69967e-05
4.64154e-05
5.25239e-05
5.45607e-05
5.19334e-05
4.4205e-05
3.10788e-05
1.23821e-05
-1.19489e-05
-4.18837e-05
-7.73113e-05
-0.000118053
-0.000163876
-0.000214504
-0.00026963
-0.000328929
-0.000392068
-0.000458721
-0.000528578
-0.00060136
-0.00067683
-0.0007548
-0.000835135
-0.000917764
-0.00100268
-0.00108994
-0.00117969
-0.00127212
-0.00136751
-0.00146621
-0.00156865
-0.0016753
-0.00178674
-0.00190358
-0.00202651
-0.00215627
-0.00229365
-0.00243951
-0.00259473
-0.00276025
-0.00293703
-0.00312608
-0.00332844
-0.00354518
-0.00377738
-0.00402617
-0.00429269
-0.00457813
-0.00488365
-0.00521048
-0.00555982
-0.00593285
-0.00633075
-0.00675465
-0.0072056
-0.00768457
-0.00819236
-0.0087296
-0.00929665
-0.00989361
-0.0105202
-0.0111757
-0.0118588
-0.0125679
-0.0133003
-0.0140528
-0.0148214
-0.015601
-0.0163857
-0.0171685
-0.0179413
-0.0186948
-0.0194188
-0.0201018
-0.0207314
-0.0212943
-0.0217761
-0.022162
-0.0224365
-0.0225839
-0.0225882
-0.0224338
-0.0221056
-0.0215892
-0.0208714
-0.0199404
-0.0187866
-0.0174022
-0.0157825
-0.0139257
-0.0118333
-0.00951093
-0.00696974
-0.00422062
-0.00128353
0.0018166
0.00505179
0.00838879
0.0117902
0.0152138
0.0186143
0.0219446
0.0251568
0.0282033
0.0310386
0.0336214
0.0359164
0.0378959
0.0395412
0.0408444
0.0418081
0.0424461
0.0427826
0.0428501
0.0426886
0.0423421
0.0418566
0.0412777
0.0406477
0.0400045
0.0393797
0.038799
0.0382815
0.0378403
0.0374842
0.0372177
0.0370425
0.0369576
0.0369704
0.0370645
-3.00205e-05
-1.94543e-05
-7.15636e-06
5.78718e-06
1.84048e-05
2.95479e-05
3.82236e-05
4.3582e-05
4.49222e-05
4.169e-05
3.34718e-05
1.9983e-05
1.05557e-06
-2.33748e-05
-5.32821e-05
-8.85626e-05
-0.000129047
-0.000174511
-0.000224691
-0.00027929
-0.000337995
-0.000400484
-0.00046644
-0.000535565
-0.000607586
-0.000682275
-0.000759447
-0.000838974
-0.000920786
-0.00100488
-0.00109131
-0.0011802
-0.00127177
-0.00136627
-0.00146404
-0.00156549
-0.0016711
-0.00178141
-0.00189703
-0.00201861
-0.00214688
-0.00228261
-0.00242663
-0.00257979
-0.002743
-0.00291721
-0.00310338
-0.00330253
-0.00351569
-0.00374393
-0.00398835
-0.00425007
-0.00453024
-0.00483004
-0.00515063
-0.00549324
-0.00585906
-0.00624926
-0.00666501
-0.00710741
-0.00757744
-0.008076
-0.00860379
-0.00916128
-0.00974869
-0.0103659
-0.0110123
-0.0116869
-0.0123881
-0.0131135
-0.0138602
-0.0146243
-0.015401
-0.0161845
-0.0169681
-0.0177438
-0.0185025
-0.019234
-0.0199271
-0.0205692
-0.0211471
-0.0216464
-0.0220521
-0.0223487
-0.0225202
-0.0225506
-0.0224242
-0.0221256
-0.0216401
-0.0209545
-0.0200567
-0.0189367
-0.0175868
-0.0160017
-0.0141796
-0.0121216
-0.00983302
-0.00732405
-0.00460639
-0.00169896
0.00137417
0.00458509
0.00790089
0.0112849
0.0146956
0.0180877
0.0214144
0.024628
0.0276808
0.0305272
0.0331256
0.03544
0.0374419
0.0391121
0.0404417
0.0414325
0.0420978
0.042461
0.0425546
0.0424181
0.0420959
0.041634
0.041078
0.0404706
0.0398495
0.0392463
0.0386861
0.0381875
0.0377629
0.0374202
0.0371634
0.036994
0.0369116
0.0369266
0.0370246
-3.93467e-05
-2.70169e-05
-1.37403e-05
-5.60427e-07
1.18917e-05
2.2618e-05
3.07462e-05
3.55139e-05
3.62807e-05
3.25332e-05
2.38834e-05
1.00625e-05
-9.08941e-06
-3.3634e-05
-6.35462e-05
-9.87259e-05
-0.000139009
-0.00018418
-0.000233981
-0.000288125
-0.000346306
-0.000408212
-0.000473533
-0.000541977
-0.00061328
-0.000687218
-0.000763611
-0.000842333
-0.000923317
-0.00100656
-0.00109211
-0.0011801
-0.00127072
-0.00136423
-0.00146096
-0.00156131
-0.00166573
-0.00177477
-0.00188899
-0.00200905
-0.00213564
-0.00226952
-0.00241148
-0.00256236
-0.00272304
-0.00289442
-0.00307747
-0.00327316
-0.0034825
-0.00370654
-0.00394633
-0.004203
-0.00447766
-0.00477148
-0.00508563
-0.00542133
-0.00577979
-0.00616222
-0.0065698
-0.0070037
-0.00746499
-0.00795463
-0.00847345
-0.00902207
-0.00960085
-0.0102098
-0.0108486
-0.0115165
-0.0122119
-0.012933
-0.0136768
-0.0144398
-0.0152174
-0.0160041
-0.0167931
-0.0175768
-0.0183461
-0.0190909
-0.0198
-0.0204608
-0.0210599
-0.0215829
-0.0220146
-0.0223393
-0.0225409
-0.0226031
-0.0225099
-0.0222457
-0.0217957
-0.0211461
-0.020285
-0.019202
-0.017889
-0.0163406
-0.0145546
-0.012532
-0.0102776
-0.00780093
-0.00511393
-0.00223475
0.000813325
0.00400268
0.00730073
0.0106714
0.0140741
0.0174636
0.0207932
0.0240154
0.0270823
0.0299481
0.0325706
0.034913
0.036946
0.0386493
0.0400129
0.0410376
0.0417359
0.0421304
0.0422532
0.0421438
0.0418464
0.0414076
0.0408733
0.0402864
0.0396849
0.0391005
0.0385582
0.0380759
0.0376658
0.0373349
0.0370866
0.0369223
0.0368421
0.036858
0.0369574
-4.89891e-05
-3.48017e-05
-2.03795e-05
-6.76129e-06
5.7332e-06
1.62365e-05
2.39865e-05
2.83032e-05
2.86052e-05
2.44209e-05
1.53902e-05
1.26237e-06
-1.81114e-05
-4.27868e-05
-7.27367e-05
-0.000107862
-0.000148
-0.00019294
-0.000242429
-0.000296185
-0.000353909
-0.000415294
-0.000480036
-0.000547848
-0.000618472
-0.000691686
-0.000767314
-0.000845233
-0.000925375
-0.00100773
-0.00109236
-0.00117938
-0.00126898
-0.00136142
-0.001457
-0.00155612
-0.00165923
-0.00176683
-0.00187951
-0.00199787
-0.0021226
-0.00225443
-0.00239413
-0.00254252
-0.00270044
-0.0028688
-0.00304849
-0.00324049
-0.00344578
-0.00366537
-0.00390032
-0.00415171
-0.00442065
-0.00470832
-0.00501588
-0.00534457
-0.00569562
-0.00607029
-0.00646982
-0.00689546
-0.00734836
-0.00782963
-0.00834024
-0.00888096
-0.00945236
-0.0100547
-0.0106878
-0.0113512
-0.0120436
-0.0127634
-0.013508
-0.0142739
-0.0150569
-0.0158516
-0.0166515
-0.0174489
-0.0182349
-0.0189994
-0.0197309
-0.0204169
-0.0210438
-0.021597
-0.0220611
-0.0224201
-0.0226575
-0.0227569
-0.022702
-0.0224767
-0.0220662
-0.0214564
-0.020635
-0.0195915
-0.0183175
-0.0168075
-0.0150588
-0.0130722
-0.0108521
-0.00840744
-0.00575014
-0.00289773
0.000127265
0.00329779
0.00658154
0.00994297
0.0133423
0.0167348
0.0200737
0.0233114
0.0264
0.0292933
0.0319483
0.0343274
0.0364002
0.0381449
0.0395504
0.0406164
0.041354
0.0417851
0.0419413
0.0418618
0.041591
0.0411758
0.0406626
0.0400948
0.0395111
0.0389433
0.0384164
0.0379482
0.0375504
0.0372295
0.0369884
0.0368283
0.0367493
0.0367645
0.0368623
-5.86901e-05
-4.26057e-05
-2.6926e-05
-1.2714e-05
-9.59183e-09
1.04318e-05
1.79469e-05
2.19318e-05
2.18624e-05
1.73081e-05
7.93831e-06
-6.47748e-06
-2.60745e-05
-5.08998e-05
-8.09212e-05
-0.000116037
-0.000156085
-0.000200854
-0.000250094
-0.000303527
-0.000360857
-0.000421779
-0.000485995
-0.00055322
-0.000623199
-0.000695713
-0.000770588
-0.000847701
-0.000926985
-0.00100843
-0.00109209
-0.00117809
-0.00126659
-0.00135786
-0.00145219
-0.00154997
-0.00165163
-0.00175766
-0.00186862
-0.00198512
-0.00210782
-0.00223742
-0.00237467
-0.00252037
-0.00267534
-0.00284044
-0.00301658
-0.00320468
-0.00340571
-0.00362066
-0.00385056
-0.0040965
-0.00435958
-0.00464097
-0.00494187
-0.00526352
-0.00560722
-0.00597428
-0.00636603
-0.00678381
-0.00722892
-0.00770261
-0.00820603
-0.00874017
-0.00930581
-0.00990348
-0.0105333
-0.011195
-0.0118877
-0.01261
-0.0133595
-0.014133
-0.0149266
-0.0157349
-0.0165516
-0.017369
-0.0181783
-0.018969
-0.0197298
-0.0204479
-0.0211093
-0.0216993
-0.022202
-0.0226011
-0.0228799
-0.0230215
-0.0230093
-0.0228271
-0.0224596
-0.0218926
-0.0211135
-0.0201115
-0.0188782
-0.0174076
-0.015697
-0.0137466
-0.0115607
-0.00914754
-0.0065189
-0.00369173
-0.000687839
0.00246637
0.00573909
0.00909506
0.0124954
0.0158962
0.0192501
0.0225098
0.0256274
0.0285559
0.0312516
0.0336758
0.0357968
0.0375916
0.0390473
0.0401622
0.0409461
0.0414199
0.0416144
0.0415687
0.0413271
0.0409368
0.0404451
0.039896
0.0393286
0.0387756
0.038262
0.0378058
0.0374182
0.0371054
0.0368699
0.0367127
0.0366339
0.0366463
0.0367395
-6.82227e-05
-5.02454e-05
-3.32424e-05
-1.83219e-05
-5.27625e-06
5.23409e-06
1.26328e-05
1.6386e-05
1.60231e-05
1.1154e-05
1.47824e-06
-1.3213e-05
-3.30391e-05
-5.80361e-05
-8.81639e-05
-0.000123316
-0.000163326
-0.000207984
-0.000257036
-0.000310207
-0.000367201
-0.000427716
-0.000491453
-0.000558132
-0.000627498
-0.000699332
-0.000773463
-0.000849767
-0.000928175
-0.00100868
-0.00109133
-0.00117623
-0.00126357
-0.00135358
-0.00144657
-0.00154289
-0.00164297
-0.00174729
-0.0018564
-0.00197088
-0.00209137
-0.00221856
-0.00235319
-0.00249601
-0.00264784
-0.00280951
-0.0029819
-0.00316592
-0.00336251
-0.00357265
-0.00379736
-0.00403772
-0.00429484
-0.0045699
-0.00486414
-0.00517885
-0.00551537
-0.00587511
-0.00625952
-0.00667006
-0.00710819
-0.00757537
-0.00807295
-0.00860217
-0.0091641
-0.00975953
-0.0103889
-0.0110523
-0.0117491
-0.0124781
-0.0132373
-0.0140238
-0.0148336
-0.0156617
-0.0165017
-0.0173458
-0.0181851
-0.0190092
-0.0198062
-0.0205631
-0.0212657
-0.0218987
-0.0224459
-0.0228906
-0.0232157
-0.023404
-0.0234385
-0.0233027
-0.0229811
-0.0224593
-0.0217244
-0.0207655
-0.0195739
-0.0181435
-0.0164713
-0.0145572
-0.0124052
-0.010023
-0.00742198
-0.00461865
-0.0016341
0.00150595
0.00477038
0.00812419
0.0115295
0.0149428
0.018317
0.0216047
0.0247576
0.0277284
0.0304726
0.0329502
0.035128
0.0369815
0.0384959
0.039668
0.040506
0.0410294
0.0412682
0.041261
0.0410521
0.0406892
0.04022
0.0396897
0.0391381
0.0385984
0.0380964
0.03765
0.0372707
0.0369641
0.0367325
0.0365767
0.0364964
0.0365041
0.0365901
-7.7399e-05
-5.75631e-05
-3.92057e-05
-2.34956e-05
-1.0008e-05
6.75389e-07
8.05432e-06
1.16576e-05
1.10648e-05
5.92483e-06
-4.03263e-06
-1.89933e-05
-3.9059e-05
-6.42523e-05
-9.45233e-05
-0.000129757
-0.000169783
-0.000214385
-0.00026331
-0.000316277
-0.000372991
-0.000433149
-0.000496454
-0.000562624
-0.000631404
-0.000702576
-0.000775969
-0.000851457
-0.000928972
-0.0010085
-0.00109009
-0.00117385
-0.00125995
-0.00134862
-0.00144016
-0.00153491
-0.00163329
-0.00173578
-0.00184289
-0.0019552
-0.00207334
-0.00219797
-0.0023298
-0.00246958
-0.00261809
-0.00277616
-0.00294464
-0.00312442
-0.00331642
-0.00352162
-0.00374103
-0.00397574
-0.00422688
-0.00449565
-0.00478333
-0.00509129
-0.00542095
-0.00577383
-0.00615152
-0.00655564
-0.00698788
-0.00744989
-0.00794331
-0.00846966
-0.00903032
-0.0096264
-0.0102587
-0.0109276
-0.0116328
-0.0123734
-0.0131477
-0.0139529
-0.0147852
-0.0156396
-0.0165096
-0.0173875
-0.0182639
-0.0191283
-0.0199684
-0.0207708
-0.0215208
-0.0222027
-0.0227998
-0.023295
-0.0236707
-0.0239095
-0.0239939
-0.0239072
-0.0236337
-0.0231588
-0.0224695
-0.0215546
-0.0204055
-0.0190157
-0.017382
-0.0155042
-0.0133857
-0.0110339
-0.00845983
-0.00567933
-0.0027128
0.000414717
0.00367294
0.00702719
0.0104403
0.0138699
0.0172688
0.0205895
0.0237836
0.0268034
0.0296032
0.0321421
0.0343853
0.0363062
0.0378884
0.0391265
0.0400269
0.0406077
0.0408978
0.0409348
0.0407633
0.040431
0.0399866
0.0394758
0.0389398
0.0384126
0.0379207
0.0374824
0.0371092
0.0368069
0.0365774
0.0364212
0.0363379
0.036339
0.0364152
-8.60559e-05
-6.44183e-05
-4.47034e-05
-2.81513e-05
-1.41481e-05
-3.21167e-06
4.22347e-06
7.74181e-06
6.96891e-06
1.59111e-06
-8.63207e-06
-2.38624e-05
-4.41827e-05
-6.96001e-05
-0.000100052
-0.000135415
-0.000175509
-0.000220111
-0.000268964
-0.000321783
-0.00037827
-0.000438121
-0.000501035
-0.00056673
-0.00063495
-0.000705476
-0.000778135
-0.0008528
-0.000929402
-0.00100792
-0.00108841
-0.00117097
-0.00125576
-0.00134301
-0.001433
-0.00152609
-0.00162266
-0.00172319
-0.00182817
-0.00193818
-0.00205381
-0.00217572
-0.00230461
-0.0024412
-0.00258625
-0.00274057
-0.00290499
-0.0030804
-0.00326771
-0.00346788
-0.00368195
-0.003911
-0.00415619
-0.00441878
-0.00470012
-0.00500164
-0.00532489
-0.00567154
-0.00604334
-0.00644212
-0.0068698
-0.00732832
-0.0078196
-0.0083455
-0.00890775
-0.00950782
-0.0101469
-0.0108256
-0.0115441
-0.0123017
-0.0130969
-0.013927
-0.0147884
-0.0156759
-0.016583
-0.0175017
-0.0184223
-0.0193339
-0.0202237
-0.0210778
-0.021881
-0.022617
-0.0232688
-0.0238186
-0.0242486
-0.0245408
-0.0246776
-0.0246421
-0.0244182
-0.0239914
-0.0233485
-0.0224783
-0.0213719
-0.0200229
-0.0184278
-0.0165862
-0.0145012
-0.0121796
-0.00963212
-0.00687394
-0.00392475
-0.000808843
0.00244447
0.00580099
0.0092241
0.0126725
0.0160996
0.0194575
0.0226979
0.0257726
0.028635
0.0312429
0.0335597
0.0355571
0.0372164
0.0385298
0.0395019
0.0401488
0.0404979
0.0405861
0.0404575
0.0401603
0.0397434
0.039254
0.0387341
0.038219
0.0377359
0.037304
0.0369351
0.0366351
0.0364058
0.0362474
0.0361592
0.036152
0.0362163
-9.406e-05
-7.06917e-05
-4.96369e-05
-3.2213e-05
-1.76433e-05
-6.39466e-06
1.1544e-06
4.63726e-06
3.72147e-06
-1.87141e-06
-1.23524e-05
-2.78588e-05
-4.84531e-05
-7.41253e-05
-0.000104799
-0.000140337
-0.00018055
-0.000225208
-0.000274044
-0.00032677
-0.000383081
-0.00044267
-0.000505233
-0.000570485
-0.000638168
-0.000708061
-0.000779989
-0.000853823
-0.000929491
-0.00100698
-0.00108632
-0.00116762
-0.00125103
-0.00133679
-0.00142515
-0.00151647
-0.00161113
-0.00170957
-0.00181231
-0.00191988
-0.00203288
-0.00215195
-0.00227776
-0.00241101
-0.00255247
-0.00270292
-0.00286318
-0.00303412
-0.00321666
-0.00341177
-0.00362048
-0.00384392
-0.0040833
-0.00433992
-0.00461522
-0.00491076
-0.00522823
-0.00556945
-0.0059364
-0.00633115
-0.00675589
-0.00721289
-0.00770441
-0.00823268
-0.0087998
-0.00940765
-0.0100577
-0.0107511
-0.0114882
-0.0122686
-0.0130909
-0.0139526
-0.0148498
-0.0157775
-0.0167287
-0.0176952
-0.0186669
-0.0196321
-0.0205778
-0.0214893
-0.0223509
-0.0231457
-0.023856
-0.0244638
-0.0249508
-0.0252987
-0.0254897
-0.0255067
-0.0253335
-0.0249555
-0.0243595
-0.0235343
-0.0224709
-0.0211629
-0.0196065
-0.0178013
-0.0157499
-0.0134587
-0.0109379
-0.0082022
-0.00527037
-0.00216591
0.00108292
0.0044426
0.00787691
0.0113458
0.0148037
0.0182023
0.0214934
0.0246282
0.0275595
0.0302437
0.0326425
0.0347254
0.0364712
0.03787
0.0389236
0.0396461
0.0400631
0.0402104
0.0401315
0.0398744
0.0394891
0.0390235
0.0385209
0.0380179
0.0375429
0.037116
0.0367496
0.0364499
0.0362188
0.0360563
0.0359616
0.0359442
0.0359947
-0.000101295
-7.62775e-05
-5.39164e-05
-3.56103e-05
-2.04432e-05
-8.8417e-06
-1.13776e-06
2.34478e-06
1.31127e-06
-4.48358e-06
-1.52221e-05
-3.10168e-05
-5.19087e-05
-7.78694e-05
-0.000108806
-0.000144567
-0.000184952
-0.000229718
-0.000278592
-0.000331276
-0.000387459
-0.00044683
-0.000509079
-0.000573918
-0.000641085
-0.000710357
-0.000781555
-0.00085455
-0.000929265
-0.00100568
-0.00108384
-0.00116383
-0.00124581
-0.00132999
-0.00141664
-0.0015061
-0.00159874
-0.00169501
-0.00179539
-0.00190041
-0.00201066
-0.00212676
-0.00224936
-0.00237917
-0.00251693
-0.00266341
-0.00281942
-0.00298584
-0.00316357
-0.00335362
-0.00355704
-0.003775
-0.00400876
-0.00425972
-0.00452943
-0.00481957
-0.00513203
-0.00546882
-0.00583218
-0.00622447
-0.0066482
-0.00710598
-0.00760047
-0.0081343
-0.00870999
-0.00932981
-0.00999568
-0.010709
-0.0114703
-0.0122796
-0.0131355
-0.0140355
-0.0149756
-0.0159504
-0.0169527
-0.0179737
-0.0190029
-0.0200279
-0.021035
-0.022009
-0.0229333
-0.0237906
-0.0245628
-0.0252312
-0.0257772
-0.0261824
-0.0264288
-0.026499
-0.026377
-0.0260481
-0.0254993
-0.0247192
-0.023699
-0.0224322
-0.0209149
-0.0191465
-0.0171292
-0.0148691
-0.0123759
-0.0096633
-0.00674956
-0.00365717
-0.00041329
0.00294951
0.00639548
0.00988578
0.013376
0.0168178
0.0201632
0.0233628
0.0263688
0.0291361
0.0316249
0.0338023
0.0356446
0.037139
0.0382846
0.039093
0.0395877
0.039803
0.0397813
0.0395709
0.0392219
0.0387833
0.0383
0.0378097
0.0373424
0.0369194
0.0365538
0.0362524
0.0360174
0.035849
0.035746
0.0357168
0.035752
-0.000107668
-8.10865e-05
-5.74638e-05
-3.82803e-05
-2.25009e-05
-1.05219e-05
-2.63673e-06
8.6775e-07
-2.69225e-07
-6.26194e-06
-1.72649e-05
-3.33658e-05
-5.45831e-05
-8.08684e-05
-0.000112111
-0.000148144
-0.000188751
-0.00023368
-0.000282643
-0.000335335
-0.000391438
-0.000450631
-0.000512602
-0.000577055
-0.000643726
-0.000712387
-0.000782857
-0.000855003
-0.000928747
-0.00100407
-0.00108099
-0.00115962
-0.00124011
-0.00132265
-0.00140751
-0.00149503
-0.00158557
-0.00167956
-0.00177747
-0.00187984
-0.00198724
-0.00210026
-0.00221956
-0.00234584
-0.0024798
-0.00262224
-0.00277395
-0.00293582
-0.00310876
-0.00329381
-0.00349205
-0.00370472
-0.00393316
-0.00417887
-0.00444354
-0.00472904
-0.00503743
-0.005371
-0.00573227
-0.00612392
-0.00654883
-0.00701003
-0.00751057
-0.00805354
-0.00864188
-0.00927828
-0.00996501
-0.0107038
-0.0114955
-0.01234
-0.0132362
-0.0141813
-0.0151711
-0.0161999
-0.01726
-0.0183419
-0.0194345
-0.0205247
-0.0215982
-0.0226388
-0.0236295
-0.0245524
-0.0253888
-0.0261196
-0.026726
-0.0271894
-0.0274917
-0.0276155
-0.0275449
-0.0272653
-0.0267637
-0.0260289
-0.0250522
-0.0238269
-0.0223493
-0.0206184
-0.0186362
-0.0164083
-0.0139438
-0.0112558
-0.00836153
-0.00528255
-0.0020449
0.00132009
0.00477738
0.0082892
0.0118123
0.0152991
0.0187013
0.0219697
0.0250555
0.0279125
0.030499
0.0327798
0.0347284
0.036329
0.0375776
0.0384829
0.0390659
0.0393588
0.0394031
0.0392465
0.0389395
0.0385322
0.0380705
0.0375942
0.0371347
0.0367146
0.0363484
0.0360435
0.0358027
0.0356264
0.0355135
0.0354708
0.0354895
-0.000113096
-8.50395e-05
-6.02079e-05
-4.01645e-05
-2.3772e-05
-1.14052e-05
-3.32562e-06
2.11107e-07
-1.02525e-06
-7.22024e-06
-1.85014e-05
-3.49314e-05
-5.65057e-05
-8.31547e-05
-0.000114748
-0.000151101
-0.000191984
-0.000237126
-0.00028623
-0.000338979
-0.000395046
-0.000454102
-0.000515827
-0.00057992
-0.000646113
-0.000714173
-0.000783915
-0.000855203
-0.000927957
-0.00100215
-0.00107782
-0.00115504
-0.00123397
-0.00131481
-0.00139782
-0.00148331
-0.00157166
-0.00166329
-0.00175865
-0.00185828
-0.00196272
-0.00207258
-0.0021885
-0.00231116
-0.00244127
-0.00257962
-0.00272701
-0.00288434
-0.00305255
-0.00323271
-0.00342596
-0.00363361
-0.00385711
-0.0040981
-0.00435843
-0.00464016
-0.00494562
-0.00527739
-0.00563829
-0.0060314
-0.00646001
-0.00692756
-0.00743759
-0.00799362
-0.00859904
-0.00925694
-0.00996997
-0.0107401
-0.0115683
-0.0124547
-0.0133978
-0.0143948
-0.0154412
-0.0165305
-0.0176546
-0.0188032
-0.0199646
-0.0211248
-0.0222686
-0.0233794
-0.0244393
-0.0254299
-0.0263321
-0.0271265
-0.027794
-0.028316
-0.0286743
-0.0288518
-0.0288326
-0.0286022
-0.0281478
-0.0274586
-0.0265256
-0.0253425
-0.0239053
-0.022213
-0.0202672
-0.0180731
-0.0156391
-0.0129775
-0.0101046
-0.00704106
-0.00381158
-0.000446045
0.00302137
0.00655393
0.0101097
0.0136422
0.0171031
0.0204433
0.0236134
0.0265659
0.0292573
0.03165
0.0337147
0.0354322
0.0367952
0.0378089
0.0384914
0.0388727
0.0389925
0.0388979
0.0386396
0.0382683
0.0378318
0.0373712
0.0369198
0.0365022
0.036134
0.0358239
0.0355754
0.0353892
0.0352648
0.0352072
0.0352085
-0.000117513
-8.8069e-05
-6.20869e-05
-4.12103e-05
-2.42155e-05
-1.14623e-05
-3.18691e-06
3.81919e-07
-9.58968e-07
-7.36839e-06
-1.89478e-05
-3.57349e-05
-5.77015e-05
-8.47557e-05
-0.000116746
-0.00015347
-0.000194678
-0.000240085
-0.00028938
-0.000342233
-0.000398307
-0.000457263
-0.000518774
-0.000582533
-0.000648264
-0.000715732
-0.000784746
-0.000855169
-0.000926915
-0.000999956
-0.00107432
-0.0011501
-0.00122743
-0.00130651
-0.00138759
-0.001471
-0.00155709
-0.00164627
-0.00173901
-0.00183581
-0.00193722
-0.00204385
-0.00215631
-0.0022753
-0.00240152
-0.00253576
-0.00267885
-0.00283169
-0.00299528
-0.00317071
-0.00335922
-0.00356222
-0.00378127
-0.00401817
-0.00427498
-0.00455401
-0.00485786
-0.00518943
-0.00555195
-0.00594888
-0.00638398
-0.00686114
-0.00738439
-0.00795773
-0.00858498
-0.00926963
-0.0100146
-0.0108221
-0.0116932
-0.0126279
-0.0136247
-0.0146802
-0.0157895
-0.0169455
-0.0181392
-0.0193599
-0.0205946
-0.0218287
-0.0230462
-0.0242298
-0.0253609
-0.0264207
-0.0273897
-0.0282482
-0.028977
-0.0295576
-0.0299718
-0.0302026
-0.0302345
-0.0300532
-0.0296462
-0.0290026
-0.0281138
-0.0269736
-0.0255779
-0.0239255
-0.0220178
-0.0198593
-0.0174579
-0.0148251
-0.0119762
-0.00893052
-0.00571171
-0.002348
0.00112759
0.00467931
0.00826685
0.0118449
0.0153653
0.0187794
0.0220372
0.0250902
0.0278931
0.0304059
0.0325962
0.0344413
0.0359301
0.0370642
0.0378582
0.0383392
0.038545
0.0385215
0.0383192
0.0379898
0.0375823
0.0371397
0.0366976
0.0362821
0.035911
0.0355941
0.0353361
0.0351382
0.0350009
0.034927
0.0349101
-0.000120858
-9.01144e-05
-6.30437e-05
-4.13688e-05
-2.37923e-05
-1.06648e-05
-2.20248e-06
1.38861e-06
-7.05849e-08
-6.71387e-06
-1.86176e-05
-3.57944e-05
-5.81921e-05
-8.56953e-05
-0.000118131
-0.000155275
-0.000196859
-0.000242582
-0.000292117
-0.00034512
-0.000401242
-0.000460134
-0.000521461
-0.000584909
-0.000650195
-0.000717079
-0.000785365
-0.000854914
-0.000925635
-0.0009975
-0.00107054
-0.00114483
-0.00122051
-0.00129778
-0.00137688
-0.00145814
-0.0015419
-0.00162857
-0.00171861
-0.00181252
-0.00191084
-0.00201417
-0.00212314
-0.00223842
-0.00236075
-0.0024909
-0.00262973
-0.00277817
-0.00293728
-0.00310823
-0.00329233
-0.0034911
-0.00370629
-0.00393987
-0.00419414
-0.00447168
-0.00477542
-0.00510865
-0.00547499
-0.00587837
-0.00632301
-0.00681334
-0.00735385
-0.00794903
-0.00860311
-0.00931995
-0.0101027
-0.0109538
-0.0118742
-0.0128637
-0.0139205
-0.0150408
-0.016219
-0.0174472
-0.0187158
-0.0200129
-0.0213247
-0.022636
-0.0239297
-0.0251879
-0.0263916
-0.0275213
-0.0285573
-0.0294799
-0.0302698
-0.0309085
-0.0313781
-0.031662
-0.0317446
-0.0316123
-0.0312526
-0.030655
-0.029811
-0.0287145
-0.0273615
-0.0257506
-0.0238827
-0.021762
-0.0193957
-0.0167943
-0.0139722
-0.0109474
-0.00774229
-0.00438343
-0.000902359
0.00266622
0.00628374
0.00990623
0.0134862
0.0169752
0.0203232
0.0234808
0.026401
0.0290413
0.0313662
0.0333493
0.0349755
0.0362421
0.0371599
0.0377527
0.0380556
0.0381131
0.0379753
0.0376943
0.0373204
0.0368989
0.0364674
0.0360543
0.0356794
0.0353544
0.0350852
0.0348738
0.0347221
0.0346308
0.0345952
-0.000123083
-9.1124e-05
-6.30281e-05
-4.05956e-05
-2.24658e-05
-8.98498e-06
-3.53613e-07
3.24142e-06
1.64254e-06
-5.26066e-06
-1.75201e-05
-3.51237e-05
-5.79944e-05
-8.59927e-05
-0.000118922
-0.000156537
-0.000198549
-0.000244638
-0.00029446
-0.000347657
-0.000403867