/*--------------------------------*- C++ -*----------------------------------*\
  =========                 |
  \\      /  F ield         | OpenFOAM: The Open Source CFD Toolbox
   \\    /   O peration     | Website:  https://openfoam.org
    \\  /    A nd           | Version:  12
     \\/     M anipulation  |
\*---------------------------------------------------------------------------*/
FoamFile
{
    format      ascii;
    class       surfaceScalarField;
    location    "8";
    object      phi;
}
// * * * * * * * * * * * * * * * * * * * * * * * * * * * * * * * * * * * * * //

dimensions      [0 3 -1 0 0 0 0];

internalField   nonuniform List<scalar> 
36180
(
-4.85186e-11
4.94005e-11
-7.81002e-11
2.95368e-11
-4.72093e-11
-3.09369e-11
5.51725e-11
-1.02404e-10
2.27131e-10
-1.71963e-10
4.62123e-10
-2.34986e-10
7.51848e-10
-2.89717e-10
1.08752e-09
-3.35664e-10
1.46038e-09
-3.7286e-10
1.86198e-09
-4.01591e-10
2.28425e-09
-4.22276e-10
2.71967e-09
-4.35422e-10
3.16126e-09
-4.41597e-10
3.60268e-09
-4.41426e-10
4.03825e-09
-4.35572e-10
4.46298e-09
-4.24732e-10
4.8726e-09
-4.0962e-10
5.26356e-09
-3.90965e-10
5.63305e-09
-3.6949e-10
5.97896e-09
-3.45904e-10
6.29985e-09
-3.20892e-10
6.59496e-09
-2.95103e-10
6.8641e-09
-2.69141e-10
7.10766e-09
-2.43557e-10
7.32651e-09
-2.18842e-10
7.52193e-09
-1.95416e-10
7.69556e-09
-1.73633e-10
7.84933e-09
-1.53769e-10
7.98536e-09
-1.36027e-10
8.10589e-09
-1.20528e-10
8.21321e-09
-1.07319e-10
8.30958e-09
-9.6367e-11
8.39714e-09
-8.75622e-11
8.47786e-09
-8.07178e-11
8.55343e-09
-7.55705e-11
8.62522e-09
-7.17833e-11
8.69417e-09
-6.89485e-11
8.76075e-09
-6.65822e-11
8.82494e-09
-6.41861e-11
8.88604e-09
-6.1106e-11
8.94281e-09
-5.67684e-11
8.99329e-09
-5.04708e-11
9.03478e-09
-4.14978e-11
9.06394e-09
-2.91516e-11
9.0766e-09
-1.26629e-11
9.06792e-09
8.68194e-12
9.03232e-09
3.56056e-11
8.96347e-09
6.8849e-11
8.85434e-09
1.09132e-10
8.69718e-09
1.57161e-10
8.48353e-09
2.13648e-10
8.20423e-09
2.79304e-10
7.84938e-09
3.54849e-10
7.40833e-09
4.41048e-10
6.86971e-09
5.38624e-10
6.22135e-09
6.48359e-10
5.45023e-09
7.71121e-10
4.54269e-09
9.07541e-10
3.48409e-09
1.0586e-09
2.25915e-09
1.22494e-09
8.51786e-10
1.40736e-09
-7.54675e-10
1.60646e-09
-2.57746e-09
1.82279e-09
-4.6342e-09
2.05674e-09
-6.94257e-09
2.30837e-09
-9.5201e-09
2.57754e-09
-1.2384e-08
2.8639e-09
-1.55507e-08
3.16675e-09
-1.90358e-08
3.48503e-09
-2.2853e-08
3.81727e-09
-2.70146e-08
4.1616e-09
-3.15303e-08
4.5157e-09
-3.64072e-08
4.87685e-09
-4.1649e-08
5.24184e-09
-4.72561e-08
5.60706e-09
-5.32246e-08
5.96851e-09
-5.95464e-08
6.32177e-09
-6.62085e-08
6.66213e-09
-7.3193e-08
6.98454e-09
-8.04768e-08
7.28375e-09
-8.80311e-08
7.55432e-09
-9.58218e-08
7.79068e-09
-1.03809e-07
7.98716e-09
-1.11947e-07
8.13811e-09
-1.20185e-07
8.23789e-09
-1.28466e-07
8.28094e-09
-1.36728e-07
8.26182e-09
-1.44903e-07
8.17527e-09
-1.52919e-07
8.01621e-09
-1.60699e-07
7.77987e-09
-1.68161e-07
7.46177e-09
-1.75219e-07
7.05789e-09
-1.81783e-07
6.56469e-09
-1.87763e-07
5.97933e-09
-1.93062e-07
5.29972e-09
-1.97586e-07
4.52378e-09
-2.0123e-07
3.6435e-09
-2.039e-07
2.66992e-09
-2.05534e-07
1.63456e-09
-2.06028e-07
4.93977e-10
-2.05297e-07
-7.31309e-10
-2.03286e-07
-2.01041e-09
-1.99942e-07
-3.34446e-09
-1.9523e-07
-4.71192e-09
-1.89142e-07
-6.08821e-09
-1.81694e-07
-7.44758e-09
-1.72932e-07
-8.76198e-09
-1.62933e-07
-9.99967e-09
-1.51806e-07
-1.11266e-08
-1.39698e-07
-1.21081e-08
-1.26788e-07
-1.29101e-08
-1.13286e-07
-1.35015e-08
-9.94301e-08
-1.38563e-08
-8.54751e-08
-1.3955e-08
-7.16876e-08
-1.37874e-08
-5.83341e-08
-1.33536e-08
-4.56691e-08
-1.2665e-08
-3.39246e-08
-1.17445e-08
-2.32991e-08
-1.06256e-08
-1.39485e-08
-9.3506e-09
-5.9804e-09
-7.96806e-09
5.49069e-10
-6.52947e-09
5.63557e-09
-5.0865e-09
9.32104e-09
-3.68547e-09
1.16893e-08
-2.36824e-09
1.2857e-08
-1.16772e-09
1.29659e-08
-1.08899e-10
1.21731e-08
7.92766e-10
1.06543e-08
1.5188e-09
8.59542e-09
2.05891e-09
6.21151e-09
2.38391e-09
3.76669e-09
2.44482e-09
1.60563e-09
2.16106e-09
2.0704e-10
1.39859e-09
2.07041e-10
-7.8254e-11
1.276e-10
-9.42162e-11
4.54236e-11
4.59962e-11
-1.71206e-10
3.70543e-10
-4.26977e-10
8.78938e-10
-6.80361e-10
1.55701e-09
-9.13048e-10
2.38457e-09
-1.11726e-09
3.339e-09
-1.29008e-09
4.39706e-09
-1.43092e-09
5.53582e-09
-1.54035e-09
6.7332e-09
-1.61965e-09
7.9683e-09
-1.67053e-09
9.22169e-09
-1.695e-09
1.04756e-08
-1.69532e-09
1.1714e-08
-1.67396e-09
1.29227e-08
-1.6335e-09
1.40897e-08
-1.57663e-09
1.52048e-08
-1.50607e-09
1.62599e-08
-1.42455e-09
1.72487e-08
-1.33474e-09
1.81671e-08
-1.23923e-09
1.90125e-08
-1.14047e-09
1.9784e-08
-1.04072e-09
2.04825e-08
-9.42065e-10
2.11101e-08
-8.46349e-10
2.16698e-08
-7.55166e-10
2.2166e-08
-6.6984e-10
2.26037e-08
-5.91412e-10
2.29883e-08
-5.20634e-10
2.33257e-08
-4.57958e-10
2.36219e-08
-4.03538e-10
2.38828e-08
-3.57227e-10
2.41138e-08
-3.18579e-10
2.43199e-08
-2.86847e-10
2.45054e-08
-2.6099e-10
2.46733e-08
-2.39684e-10
2.48256e-08
-2.21324e-10
2.49631e-08
-2.04032e-10
2.50847e-08
-1.85806e-10
2.51878e-08
-1.64173e-10
2.52678e-08
-1.36807e-10
2.53183e-08
-1.00994e-10
2.53308e-08
-5.39182e-11
2.52945e-08
7.14549e-12
2.51966e-08
8.51934e-11
2.50222e-08
1.83065e-10
2.47542e-08
3.03639e-10
2.43732e-08
4.49811e-10
2.38579e-08
6.24427e-10
2.31848e-08
8.30304e-10
2.23282e-08
1.07024e-09
2.12605e-08
1.34705e-09
1.99518e-08
1.66356e-09
1.83701e-08
2.02268e-09
1.64815e-08
2.42723e-09
1.42497e-08
2.88018e-09
1.16363e-08
3.38455e-09
8.60076e-09
3.94306e-09
5.10066e-09
4.5587e-09
1.09174e-09
5.23387e-09
-3.47213e-09
5.97123e-09
-8.63894e-09
6.77327e-09
-1.44571e-08
7.64098e-09
-2.0975e-08
8.57457e-09
-2.82406e-08
9.57402e-09
-3.63013e-08
1.06383e-08
-4.52023e-08
1.17649e-08
-5.49858e-08
1.29502e-08
-6.56898e-08
1.41891e-08
-7.73473e-08
1.54748e-08
-8.99847e-08
1.6799e-08
-1.03621e-07
1.81518e-08
-1.18266e-07
1.95217e-08
-1.33919e-07
2.08954e-08
-1.5057e-07
2.22581e-08
-1.68196e-07
2.35938e-08
-1.86759e-07
2.4885e-08
-2.0621e-07
2.61132e-08
-2.26484e-07
2.72589e-08
-2.47503e-07
2.83023e-08
-2.69171e-07
2.92228e-08
-2.9138e-07
2.99999e-08
-3.14006e-07
3.06128e-08
-3.36909e-07
3.10414e-08
-3.59937e-07
3.12655e-08
-3.82922e-07
3.12661e-08
-4.05685e-07
3.10244e-08
-4.28032e-07
3.05229e-08
-4.49761e-07
2.97452e-08
-4.70658e-07
2.86761e-08
-4.90498e-07
2.73018e-08
-5.0905e-07
2.56104e-08
-5.26078e-07
2.35924e-08
-5.41339e-07
2.12405e-08
-5.5459e-07
1.85507e-08
-5.65587e-07
1.55209e-08
-5.74089e-07
1.2145e-08
-5.79833e-07
8.41467e-09
-5.82657e-07
4.45774e-09
-5.8235e-07
1.87238e-10
-5.78739e-07
-4.3424e-09
-5.71661e-07
-9.08791e-09
-5.61021e-07
-1.39849e-08
-5.46763e-07
-1.897e-08
-5.28893e-07
-2.39579e-08
-5.07484e-07
-2.88571e-08
-4.82677e-07
-3.35686e-08
-4.54694e-07
-3.79826e-08
-4.23838e-07
-4.19823e-08
-3.90497e-07
-4.5449e-08
-3.5514e-07
-4.82675e-08
-3.18309e-07
-5.03325e-08
-2.8061e-07
-5.15554e-08
-2.42694e-07
-5.18709e-08
-2.05238e-07
-5.12433e-08
-1.68919e-07
-4.96722e-08
-1.34389e-07
-4.71952e-08
-1.02245e-07
-4.38886e-08
-7.30051e-08
-3.98654e-08
-4.70863e-08
-3.52694e-08
-2.47872e-08
-3.02672e-08
-6.27878e-09
-2.50379e-08
8.39671e-09
-1.9762e-08
1.93203e-08
-1.46091e-08
2.6683e-08
-9.73085e-09
3.07674e-08
-5.25216e-09
3.19306e-08
-1.27206e-09
3.0588e-08
2.13528e-09
2.72054e-08
4.90143e-09
2.22945e-08
6.96984e-09
1.64477e-08
8.23066e-09
1.03693e-08
8.52326e-09
4.92841e-09
7.60193e-09
1.18062e-09
5.14638e-09
1.38766e-09
-6.50356e-11
1.92713e-10
-1.27116e-11
-6.90936e-12
2.74962e-10
-4.58911e-10
8.38279e-10
-9.90314e-10
1.67914e-09
-1.52123e-09
2.7791e-09
-2.013e-09
4.10955e-09
-2.4477e-09
5.63716e-09
-2.81769e-09
7.32686e-09
-3.12061e-09
9.1435e-09
-3.35699e-09
1.10529e-08
-3.52903e-09
1.30224e-08
-3.64007e-09
1.50216e-08
-3.69421e-09
1.70225e-08
-3.69618e-09
1.89996e-08
-3.65114e-09
2.09307e-08
-3.5646e-09
2.27964e-08
-3.44229e-09
2.45804e-08
-3.29005e-09
2.62695e-08
-3.11371e-09
2.78538e-08
-2.91901e-09
2.93261e-08
-2.71151e-09
3.06821e-08
-2.49644e-09
3.192e-08
-2.2787e-09
3.30407e-08
-2.06274e-09
3.40469e-08
-1.85252e-09
3.49432e-08
-1.65146e-09
3.57357e-08
-1.46239e-09
3.64319e-08
-1.28756e-09
3.70398e-08
-1.12855e-09
3.75682e-08
-9.86313e-10
3.80258e-08
-8.61146e-10
3.84212e-08
-7.52686e-10
3.87626e-08
-6.59911e-10
3.90569e-08
-5.81145e-10
3.93099e-08
-5.14065e-10
3.9526e-08
-4.55721e-10
3.97072e-08
-4.02557e-10
3.98536e-08
-3.50419e-10
3.99626e-08
-2.94829e-10
4.00289e-08
-2.30401e-10
4.00439e-08
-1.51886e-10
3.99962e-08
-5.32989e-11
3.98708e-08
7.14969e-11
3.96492e-08
2.28774e-10
3.93095e-08
4.24902e-10
3.88262e-08
6.66364e-10
3.81703e-08
9.59568e-10
3.73091e-08
1.31094e-09
3.62067e-08
1.72684e-09
3.48235e-08
2.21353e-09
3.31165e-08
2.77728e-09
3.10392e-08
3.4243e-09
2.85419e-08
4.16084e-09
2.55713e-08
4.99327e-09
2.20709e-08
5.92772e-09
1.79804e-08
6.97064e-09
1.3237e-08
8.12791e-09
7.77455e-09
9.40556e-09
1.52368e-09
1.08096e-08
-5.58847e-09
1.2346e-08
-1.36363e-08
1.4019e-08
-2.26946e-08
1.58316e-08
-3.28391e-08
1.77856e-08
-4.41458e-08
1.98813e-08
-5.66888e-08
2.2117e-08
-7.05392e-08
2.44887e-08
-8.57638e-08
2.69895e-08
-1.02423e-07
2.96095e-08
-1.2057e-07
3.23357e-08
-1.40247e-07
3.51516e-08
-1.61485e-07
3.80369e-08
-1.84301e-07
4.09683e-08
-2.08698e-07
4.39185e-08
-2.34659e-07
4.6857e-08
-2.62152e-07
4.97504e-08
-2.9112e-07
5.25621e-08
-3.21488e-07
5.52533e-08
-3.53158e-07
5.77833e-08
-3.86009e-07
6.01099e-08
-4.19897e-07
6.21899e-08
-4.54654e-07
6.39798e-08
-4.9009e-07
6.54363e-08
-5.25994e-07
6.65168e-08
-5.62133e-07
6.71796e-08
-5.98252e-07
6.73847e-08
-6.3408e-07
6.7094e-08
-6.69327e-07
6.62715e-08
-7.03688e-07
6.48838e-08
-7.36843e-07
6.29005e-08
-7.68461e-07
6.02942e-08
-7.982e-07
5.70412e-08
-8.25712e-07
5.31221e-08
-8.50642e-07
4.85224e-08
-8.72635e-07
4.32331e-08
-8.91336e-07
3.72519e-08
-9.06398e-07
3.05833e-08
-9.1749e-07
2.32369e-08
-9.24239e-07
1.51637e-08
-9.26421e-07
6.63972e-09
-9.23779e-07
-2.45489e-09
-9.16049e-07
-1.20722e-08
-9.03066e-07
-2.20714e-08
-8.84717e-07
-3.23339e-08
-8.6096e-07
-4.27273e-08
-8.31838e-07
-5.30792e-08
-7.97493e-07
-6.32027e-08
-7.58163e-07
-7.28982e-08
-7.14199e-07
-8.19469e-08
-6.66064e-07
-9.0117e-08
-6.14339e-07
-9.71742e-08
-5.59715e-07
-1.02892e-07
-5.02985e-07
-1.07063e-07
-4.45028e-07
-1.09512e-07
-3.8679e-07
-1.10109e-07
-3.29249e-07
-1.08784e-07
-2.7339e-07
-1.05532e-07
-2.20162e-07
-1.00423e-07
-1.70446e-07
-9.36052e-08
-1.25013e-07
-8.52982e-08
-8.44976e-08
-7.57849e-08
-4.93683e-08
-6.53965e-08
-1.99133e-08
-5.44928e-08
3.76526e-09
-4.34406e-08
2.17472e-08
-3.2591e-08
3.42785e-08
-2.22622e-08
4.17514e-08
-1.2725e-08
4.46785e-08
-4.19925e-09
4.36763e-08
3.13756e-09
3.94442e-08
9.13348e-09
3.27716e-08
1.36424e-08
2.45637e-08
1.64386e-08
1.58756e-08
1.72114e-08
7.95656e-09
1.55209e-08
2.227e-09
1.08759e-08
3.61467e-09
-2.55296e-11
2.1823e-10
1.32276e-10
-1.64754e-10
5.96154e-10
-9.22828e-10
1.41184e-09
-1.80602e-09
2.58272e-09
-2.69212e-09
4.08755e-09
-3.51781e-09
5.89156e-09
-4.25169e-09
7.95309e-09
-4.8792e-09
1.02274e-08
-5.39494e-09
1.26692e-08
-5.79873e-09
1.52337e-08
-6.0936e-09
1.78784e-08
-6.28471e-09
2.05629e-08
-6.37872e-09
2.32501e-08
-6.38343e-09
2.59064e-08
-6.30748e-09
2.8502e-08
-6.16014e-09
3.10108e-08
-5.95111e-09
3.3411e-08
-5.69027e-09
3.56848e-08
-5.38753e-09
3.78185e-08
-5.05266e-09
3.98021e-08
-4.69508e-09
4.16294e-08
-4.32372e-09
4.32976e-08
-3.94692e-09
4.48071e-08
-3.57223e-09
4.6161e-08
-3.20641e-09
4.73648e-08
-2.85526e-09
4.8426e-08
-2.52361e-09
4.93537e-08
-2.21523e-09
5.01579e-08
-1.9328e-09
5.08495e-08
-1.6779e-09
5.14393e-08
-1.45097e-09
5.19379e-08
-1.25131e-09
5.23551e-08
-1.07707e-09
5.26993e-08
-9.25283e-10
5.2977e-08
-7.91834e-10
5.31928e-08
-6.71531e-10
5.33484e-08
-5.58128e-10
5.34423e-08
-4.44347e-10
5.34698e-08
-3.2228e-10
5.3422e-08
-1.82627e-10
5.32861e-08
-1.60018e-11
5.30448e-08
1.88054e-10
5.26761e-08
4.40171e-10
5.21534e-08
7.51444e-10
5.14453e-08
1.13307e-09
5.05152e-08
1.59644e-09
4.93219e-08
2.15287e-09
4.78192e-08
2.81367e-09
4.5956e-08
3.59003e-09
4.36765e-08
4.49302e-09
4.09202e-08
5.53362e-09
3.76217e-08
6.72276e-09
3.37113e-08
8.07129e-09
2.91143e-08
9.59024e-09
2.3752e-08
1.12901e-08
1.75414e-08
1.31812e-08
1.03952e-08
1.5274e-08
2.22119e-09
1.75796e-08
-7.07601e-09
2.01068e-08
-1.75935e-08
2.28635e-08
-2.94305e-08
2.58561e-08
-4.26879e-08
2.90889e-08
-5.74659e-08
3.25636e-08
-7.38631e-08
3.62784e-08
-9.19743e-08
4.02282e-08
-1.11889e-07
4.44033e-08
-1.33689e-07
4.8789e-08
-1.57444e-07
5.33653e-08
-1.83215e-07
5.81064e-08
-2.11044e-07
6.29804e-08
-2.40956e-07
6.79496e-08
-2.72958e-07
7.29699e-08
-3.07031e-07
7.79915e-08
-3.43133e-07
8.29592e-08
-3.81196e-07
8.78127e-08
-4.21121e-07
9.24873e-08
-4.62782e-07
9.6915e-08
-5.06024e-07
1.01025e-07
-5.50659e-07
1.04745e-07
-5.9647e-07
1.08001e-07
-6.43212e-07
1.10722e-07
-6.90611e-07
1.12835e-07
-7.38365e-07
1.14271e-07
-7.8615e-07
1.14964e-07
-8.33615e-07
1.1485e-07
-8.80391e-07
1.13871e-07
-9.26092e-07
1.11972e-07
-9.70313e-07
1.09105e-07
-1.01264e-06
1.05225e-07
-1.05264e-06
1.00296e-07
-1.08988e-06
9.42867e-08
-1.12394e-06
8.7174e-08
-1.15436e-06
7.8943e-08
-1.18071e-06
6.95887e-08
-1.20258e-06
5.91166e-08
-1.21954e-06
4.75444e-08
-1.2312e-06
3.48987e-08
-1.23722e-06
2.11856e-08
-1.23725e-06
6.66436e-09
-1.231e-06
-8.69769e-09
-1.21826e-06
-2.48184e-08
-1.19884e-06
-4.14885e-08
-1.17266e-06
-5.85166e-08
-1.1397e-06
-7.56834e-08
-1.10007e-06
-9.27132e-08
-1.05397e-06
-1.09305e-07
-1.00172e-06
-1.2514e-07
-9.43799e-07
-1.39872e-07
-8.80779e-07
-1.53137e-07
-8.13387e-07
-1.64567e-07
-7.42473e-07
-1.73805e-07
-6.6901e-07
-1.80526e-07
-5.94068e-07
-1.84453e-07
-5.18796e-07
-1.85381e-07
-4.44389e-07
-1.83191e-07
-3.72049e-07
-1.77871e-07
-3.02947e-07
-1.69525e-07
-2.38178e-07
-1.58375e-07
-1.78714e-07
-1.44761e-07
-1.25372e-07
-1.29127e-07
-7.87729e-08
-1.11996e-07
-3.9324e-08
-9.39417e-08
-7.20557e-09
-7.5559e-08
1.76285e-08
-5.7425e-08
3.54374e-08
-4.00711e-08
4.66729e-08
-2.39605e-08
5.19537e-08
-9.48004e-09
5.20414e-08
3.04988e-09
4.78212e-08
1.33537e-08
4.03081e-08
2.11555e-08
3.06558e-08
2.6091e-08
2.01924e-08
2.76748e-08
1.04464e-08
2.52669e-08
3.11951e-09
1.82028e-08
6.73417e-09
2.91567e-11
1.89136e-10
3.17078e-10
-4.52667e-10
9.77393e-10
-1.58316e-09
2.05528e-09
-2.88392e-09
3.55366e-09
-4.19049e-09
5.44874e-09
-5.41289e-09
7.70098e-09
-6.50392e-09
1.02621e-08
-7.44026e-09
1.30794e-08
-8.21224e-09
1.60989e-08
-8.81829e-09
1.92673e-08
-9.26199e-09
2.2533e-08
-9.55037e-09
2.58472e-08
-9.69293e-09
2.91648e-08
-9.70102e-09
3.24447e-08
-9.58739e-09
3.56503e-08
-9.36578e-09
3.87497e-08
-9.05057e-09
4.1716e-08
-8.65654e-09
4.4527e-08
-8.19849e-09
4.71653e-08
-7.69101e-09
4.96185e-08
-7.1482e-09
5.18782e-08
-6.58345e-09
5.39405e-08
-6.00921e-09
5.58051e-08
-5.43684e-09
5.74751e-08
-4.8764e-09
5.89564e-08
-4.33661e-09
6.02575e-08
-3.82465e-09
6.13884e-08
-3.34614e-09
6.23606e-08
-2.90505e-09
6.31864e-08
-2.50367e-09
6.3878e-08
-2.14255e-09
6.44472e-08
-1.82051e-09
6.49047e-08
-1.53462e-09
6.52597e-08
-1.28022e-09
6.55188e-08
-1.05092e-09
6.56859e-08
-8.38688e-10
6.57616e-08
-6.33852e-10
6.57425e-08
-4.25243e-10
6.56207e-08
-2.00477e-10
6.53835e-08
5.45914e-11
6.50129e-08
3.54613e-10
6.44854e-08
7.15582e-10
6.37716e-08
1.15397e-09
6.28362e-08
1.68688e-09
6.16376e-08
2.33167e-09
6.01281e-08
3.10592e-09
5.82538e-08
4.02718e-09
5.59545e-08
5.11295e-09
5.3164e-08
6.38055e-09
4.98099e-08
7.84711e-09
4.58139e-08
9.52959e-09
4.10919e-08
1.14448e-08
3.55539e-08
1.36093e-08
2.91046e-08
1.60395e-08
2.16434e-08
1.87512e-08
1.30639e-08
2.17608e-08
3.25439e-09
2.50835e-08
-7.89982e-09
2.87338e-08
-2.05173e-08
3.27242e-08
-3.47192e-08
3.70655e-08
-5.06284e-08
4.17653e-08
-6.83672e-08
4.68278e-08
-8.80565e-08
5.22528e-08
-1.09813e-07
5.80347e-08
-1.33746e-07
6.41618e-08
-1.59958e-07
7.06153e-08
-1.88538e-07
7.73685e-08
-2.19559e-07
8.43863e-08
-2.53077e-07
9.16245e-08
-2.89127e-07
9.90301e-08
-3.27718e-07
1.0654e-07
-3.68832e-07
1.14084e-07
-4.12422e-07
1.21581e-07
-4.58406e-07
1.28944e-07
-5.06671e-07
1.36078e-07
-5.57066e-07
1.42882e-07
-6.09403e-07
1.49252e-07
-6.6346e-07
1.55082e-07
-7.18977e-07
1.60262e-07
-7.7566e-07
1.64684e-07
-8.3318e-07
1.68242e-07
-8.91179e-07
1.70834e-07
-9.4927e-07
1.72362e-07
-1.00704e-06
1.72732e-07
-1.06405e-06
1.71861e-07
-1.11985e-06
1.69669e-07
-1.17396e-06
1.66087e-07
-1.22591e-06
1.61053e-07
-1.2752e-06
1.54515e-07
-1.32134e-06
1.46431e-07
-1.36382e-06
1.3677e-07
-1.40216e-06
1.2551e-07
-1.43586e-06
1.12644e-07
-1.46445e-06
9.81791e-08
-1.48747e-06
8.2136e-08
-1.50448e-06
6.45547e-08
-1.51507e-06
4.54923e-08
-1.5189e-06
2.50153e-08
-1.5156e-06
3.36674e-09
-1.50491e-06
-1.9391e-08
-1.48662e-06
-4.31114e-08
-1.46059e-06
-6.75193e-08
-1.42676e-06
-9.23417e-08
-1.38518e-06
-1.17264e-07
-1.33599e-06
-1.419e-07
-1.27947e-06
-1.65826e-07
-1.21602e-06
-1.88595e-07
-1.14616e-06
-2.09727e-07
-1.07058e-06
-2.28716e-07
-9.90099e-07
-2.45052e-07
-9.05663e-07
-2.5824e-07
-8.1836e-07
-2.67829e-07
-7.29384e-07
-2.7343e-07
-6.40015e-07
-2.7475e-07
-5.51591e-07
-2.71615e-07
-4.65466e-07
-2.63996e-07
-3.82969e-07
-2.52022e-07
-3.05354e-07
-2.35989e-07
-2.33757e-07
-2.16359e-07
-1.69145e-07
-1.93739e-07
-1.12282e-07
-1.68859e-07
-6.3694e-08
-1.4253e-07
-2.36542e-08
-1.15599e-07
7.82367e-09
-8.89029e-08
3.09773e-08
-6.32248e-08
4.62775e-08
-3.92607e-08
5.44034e-08
-1.76059e-08
5.62171e-08
1.23613e-09
5.27445e-08
1.68263e-08
4.51725e-08
2.87275e-08
3.48511e-08
3.64124e-08
2.33191e-08
3.92068e-08
1.23213e-08
3.62647e-08
3.80409e-09
2.67201e-08
1.05383e-08
9.18502e-11
9.72783e-11
5.24889e-10
-8.85732e-10
1.39469e-09
-2.45299e-09
2.74074e-09
-4.22998e-09
4.56315e-09
-6.0129e-09
6.83522e-09
-7.68494e-09
9.51321e-09
-9.18189e-09
1.25433e-08
-1.04703e-08
1.58664e-08
-1.15353e-08
1.94212e-08
-1.23731e-08
2.31468e-08
-1.29876e-08
2.6984e-08
-1.33876e-08
3.08767e-08
-1.35856e-08
3.47727e-08
-1.3597e-08
3.86243e-08
-1.3439e-08
4.23889e-08
-1.31304e-08
4.60293e-08
-1.2691e-08
4.95137e-08
-1.2141e-08
5.28161e-08
-1.15009e-08
5.59158e-08
-1.07907e-08
5.87976e-08
-1.003e-08
6.14514e-08
-9.23721e-09
6.38717e-08
-8.42951e-09
6.60575e-08
-7.62259e-09
6.80114e-08
-6.83034e-09
6.97396e-08
-6.06476e-09
7.12507e-08
-5.33575e-09
7.25555e-08
-4.651e-09
7.36664e-08
-4.01592e-09
7.45963e-08
-3.43352e-09
7.53582e-08
-2.90444e-09
7.59645e-08
-2.42683e-09
7.64263e-08
-1.99641e-09
7.67525e-08
-1.60646e-09
7.69494e-08
-1.24781e-09
7.70197e-08
-9.08958e-10
7.6962e-08
-5.76137e-10
7.67702e-08
-2.33457e-10
7.64328e-08
1.36878e-10
7.59327e-08
5.54746e-10
7.52461e-08
1.0412e-09
7.43428e-08
1.61888e-09
7.31855e-08
2.31129e-09
7.17296e-08
3.14275e-09
6.99232e-08
4.13803e-09
6.7707e-08
5.32219e-09
6.50139e-08
6.72027e-09
6.17696e-08
8.35723e-09
5.78924e-08
1.02577e-08
5.32933e-08
1.24462e-08
4.78762e-08
1.49467e-08
4.1538e-08
1.77829e-08
3.41691e-08
2.09782e-08
2.56533e-08
2.45553e-08
1.58679e-08
2.85367e-08
4.68475e-09
3.2944e-08
-8.0293e-09
3.77976e-08
-2.24116e-08
4.31162e-08
-3.8603e-08
4.89155e-08
-5.67457e-08
5.52082e-08
-7.69825e-08
6.20021e-08
-9.94543e-08
6.92996e-08
-1.24298e-07
7.70962e-08
-1.51642e-07
8.53793e-08
-1.81608e-07
9.41271e-08
-2.143e-07
1.03307e-07
-2.49807e-07
1.12876e-07
-2.88199e-07
1.22778e-07
-3.29518e-07
1.32944e-07
-3.7378e-07
1.43292e-07
-4.20968e-07
1.53728e-07
-4.7103e-07
1.64146e-07
-5.23877e-07
1.74429e-07
-5.7938e-07
1.84447e-07
-6.37369e-07
1.94066e-07
-6.9763e-07
2.03143e-07
-7.59907e-07
2.1153e-07
-8.23905e-07
2.1908e-07
-8.89286e-07
2.25643e-07
-9.55676e-07
2.31074e-07
-1.02267e-06
2.35232e-07
-1.08982e-06
2.37984e-07
-1.15666e-06
2.39202e-07
-1.2227e-06
2.38773e-07
-1.28743e-06
2.36591e-07
-1.35032e-06
2.32563e-07
-1.41085e-06
2.26611e-07
-1.46846e-06
2.18665e-07
-1.52262e-06
2.08674e-07
-1.57278e-06
1.96598e-07
-1.61842e-06
1.82411e-07
-1.65902e-06
1.66104e-07
-1.69406e-06
1.47686e-07
-1.72306e-06
1.27182e-07
-1.74557e-06
1.0464e-07
-1.76114e-06
8.01286e-08
-1.76939e-06
5.37453e-08
-1.76999e-06
2.56131e-08
-1.76261e-06
-4.01869e-09
-1.747e-06
-3.50011e-08
-1.723e-06
-6.71089e-08
-1.69052e-06
-1.00001e-07
-1.64954e-06
-1.33318e-07
-1.60016e-06
-1.66647e-07
-1.54256e-06
-1.99496e-07
-1.47707e-06
-2.31314e-07
-1.40414e-06
-2.61527e-07
-1.32435e-06
-2.89518e-07
-1.23842e-06
-3.14641e-07
-1.14723e-06
-3.36242e-07
-1.05179e-06
-3.53685e-07
-9.53235e-07
-3.66384e-07
-8.52829e-07
-3.73835e-07
-7.51931e-07
-3.75648e-07
-6.51963e-07
-3.71583e-07
-5.54378e-07
-3.61581e-07
-4.60616e-07
-3.45785e-07
-3.72052e-07
-3.24553e-07
-2.89951e-07
-2.9846e-07
-2.15412e-07
-2.68277e-07
-1.49329e-07
-2.34942e-07
-9.23499e-08
-1.99509e-07
-4.48505e-08
-1.63098e-07
-6.92491e-09
-1.26828e-07
2.1615e-08
-9.17646e-08
4.12255e-08
-5.88712e-08
5.26091e-08
-2.89896e-08
5.66891e-08
-2.84389e-09
5.45908e-08
1.89246e-08
4.7628e-08
3.56902e-08
3.73014e-08
4.67391e-08
2.53135e-08
5.11947e-08
1.35839e-08
4.79942e-08
4.27637e-09
3.60276e-08
1.48146e-08
1.57948e-10
-6.06302e-11
7.43829e-10
-1.4716e-09
1.8302e-09
-3.53937e-09
3.44669e-09
-5.84647e-09
5.58836e-09
-8.15457e-09
8.22474e-09
-1.03213e-08
1.1308e-08
-1.22652e-08
1.47797e-08
-1.3942e-08
1.85749e-08
-1.53305e-08
2.26265e-08
-1.64246e-08
2.68668e-08
-1.72279e-08
3.12303e-08
-1.77511e-08
3.56543e-08
-1.80097e-08
4.00804e-08
-1.80232e-08
4.44552e-08
-1.78138e-08
4.87307e-08
-1.74059e-08
5.28649e-08
-1.68251e-08
5.68218e-08
-1.60979e-08
6.05716e-08
-1.52506e-08
6.40906e-08
-1.43097e-08
6.73611e-08
-1.33005e-08
7.0371e-08
-1.22471e-08
7.31134e-08
-1.11719e-08
7.55863e-08
-1.00954e-08
7.77917e-08
-9.03572e-09
7.97353e-08
-8.00845e-09
8.14261e-08
-7.02647e-09
8.28748e-08
-6.09973e-09
8.4094e-08
-5.23516e-09
8.50971e-08
-4.43654e-09
8.58971e-08
-3.70445e-09
8.65065e-08
-3.03621e-09
8.6936e-08
-2.4259e-09
8.71938e-08
-1.86432e-09
8.7285e-08
-1.33904e-09
8.72106e-08
-8.345e-10
8.69666e-08
-3.32125e-10
8.65436e-08
1.89506e-10
8.59261e-08
7.54441e-10
8.50915e-08
1.38929e-09
8.40102e-08
2.12251e-09
8.26446e-08
2.9845e-09
8.09489e-08
4.00694e-09
7.88691e-08
5.22257e-09
7.63424e-08
6.66478e-09
7.32973e-08
8.3673e-09
6.96536e-08
1.03639e-08
6.53226e-08
1.26882e-08
6.02069e-08
1.53735e-08
5.42007e-08
1.84524e-08
4.71902e-08
2.19572e-08
3.90536e-08
2.59196e-08
2.96615e-08
3.03703e-08
1.88775e-08
3.53393e-08
6.55824e-09
4.08559e-08
-7.4453e-09
4.69475e-08
-2.32872e-08
5.36395e-08
-4.11255e-08
6.09544e-08
-6.11204e-08
6.89105e-08
-8.3433e-08
7.75207e-08
-1.08222e-07
8.67915e-08
-1.35644e-07
9.67208e-08
-1.65844e-07
1.07297e-07
-1.98961e-07
1.18496e-07
-2.35117e-07
1.30283e-07
-2.74415e-07
1.42605e-07
-3.16936e-07
1.55397e-07
-3.62733e-07
1.68575e-07
-4.11828e-07
1.82039e-07
-4.64208e-07
1.95671e-07
-5.19818e-07
2.09339e-07
-5.78564e-07
2.22892e-07
-6.40304e-07
2.36169e-07
-7.04852e-07
2.48995e-07
-7.71971e-07
2.61185e-07
-8.41379e-07
2.72551e-07
-9.12746e-07
2.82898e-07
-9.857e-07
2.92033e-07
-1.05982e-06
2.99767e-07
-1.13467e-06
3.05916e-07
-1.20974e-06
3.10306e-07
-1.28453e-06
3.12774e-07
-1.3585e-06
3.13171e-07
-1.43109e-06
3.11363e-07
-1.50173e-06
3.07235e-07
-1.56986e-06
3.00685e-07
-1.63488e-06
2.91633e-07
-1.69623e-06
2.80014e-07
-1.75333e-06
2.65781e-07
-1.80564e-06
2.48908e-07
-1.85262e-06
2.29386e-07
-1.89374e-06
2.07225e-07
-1.92851e-06
1.82457e-07
-1.95646e-06
1.55136e-07
-1.97717e-06
1.25341e-07
-1.99022e-06
9.31802e-08
-1.99526e-06
5.87925e-08
-1.99201e-06
2.23556e-08
-1.98017e-06
-1.58579e-08
-1.95955e-06
-5.56192e-08
-1.93003e-06
-9.66248e-08
-1.89157e-06
-1.38468e-07
-1.84418e-06
-1.80705e-07
-1.788e-06
-2.22826e-07
-1.72326e-06
-2.64238e-07
-1.6503e-06
-3.04272e-07
-1.5696e-06
-3.42227e-07
-1.48176e-06
-3.77357e-07
-1.38753e-06
-4.08877e-07
-1.28778e-06
-4.35989e-07
-1.18354e-06
-4.57919e-07
-1.07599e-06
-4.73943e-07
-9.66387e-07
-4.83433e-07
-8.56141e-07
-4.85894e-07
-7.46716e-07
-4.81008e-07
-6.39625e-07
-4.68672e-07
-5.36382e-07
-4.49027e-07
-4.38456e-07
-4.22479e-07
-3.47216e-07
-3.897e-07
-2.63879e-07
-3.51615e-07
-1.89459e-07
-3.09362e-07
-1.24724e-07
-2.64244e-07
-7.01633e-08
-2.17659e-07
-2.59645e-08
-1.71027e-07
7.98905e-09
-1.25718e-07
3.21125e-08
-8.29946e-08
4.71013e-08
-4.39784e-08
5.39073e-08
-9.6499e-09
5.37169e-08
1.9115e-08
4.79346e-08
4.14725e-08
3.81749e-08
5.64988e-08
2.62673e-08
6.31023e-08
1.42757e-08
5.99859e-08
4.55176e-09
4.57515e-08
1.93664e-08
2.24473e-10
-2.85116e-10
9.6569e-10
-2.21284e-09
2.27084e-09
-4.84454e-09
4.15677e-09
-7.73241e-09
6.61142e-09
-1.06092e-08
9.59955e-09
-1.33094e-08
1.30692e-08
-1.57348e-08
1.69573e-08
-1.783e-08
2.11942e-08
-1.95674e-08
2.57073e-08
-2.09377e-08
3.04235e-08
-2.19442e-08
3.52715e-08
-2.25991e-08
4.01831e-08
-2.29213e-08
4.50945e-08
-2.29345e-08
4.9947e-08
-2.26664e-08
5.46881e-08
-2.2147e-08
5.92713e-08
-2.14084e-08
6.3657e-08
-2.04835e-08
6.78118e-08
-1.94055e-08
7.17094e-08
-1.82073e-08
7.53296e-08
-1.69207e-08
7.86584e-08
-1.55758e-08
8.16873e-08
-1.42008e-08
8.44131e-08
-1.28213e-08
8.68372e-08
-1.14598e-08
8.89647e-08
-1.0136e-08
9.08041e-08
-8.86582e-09
9.2366e-08
-7.66164e-09
9.36628e-08
-6.53194e-09
9.47075e-08
-5.48121e-09
9.55129e-08
-4.50988e-09
9.60909e-08
-3.61421e-09
9.64513e-08
-2.78632e-09
9.66011e-08
-2.01412e-09
9.65435e-08
-1.28144e-09
9.62771e-08
-5.6806e-10
9.57948e-08
1.50109e-10
9.50835e-08
9.00799e-10
9.41228e-08
1.71515e-09
9.28847e-08
2.62747e-09
9.13326e-08
3.67461e-09
8.94213e-08
4.89582e-09
8.70962e-08
6.33203e-09
8.42932e-08
8.02558e-09
8.09383e-08
1.00196e-08
7.69478e-08
1.23578e-08
7.22281e-08
1.50837e-08
6.66756e-08
1.82407e-08
6.01773e-08
2.18718e-08
5.26107e-08
2.6019e-08
4.38443e-08
3.07236e-08
3.37379e-08
3.6026e-08
2.21429e-08
4.19652e-08
8.90334e-09
4.85789e-08
-6.14378e-09
5.59031e-08
-2.31672e-08
6.3971e-08
-4.23403e-08
7.28126e-08
-6.38394e-08
8.24535e-08
-8.78418e-08
9.29129e-08
-1.14524e-07
1.04203e-07
-1.44057e-07
1.16325e-07
-1.76606e-07
1.2927e-07
-2.12324e-07
1.43015e-07
-2.5135e-07
1.57522e-07
-2.938e-07
1.72733e-07
-3.39769e-07
1.88574e-07
-3.8932e-07
2.04948e-07
-4.42483e-07
2.21738e-07
-4.99248e-07
2.38804e-07
-5.59563e-07
2.55986e-07
-6.23328e-07
2.73103e-07
-6.90393e-07
2.89957e-07
-7.60557e-07
3.06334e-07
-8.33568e-07
3.22005e-07
-9.09117e-07
3.36735e-07
-9.86849e-07
3.50283e-07
-1.06636e-06
3.62406e-07
-1.14719e-06
3.72867e-07
-1.22886e-06
3.81436e-07
-1.31084e-06
3.87893e-07
-1.39257e-06
3.92035e-07
-1.47347e-06
3.93678e-07
-1.55295e-06
3.92655e-07
-1.63042e-06
3.88824e-07
-1.70525e-06
3.82066e-07
-1.77684e-06
3.72281e-07
-1.8446e-06
3.59396e-07
-1.90795e-06
3.43361e-07
-1.96632e-06
3.24147e-07
-2.01916e-06
3.01747e-07
-2.06595e-06
2.76178e-07
-2.1062e-06
2.47478e-07
-2.13946e-06
2.15711e-07
-2.16528e-06
1.80963e-07
-2.18329e-06
1.43352e-07
-2.19314e-06
1.03025e-07
-2.19451e-06
6.01677e-08
-2.18716e-06
1.50067e-08
-2.17087e-06
-3.21522e-08
-2.14548e-06
-8.1008e-08
-2.11092e-06
-1.31187e-07
-2.06717e-06
-1.8222e-07
-2.01429e-06
-2.33581e-07
-1.95244e-06
-2.84675e-07
-1.88187e-06
-3.34814e-07
-1.80292e-06
-3.83223e-07
-1.71606e-06
-4.29079e-07
-1.62191e-06
-4.71512e-07
-1.52118e-06
-5.09603e-07
-1.41476e-06
-5.42417e-07
-1.30364e-06
-5.69038e-07
-1.18897e-06
-5.88604e-07
-1.07205e-06
-6.00356e-07
-9.54262e-07
-6.03684e-07
-8.37092e-07
-5.98178e-07
-7.22089e-07
-5.83675e-07
-6.1082e-07
-5.60297e-07
-5.04823e-07
-5.28476e-07
-4.05556e-07
-4.88967e-07
-3.14342e-07
-4.42829e-07
-2.32307e-07
-3.91396e-07
-1.60341e-07
-3.3621e-07
-9.90477e-08
-2.78953e-07
-4.8721e-08
-2.21354e-07
-9.33112e-09
-1.65108e-07
1.94756e-08
-1.11801e-07
3.83631e-08
-6.28658e-08
4.82843e-08
-1.95711e-08
5.0457e-08
1.69423e-08
4.6346e-08
4.55836e-08
3.76476e-08
6.51971e-08
2.62904e-08
7.44596e-08
1.44566e-08
7.18196e-08
4.65408e-09
5.55541e-08
2.40205e-08
2.89493e-10
-5.74583e-10
1.1848e-09
-3.10813e-09
2.70718e-09
-6.36692e-09
4.85871e-09
-9.88394e-09
7.61858e-09
-1.33691e-08
1.09458e-08
-1.66366e-08
1.47837e-08
-1.95727e-08
1.9065e-08
-2.21113e-08
2.37155e-08
-2.42179e-08
2.86579e-08
-2.58801e-08
3.38143e-08
-2.71006e-08
3.91083e-08
-2.78931e-08
4.4467e-08
-2.82799e-08
4.98217e-08
-2.82892e-08
5.51093e-08
-2.79541e-08
6.02732e-08
-2.73108e-08
6.5263e-08
-2.63982e-08
7.00355e-08
-2.5256e-08
7.45547e-08
-2.39247e-08
7.87913e-08
-2.2444e-08
8.2723e-08
-2.08524e-08
8.63339e-08
-1.91867e-08
8.96141e-08
-1.7481e-08
9.2559e-08
-1.57662e-08
9.5169e-08
-1.40698e-08
9.74485e-08
-1.24155e-08
9.94051e-08
-1.08225e-08
1.01049e-07
-9.30564e-09
1.02392e-07
-7.87498e-09
1.03447e-07
-6.53564e-09
1.04224e-07
-5.28772e-09
1.04736e-07
-4.1262e-09
1.04991e-07
-3.04089e-09
1.04993e-07
-2.01642e-09
1.04744e-07
-1.03234e-09
1.04239e-07
-6.3164e-11
1.03468e-07
9.21367e-10
1.02413e-07
1.95608e-09
1.01048e-07
3.08005e-09
9.93391e-08
4.33621e-09
9.7243e-08
5.77079e-09
9.47059e-08
7.43289e-09
9.16641e-08
9.37384e-09
8.80431e-08
1.16466e-08
8.37574e-08
1.43053e-08
7.87107e-08
1.74044e-08
7.27957e-08
2.09987e-08
6.58942e-08
2.51422e-08
5.78774e-08
2.98886e-08
4.86062e-08
3.52902e-08
3.79317e-08
4.13982e-08
2.56955e-08
4.82621e-08
1.17309e-08
5.59298e-08
-4.13695e-09
6.44468e-08
-2.20895e-08
7.38556e-08
-4.23136e-08
8.41951e-08
-6.49999e-08
9.54989e-08
-9.03405e-08
1.07794e-07
-1.18527e-07
1.21099e-07
-1.49746e-07
1.35422e-07
-1.8418e-07
1.50758e-07
-2.21995e-07
1.67085e-07
-2.63346e-07
1.84366e-07
-3.08365e-07
2.0254e-07
-3.57157e-07
2.21526e-07
-4.09799e-07
2.41216e-07
-4.66329e-07
2.61478e-07
-5.26742e-07
2.82151e-07
-5.90989e-07
3.03051e-07
-6.58968e-07
3.23966e-07
-7.30526e-07
3.44661e-07
-8.0545e-07
3.64882e-07
-8.83473e-07
3.84356e-07
-9.64268e-07
4.028e-07
-1.04745e-06
4.19921e-07
-1.1326e-06
4.35427e-07
-1.21922e-06
4.49027e-07
-1.30679e-06
4.6044e-07
-1.39476e-06
4.694e-07
-1.48252e-06
4.75658e-07
-1.56948e-06
4.78989e-07
-1.65499e-06
4.79194e-07
-1.73844e-06
4.76102e-07
-1.81918e-06
4.69569e-07
-1.8966e-06
4.59483e-07
-1.97008e-06
4.45761e-07
-2.03903e-06
4.28346e-07
-2.10288e-06
4.07212e-07
-2.16109e-06
3.82356e-07
-2.21315e-06
3.53803e-07
-2.25857e-06
3.21601e-07
-2.29692e-06
2.85824e-07
-2.32777e-06
2.46569e-07
-2.35077e-06
2.03963e-07
-2.36558e-06
1.58161e-07
-2.37191e-06
1.0935e-07
-2.3695e-06
5.77591e-08
-2.35815e-06
3.66048e-09
-2.3377e-06
-5.26048e-08
-2.30803e-06
-1.10675e-07
-2.26911e-06
-1.70113e-07
-2.22093e-06
-2.30395e-07
-2.16359e-06
-2.90926e-07
-2.09723e-06
-3.51028e-07
-2.02212e-06
-4.09931e-07
-1.93857e-06
-4.66766e-07
-1.84706e-06
-5.20596e-07
-1.74814e-06
-5.70433e-07