/*--------------------------------*- C++ -*----------------------------------*\
  =========                 |
  \\      /  F ield         | OpenFOAM: The Open Source CFD Toolbox
   \\    /   O peration     | Website:  https://openfoam.org
    \\  /    A nd           | Version:  12
     \\/     M anipulation  |
\*---------------------------------------------------------------------------*/
FoamFile
{
    format      ascii;
    class       volScalarField;
    location    "5";
    object      k;
}
// * * * * * * * * * * * * * * * * * * * * * * * * * * * * * * * * * * * * * //

dimensions      [0 2 -2 0 0 0 0];

internalField   nonuniform List<scalar> 
5625
(
3.25734e-13
2.20171e-12
4.88329e-12
8.03948e-12
1.15005e-11
1.51496e-11
1.8896e-11
2.26667e-11
2.64025e-11
3.0057e-11
3.35953e-11
3.6994e-11
4.024e-11
4.33304e-11
4.6271e-11
4.90752e-11
5.17624e-11
5.43565e-11
5.68846e-11
5.93754e-11
6.18582e-11
6.43616e-11
6.69133e-11
6.95392e-11
7.22631e-11
7.51067e-11
7.80897e-11
8.12294e-11
8.45411e-11
8.80383e-11
9.17321e-11
9.56322e-11
9.97462e-11
1.0408e-10
1.08636e-10
1.13416e-10
1.18418e-10
1.23638e-10
1.29066e-10
1.3469e-10
1.40489e-10
1.46439e-10
1.52506e-10
1.58647e-10
1.64806e-10
1.70918e-10
1.76901e-10
1.82656e-10
1.88069e-10
1.93005e-10
1.97314e-10
2.00823e-10
2.03326e-10
2.04557e-10
2.04633e-10
2.03195e-10
2.0006e-10
1.95117e-10
1.88313e-10
1.79663e-10
1.69254e-10
1.57256e-10
1.43924e-10
1.29577e-10
1.14592e-10
9.93673e-11
8.42974e-11
6.97426e-11
5.60048e-11
4.33137e-11
3.18273e-11
2.16519e-11
1.28891e-11
5.74228e-12
8.47373e-13
2.46144e-12
1.96061e-11
4.38137e-11
7.22512e-11
1.03419e-10
1.3627e-10
1.69993e-10
2.03931e-10
2.37552e-10
2.70439e-10
3.02277e-10
3.32856e-10
3.6206e-10
3.89861e-10
4.16313e-10
4.41536e-10
4.65706e-10
4.89037e-10
5.11774e-10
5.34175e-10
5.56504e-10
5.79019e-10
6.01968e-10
6.25585e-10
6.50085e-10
6.75662e-10
7.02493e-10
7.30735e-10
7.60525e-10
7.91982e-10
8.2521e-10
8.60294e-10
8.97301e-10
9.36283e-10
9.7727e-10
1.02027e-09
1.06527e-09
1.11223e-09
1.16107e-09
1.21166e-09
1.26383e-09
1.31737e-09
1.37195e-09
1.42721e-09
1.48264e-09
1.53764e-09
1.59149e-09
1.64329e-09
1.69202e-09
1.73648e-09
1.77529e-09
1.80692e-09
1.82951e-09
1.84058e-09
1.84124e-09
1.82824e-09
1.79995e-09
1.75539e-09
1.69409e-09
1.61618e-09
1.52245e-09
1.41444e-09
1.29443e-09
1.16533e-09
1.03048e-09
8.935e-10
7.57926e-10
6.26998e-10
5.03428e-10
3.89277e-10
2.85961e-10
1.94423e-10
1.15552e-10
5.10971e-11
6.3995e-12
5.22554e-12
4.47495e-11
1.00656e-10
1.66336e-10
2.38308e-10
3.14156e-10
3.92003e-10
4.70334e-10
5.47923e-10
6.23804e-10
6.97255e-10
7.67788e-10
8.35137e-10
8.99242e-10
9.60227e-10
1.01837e-09
1.07408e-09
1.12786e-09
1.18027e-09
1.23191e-09
1.28339e-09
1.33531e-09
1.38824e-09
1.44272e-09
1.49924e-09
1.55827e-09
1.62019e-09
1.68539e-09
1.75417e-09
1.8268e-09
1.90354e-09
1.98457e-09
2.07006e-09
2.16011e-09
2.2548e-09
2.35416e-09
2.45813e-09
2.56663e-09
2.67947e-09
2.79635e-09
2.9169e-09
3.04056e-09
3.16663e-09
3.29422e-09
3.42218e-09
3.54912e-09
3.67334e-09
3.79279e-09
3.90508e-09
4.00745e-09
4.09674e-09
4.16941e-09
4.22117e-09
4.24603e-09
4.24743e-09
4.21716e-09
4.15156e-09
4.04842e-09
3.90667e-09
3.7266e-09
3.51005e-09
3.26059e-09
2.98346e-09
2.68538e-09
2.37415e-09
2.05805e-09
1.74529e-09
1.44335e-09
1.15848e-09
8.95406e-10
6.57366e-10
4.46497e-10
2.64809e-10
1.16344e-10
1.35522e-11
8.54209e-12
7.49697e-11
1.69447e-10
2.80587e-10
4.02401e-10
5.30768e-10
6.625e-10
7.95029e-10
9.26276e-10
1.05461e-09
1.1788e-09
1.29802e-09
1.41184e-09
1.52015e-09
1.62316e-09
1.72137e-09
1.81545e-09
1.90627e-09
1.99478e-09
2.08201e-09
2.16898e-09
2.25671e-09
2.34618e-09
2.4383e-09
2.5339e-09
2.63376e-09
2.73856e-09
2.84891e-09
2.96535e-09
3.08835e-09
3.21831e-09
3.35556e-09
3.50036e-09
3.65291e-09
3.81332e-09
3.98162e-09
4.15775e-09
4.34151e-09
4.53259e-09
4.73049e-09
4.93452e-09
5.14376e-09
5.35701e-09
5.57271e-09
5.78895e-09
6.00333e-09
6.21298e-09
6.41445e-09
6.60371e-09
6.7761e-09
6.92632e-09
7.04848e-09
7.13518e-09
7.176e-09
7.17813e-09
7.12653e-09
7.01518e-09
6.84041e-09
6.60039e-09
6.29558e-09
5.92906e-09
5.50684e-09
5.0378e-09
4.53333e-09
4.00666e-09
3.47191e-09
2.94302e-09
2.43268e-09
1.95146e-09
1.50734e-09
1.10572e-09
7.5014e-10
4.43949e-10
1.94104e-10
2.20589e-11
1.23071e-11
1.09095e-10
2.47433e-10
4.1046e-10
5.89239e-10
7.77651e-10
9.70988e-10
1.16546e-09
1.35801e-09
1.54623e-09
1.72832e-09
1.90308e-09
2.06985e-09
2.22851e-09
2.37937e-09
2.52315e-09
2.66089e-09
2.79385e-09
2.92344e-09
3.05119e-09
3.17859e-09
3.30717e-09
3.43833e-09
3.57343e-09
3.7137e-09
3.86026e-09
4.01413e-09
4.17618e-09
4.34722e-09
4.52792e-09
4.71886e-09
4.92052e-09
5.13329e-09
5.35743e-09
5.59309e-09
5.84029e-09
6.09892e-09
6.36867e-09
6.64903e-09
6.93926e-09
7.23831e-09
7.54478e-09
7.85689e-09
8.17234e-09
8.4883e-09
8.80127e-09
9.10705e-09
9.40064e-09
9.67618e-09
9.92692e-09
1.01452e-08
1.03227e-08
1.04482e-08
1.05063e-08
1.05092e-08
1.04335e-08
1.02703e-08
1.00145e-08
9.66309e-09
9.2167e-09
8.67968e-09
8.06074e-09
7.37284e-09
6.63277e-09
5.86005e-09
5.07558e-09
4.3e-09
3.55206e-09
2.84735e-09
2.19755e-09
1.61049e-09
1.0912e-09
6.44531e-10
2.80796e-10
3.15914e-11
1.64481e-11
1.46494e-10
3.33079e-10
5.53364e-10
7.95106e-10
1.04993e-09
1.3114e-09
1.57437e-09
1.83467e-09
2.08905e-09
2.33505e-09
2.57106e-09
2.79619e-09
3.01028e-09
3.21379e-09
3.40771e-09
3.59346e-09
3.77276e-09
3.94756e-09
4.1199e-09
4.29186e-09
4.46547e-09
4.64266e-09
4.82526e-09
5.01493e-09
5.21318e-09
5.42137e-09
5.6407e-09
5.87223e-09
6.11686e-09
6.37536e-09
6.64836e-09
6.93634e-09
7.23963e-09
7.55841e-09
7.89265e-09
8.24213e-09
8.6064e-09
8.98471e-09
9.37597e-09
9.77872e-09
1.0191e-08
1.06104e-08
1.10338e-08
1.14574e-08
1.18764e-08
1.22854e-08
1.26776e-08
1.30454e-08
1.33798e-08
1.36708e-08
1.39073e-08
1.40742e-08
1.41508e-08
1.4155e-08
1.40537e-08
1.3835e-08
1.34918e-08
1.30199e-08
1.24197e-08
1.16967e-08
1.08625e-08
9.93438e-09
8.9351e-09
7.89127e-09
6.83146e-09
5.78392e-09
4.7743e-09
3.82388e-09
2.94846e-09
2.15852e-09
1.46064e-09
8.61244e-10
3.74211e-10
4.1901e-11
2.09183e-11
1.86787e-10
4.25447e-10
7.07681e-10
1.01765e-09
1.34449e-09
1.67986e-09
2.01711e-09
2.35085e-09
2.67687e-09
2.99204e-09
3.29427e-09
3.58243e-09
3.85635e-09
4.11662e-09
4.36457e-09
4.60203e-09
4.83126e-09
5.05478e-09
5.27523e-09
5.49528e-09
5.71756e-09
5.94455e-09
6.17858e-09
6.42178e-09
6.67609e-09
6.94321e-09
7.22469e-09
7.52184e-09
7.83579e-09
8.1675e-09
8.51771e-09
8.887e-09
9.27572e-09
9.68402e-09
1.01118e-08
1.05587e-08
1.10239e-08
1.15066e-08
1.20051e-08
1.25175e-08
1.30413e-08
1.35733e-08
1.41095e-08
1.46451e-08
1.51743e-08
1.56901e-08
1.61842e-08
1.66472e-08
1.7068e-08
1.74342e-08
1.7732e-08
1.79422e-08
1.80384e-08
1.8045e-08
1.79181e-08
1.76425e-08
1.72085e-08
1.66106e-08
1.58485e-08
1.49286e-08
1.38652e-08
1.26804e-08
1.14031e-08
1.00678e-08
8.71151e-09
7.37096e-09
6.07956e-09
4.86491e-09
3.7474e-09
2.74037e-09
1.85203e-09
1.09035e-09
4.7279e-10
5.28085e-11
2.56878e-11
2.29727e-10
5.2393e-10
8.72353e-10
1.25531e-09
1.65925e-09
2.07376e-09
2.49052e-09
2.90285e-09
3.30549e-09
3.69454e-09
4.06742e-09
4.42276e-09
4.76035e-09
5.081e-09
5.38636e-09
5.67876e-09
5.96103e-09
6.23633e-09
6.50794e-09
6.7792e-09
7.05334e-09
7.33345e-09
7.62239e-09
7.92278e-09
8.23698e-09
8.5671e-09
8.91496e-09
9.28217e-09
9.67005e-09
1.00797e-08
1.0512e-08
1.09676e-08
1.14467e-08
1.19495e-08
1.24756e-08
1.30245e-08
1.35951e-08
1.41861e-08
1.47956e-08
1.54208e-08
1.60588e-08
1.67056e-08
1.73564e-08
1.80053e-08
1.86455e-08
1.92686e-08
1.98652e-08
2.04238e-08
2.09315e-08
2.13736e-08
2.17337e-08
2.19886e-08
2.2106e-08
2.21164e-08
2.19654e-08
2.16331e-08
2.11076e-08
2.03811e-08
1.94525e-08
1.83288e-08
1.70269e-08
1.55734e-08
1.40041e-08
1.23616e-08
1.0692e-08
9.04148e-09
7.45182e-09
5.95766e-09
4.58451e-09
3.34881e-09
2.26049e-09
1.32902e-09
5.75363e-10
6.41754e-11
3.07371e-11
2.75152e-10
6.28129e-10
1.04667e-09
1.50703e-09
1.99278e-09
2.49128e-09
2.99243e-09
3.4881e-09
3.97192e-09
4.43917e-09
4.88672e-09
5.31297e-09
5.71769e-09
6.1019e-09
6.46765e-09
6.81782e-09
7.15585e-09
7.48559e-09
7.81104e-09
8.13622e-09
8.46504e-09
8.80119e-09
9.1481e-09
9.50888e-09
9.88633e-09
1.02829e-08
1.07008e-08
1.11418e-08
1.16074e-08
1.20989e-08
1.26171e-08
1.31627e-08
1.37358e-08
1.43364e-08
1.4964e-08
1.56176e-08
1.62959e-08
1.6997e-08
1.77184e-08
1.84571e-08
1.92092e-08
1.99701e-08
2.07342e-08
2.14949e-08
2.22442e-08
2.29729e-08
2.367e-08
2.43227e-08
2.49162e-08
2.54337e-08
2.5856e-08
2.61567e-08
2.62967e-08
2.63124e-08
2.61392e-08
2.57518e-08
2.51354e-08
2.42801e-08
2.31833e-08
2.18525e-08
2.03067e-08
1.85773e-08
1.67068e-08
1.47462e-08
1.27513e-08
1.0778e-08
8.87727e-09
7.09148e-09
5.45177e-09
3.97808e-09
2.68217e-09
1.57507e-09
6.81007e-10
7.58947e-11
3.60532e-11
3.2295e-10
7.37776e-10
1.23015e-09
1.77209e-09
2.3441e-09
2.93118e-09
3.52129e-09
4.10477e-09
4.67403e-09
5.22348e-09
5.74941e-09
6.24995e-09
6.72489e-09
7.1755e-09
7.60426e-09
8.01466e-09
8.41082e-09
8.79732e-09
9.17893e-09
9.5604e-09
9.94632e-09
1.0341e-08
1.07485e-08
1.11725e-08
1.1616e-08
1.2082e-08
1.25729e-08
1.30906e-08
1.3637e-08
1.42131e-08
1.482e-08
1.5458e-08
1.61273e-08
1.68275e-08
1.75578e-08
1.83169e-08
1.9103e-08
1.99137e-08
2.0746e-08
2.15962e-08
2.24599e-08
2.33318e-08
2.42058e-08
2.50744e-08
2.5929e-08
2.67594e-08
2.75536e-08
2.82975e-08
2.89746e-08
2.95659e-08
3.00496e-08
3.03963e-08
3.05598e-08
3.05819e-08
3.03883e-08
2.99474e-08
2.92417e-08
2.82587e-08
2.69943e-08
2.5456e-08
2.3665e-08
2.1657e-08
1.9481e-08
1.71965e-08
1.48689e-08
1.25644e-08
1.03436e-08
8.25721e-09
6.34249e-09
4.62347e-09
3.11401e-09
1.82673e-09
7.88984e-10
8.78817e-11
4.16274e-11
3.73049e-10
8.52696e-10
1.42249e-09
2.05e-09
2.71254e-09
3.39258e-09
4.07603e-09
4.75156e-09
5.41029e-09
6.04567e-09
6.65339e-09
7.23131e-09
7.77925e-09
8.29876e-09
8.79284e-09
9.26558e-09
9.72189e-09
1.01671e-08
1.06069e-08
1.10466e-08
1.14917e-08
1.19471e-08
1.24174e-08
1.29067e-08
1.34187e-08
1.39564e-08
1.45225e-08
1.51192e-08
1.57483e-08
1.6411e-08
1.7108e-08
1.78398e-08
1.8606e-08
1.94061e-08
2.02387e-08
2.11023e-08
2.19944e-08
2.29122e-08
2.38521e-08
2.48099e-08
2.57808e-08
2.67588e-08
2.77374e-08
2.87087e-08
2.96634e-08
3.05907e-08
3.14776e-08
3.23089e-08
3.30664e-08
3.37291e-08
3.42727e-08
3.46643e-08
3.48511e-08
3.48801e-08
3.46669e-08
3.41735e-08
3.33799e-08
3.22711e-08
3.08413e-08
2.90979e-08
2.70639e-08
2.47789e-08
2.22979e-08
1.96886e-08
1.70259e-08
1.43862e-08
1.184e-08
9.44691e-09
7.25109e-09
5.28117e-09
3.55354e-09
2.0826e-09
8.98696e-10
1.00069e-10
4.74539e-11
4.25402e-10
9.72776e-10
1.62348e-09
2.34045e-09
3.09765e-09
3.87489e-09
4.6559e-09
5.42755e-09
6.17956e-09
6.90438e-09
7.59706e-09
8.25517e-09
8.87858e-09
9.46919e-09
1.00305e-08
1.05674e-08
1.10856e-08
1.15912e-08
1.20906e-08
1.25903e-08
1.30962e-08
1.3614e-08
1.41489e-08
1.47053e-08
1.52874e-08
1.58984e-08
1.65414e-08
1.72185e-08
1.79315e-08
1.86815e-08
1.94692e-08
2.02946e-08
2.11572e-08
2.20559e-08
2.29891e-08
2.39544e-08
2.49492e-08
2.597e-08
2.70129e-08
2.8073e-08
2.91453e-08
3.02235e-08
3.13006e-08
3.23685e-08
3.34176e-08
3.44364e-08
3.54111e-08
3.63255e-08
3.71598e-08
3.78907e-08
3.84913e-08
3.89254e-08
3.91337e-08
3.91686e-08
3.89349e-08
3.83891e-08
3.75087e-08
3.62763e-08
3.46845e-08
3.27405e-08
3.04687e-08
2.79121e-08
2.51312e-08
2.22008e-08
1.92052e-08
1.62303e-08
1.33569e-08
1.06539e-08
8.17291e-09
5.94805e-09
3.99879e-09
2.34156e-09
1.00967e-09
1.12402e-10
5.35296e-11
4.79982e-10
1.09795e-09
1.83299e-09
2.64324e-09
3.49916e-09
4.37774e-09
5.26038e-09
6.13207e-09
6.98101e-09
7.79856e-09
8.57911e-09
9.31995e-09
1.0021e-08
1.06846e-08
1.13148e-08
1.19173e-08
1.24986e-08
1.30658e-08
1.36263e-08
1.41871e-08
1.47552e-08
1.53366e-08
1.59373e-08
1.65621e-08
1.72154e-08
1.79009e-08
1.86215e-08
1.93796e-08
2.01767e-08
2.1014e-08
2.18917e-08
2.28096e-08
2.37668e-08
2.47617e-08
2.57922e-08
2.68556e-08
2.79486e-08
2.90673e-08
3.02073e-08
3.13638e-08
3.25311e-08
3.3703e-08
3.48724e-08
3.60308e-08
3.71684e-08
3.82734e-08
3.93311e-08
4.0324e-08
4.12308e-08
4.2026e-08
4.26797e-08
4.31518e-08
4.33781e-08
4.34166e-08
4.31598e-08
4.25601e-08
4.15931e-08
4.02392e-08
3.84897e-08
3.63514e-08
3.38496e-08
3.10302e-08
2.79581e-08
2.47146e-08
2.13919e-08
1.80855e-08
1.48863e-08
1.18724e-08
9.10419e-09
6.62165e-09
4.4482e-09
2.60273e-09
1.12152e-09
1.24838e-10
5.98525e-11
5.36774e-10
1.22818e-09
2.05096e-09
2.95826e-09
3.91689e-09
4.90087e-09
5.88914e-09
6.86465e-09
7.814e-09
8.72738e-09
9.59847e-09
1.04243e-08
1.12049e-08
1.1943e-08
1.26434e-08
1.33126e-08
1.3958e-08
1.45878e-08
1.52101e-08
1.5833e-08
1.6464e-08
1.71099e-08
1.77772e-08
1.84711e-08
1.91962e-08
1.99565e-08
2.0755e-08
2.15938e-08
2.24746e-08
2.33981e-08
2.43643e-08
2.53727e-08
2.64217e-08
2.75095e-08
2.86333e-08
2.979e-08
3.0976e-08
3.21868e-08
3.34181e-08
3.46646e-08
3.59207e-08
3.71802e-08
3.84358e-08
3.96792e-08
4.09002e-08
4.20863e-08
4.32223e-08
4.42891e-08
4.52637e-08
4.61183e-08
4.68203e-08
4.73239e-08
4.75629e-08
4.76012e-08
4.73166e-08
4.66605e-08
4.56062e-08
4.41327e-08
4.22301e-08
3.99048e-08
3.71829e-08
3.41118e-08
3.07601e-08
2.72145e-08
2.3574e-08
1.99429e-08
1.64216e-08
1.30982e-08
1.0042e-08
7.30012e-09
4.90063e-09
2.86546e-09
1.23397e-09
1.37345e-10
6.64222e-11
5.95773e-10
1.36347e-09
2.27738e-09
3.28547e-09
4.35075e-09
5.44414e-09
6.54196e-09
7.62495e-09
8.67802e-09
9.69011e-09
1.06542e-08
1.15669e-08
1.24286e-08
1.32424e-08
1.4014e-08
1.47506e-08
1.54608e-08
1.61537e-08
1.68384e-08
1.75237e-08
1.82181e-08
1.8929e-08
1.96632e-08
2.04263e-08
2.12234e-08
2.20584e-08
2.29342e-08
2.3853e-08
2.48162e-08
2.58242e-08
2.68767e-08
2.79726e-08
2.91101e-08
3.02867e-08
3.14994e-08
3.27444e-08
3.40179e-08
3.53153e-08
3.66319e-08
3.79627e-08
3.9302e-08
4.06437e-08
4.19806e-08
4.33043e-08
4.46042e-08
4.58672e-08
4.7077e-08
4.82131e-08
4.92505e-08
5.01589e-08
5.0903e-08
5.14301e-08
5.16751e-08
5.17084e-08
5.13895e-08
5.06732e-08
4.95302e-08
4.79385e-08
4.58875e-08
4.33831e-08
4.04515e-08
3.71414e-08
3.35238e-08
2.96891e-08
2.57424e-08
2.17955e-08
1.7958e-08
1.4328e-08
1.09843e-08
7.98217e-09
5.35529e-09
3.12929e-09
1.34681e-09
1.49901e-10
7.32389e-11
6.56983e-10
1.5038e-09
2.51223e-09
3.62487e-09
4.80074e-09
6.00749e-09
7.21867e-09
8.4127e-09
9.57264e-09
1.06861e-08
1.17453e-08
1.27467e-08
1.36907e-08
1.45811e-08
1.54243e-08
1.62288e-08
1.7004e-08
1.77601e-08
1.85073e-08
1.92553e-08
2.00131e-08
2.07889e-08
2.15899e-08
2.24222e-08
2.32908e-08
2.41996e-08
2.51518e-08
2.61493e-08
2.71931e-08
2.82834e-08
2.94194e-08
3.05996e-08
3.18218e-08
3.3083e-08
3.43798e-08
3.57083e-08
3.70642e-08
3.8443e-08
3.984e-08
4.12502e-08
4.26683e-08
4.4088e-08
4.55025e-08
4.69029e-08
4.82783e-08
4.96147e-08
5.08945e-08
5.20954e-08
5.31902e-08
5.41463e-08
5.49256e-08
5.54672e-08
5.57105e-08
5.57328e-08
5.53721e-08
5.45906e-08
5.33569e-08
5.16477e-08
4.94524e-08
4.67764e-08
4.36458e-08
4.01097e-08
3.62404e-08
3.2131e-08
2.78909e-08
2.36385e-08
1.94921e-08
1.55595e-08
1.19298e-08
8.66701e-09
5.8117e-09
3.39395e-09
1.45993e-09
1.62491e-10
8.03031e-11
7.2041e-10
1.64921e-09
2.75555e-09
3.97646e-09
5.26684e-09
6.59088e-09
7.91918e-09
9.22767e-09
1.04974e-08
1.17147e-08
1.28709e-08
1.39622e-08
1.49894e-08
1.59569e-08
1.68721e-08
1.77444e-08
1.85845e-08
1.94037e-08
2.02132e-08
2.10235e-08
2.18446e-08
2.2685e-08
2.35523e-08
2.4453e-08
2.53923e-08
2.6374e-08
2.74012e-08
2.84755e-08
2.95977e-08
3.07677e-08
3.19843e-08
3.32454e-08
3.45485e-08
3.58903e-08
3.72669e-08
3.86744e-08
4.01084e-08
4.15644e-08
4.3038e-08
4.45242e-08
4.60179e-08
4.75132e-08
4.90029e-08
5.0478e-08
5.19267e-08
5.33339e-08
5.46804e-08
5.59419e-08
5.70887e-08
5.80859e-08
5.88932e-08
5.94402e-08
5.96748e-08
5.9678e-08
5.92678e-08
5.84155e-08
5.7088e-08
5.52613e-08
5.29248e-08
5.00836e-08
4.67635e-08
4.30134e-08
3.89061e-08
3.45361e-08
3.00159e-08
2.54693e-08
2.1022e-08
1.67917e-08
1.28777e-08
9.35434e-09
6.26972e-09
3.65933e-09
1.57325e-09
1.75107e-10
8.76161e-11
7.86064e-10
1.79971e-09
3.00737e-09
4.3403e-09
5.74908e-09
7.19429e-09
8.64338e-09
1.00696e-08
1.1452e-08
1.27753e-08
1.403e-08
1.52123e-08
1.63233e-08
1.7368e-08
1.83549e-08
1.92947e-08
2.01993e-08
2.10811e-08
2.19523e-08
2.28245e-08
2.37081e-08
2.46124e-08
2.55453e-08
2.65136e-08
2.75224e-08
2.85756e-08
2.96761e-08
3.08253e-08
3.20237e-08
3.32707e-08
3.45648e-08
3.59036e-08
3.72841e-08
3.87028e-08
4.01558e-08
4.16388e-08
4.31477e-08
4.46781e-08
4.62258e-08
4.77862e-08
4.93543e-08
5.09243e-08
5.24886e-08
5.40377e-08
5.55587e-08
5.70352e-08
5.84458e-08
5.97641e-08
6.0958e-08
6.19899e-08
6.28174e-08
6.33608e-08
6.35839e-08
6.35559e-08
6.30892e-08
6.216e-08
6.07351e-08
5.87894e-08
5.6313e-08
5.3311e-08
4.98088e-08
4.5855e-08
4.15218e-08
3.69043e-08
3.21167e-08
2.72868e-08
2.2547e-08
1.8024e-08
1.38281e-08
1.00442e-08
6.72944e-09
3.92546e-09
1.68678e-09
1.8775e-10
9.51789e-11
8.53954e-10
1.95532e-09
3.26772e-09
4.71642e-09
6.24749e-09
7.81771e-09
9.39116e-09
1.09383e-08
1.24358e-08
1.3867e-08
1.52216e-08
1.64956e-08
1.76904e-08
1.88121e-08
1.98703e-08
2.08769e-08
2.18452e-08
2.27888e-08
2.37209e-08
2.4654e-08
2.55994e-08
2.65667e-08
2.75643e-08
2.85989e-08
2.9676e-08
3.07992e-08
3.19713e-08
3.31934e-08
3.44657e-08
3.57872e-08
3.71561e-08
3.85698e-08
4.00249e-08
4.15178e-08
4.30444e-08
4.46008e-08
4.61828e-08
4.77865e-08
4.94077e-08
5.10424e-08
5.26854e-08
5.43309e-08
5.59709e-08
5.75948e-08
5.91886e-08
6.07338e-08
6.22069e-08
6.35791e-08
6.48158e-08
6.58769e-08
6.67176e-08
6.72497e-08
6.74579e-08
6.73878e-08
6.68577e-08
6.58455e-08
6.43185e-08
6.22508e-08
5.96338e-08
5.64727e-08
5.27929e-08
4.86422e-08
4.40925e-08
3.92383e-08
3.41946e-08
2.90916e-08
2.40674e-08
1.9257e-08
1.47815e-08
1.07372e-08
7.19116e-09
4.19252e-09
1.80056e-09
2.00423e-10
1.02993e-10
9.24092e-10
2.11606e-09
3.53664e-09
5.10486e-09
6.76209e-09
8.46109e-09
1.01624e-08
1.18334e-08
1.34484e-08
1.49892e-08
1.64446e-08
1.78104e-08
1.90889e-08
2.0287e-08
2.14156e-08
2.2488e-08
2.35189e-08
2.45232e-08
2.55152e-08
2.65083e-08
2.75144e-08
2.85437e-08
2.96048e-08
3.07047e-08
3.18486e-08
3.30404e-08
3.42824e-08
3.55755e-08
3.69197e-08
3.83137e-08
3.97554e-08
4.12418e-08
4.27695e-08
4.43349e-08
4.59341e-08
4.7563e-08
4.92181e-08
5.08956e-08
5.25917e-08
5.43025e-08
5.60229e-08
5.77466e-08
5.94648e-08
6.11659e-08
6.2834e-08
6.44487e-08
6.5984e-08
6.74084e-08
6.86847e-08
6.97706e-08
7.06193e-08
7.11339e-08
7.13233e-08
7.12027e-08
7.06026e-08
6.9501e-08
6.78661e-08
6.5672e-08
6.2911e-08
5.95892e-08
5.57322e-08
5.13878e-08
4.6627e-08
4.15438e-08
3.62528e-08
3.08857e-08
2.55843e-08
2.04914e-08
1.57385e-08
1.14338e-08
7.65536e-09
4.46074e-09
1.91469e-09
2.13137e-10
1.11059e-10
9.96487e-10
2.28197e-09
3.81415e-09
5.50563e-09
7.29287e-09
9.12437e-09
1.09569e-08
1.27545e-08
1.44892e-08
1.61408e-08
1.76975e-08
1.91553e-08
2.05168e-08
2.17903e-08
2.29881e-08
2.4125e-08
2.52173e-08
2.6281e-08
2.73317e-08
2.83836e-08
2.94493e-08
3.05395e-08
3.1663e-08
3.2827e-08
3.40367e-08
3.52957e-08
3.66062e-08
3.79689e-08
3.93835e-08
4.08485e-08
4.23615e-08
4.39196e-08
4.55192e-08
4.71568e-08
4.88287e-08
5.05313e-08
5.22611e-08
5.40148e-08
5.5789e-08
5.75797e-08
5.93816e-08
6.11878e-08
6.29886e-08
6.47706e-08
6.65162e-08
6.82023e-08
6.98007e-08
7.1277e-08
7.25916e-08
7.36997e-08
7.45526e-08
7.50453e-08
7.52129e-08
7.50353e-08
7.43592e-08
7.3162e-08
7.14128e-08
6.90857e-08
6.61744e-08
6.26865e-08
5.86484e-08
5.41084e-08
4.91375e-08
4.38289e-08
3.82964e-08
3.26717e-08
2.70995e-08
2.17286e-08
1.67002e-08
1.21349e-08
8.12263e-09
4.73045e-09
2.02928e-09
2.25904e-10
1.19377e-10
1.07114e-09
2.45304e-09
4.10027e-09
5.91876e-09
7.83981e-09
9.80744e-09
1.17744e-08
1.37012e-08
1.55573e-08
1.73208e-08
1.89791e-08
2.05282e-08
2.19718e-08
2.33194e-08
2.4585e-08
2.57849e-08
2.6937e-08
2.80587e-08
2.91668e-08
3.02764e-08
3.14006e-08
3.25507e-08
3.37357e-08
3.49628e-08
3.62372e-08
3.75625e-08
3.89405e-08
4.0372e-08
4.18563e-08
4.33916e-08
4.49757e-08
4.66055e-08
4.82776e-08
4.99886e-08
5.17351e-08
5.35139e-08
5.5322e-08
5.71563e-08
5.90136e-08
6.08897e-08
6.2779e-08
6.46737e-08
6.65626e-08
6.84308e-08
7.02582e-08
7.20194e-08
7.36833e-08
7.5213e-08
7.65662e-08
7.76958e-08
7.85512e-08
7.90199e-08
7.91636e-08
7.89246e-08
7.81676e-08
7.68688e-08
7.49978e-08
7.25294e-08
6.94588e-08
6.57953e-08
6.15673e-08
5.68248e-08
5.16394e-08
4.61041e-08
4.03319e-08
3.44537e-08
2.86152e-08
2.29699e-08
1.76677e-08
1.28414e-08
8.59362e-09
5.00201e-09
2.14446e-09
2.38738e-10
1.27949e-10
1.14807e-09
2.62929e-09
4.39501e-09
6.34422e-09
8.40284e-09
1.05102e-08
1.26145e-08
1.4673e-08
1.6652e-08
1.8528e-08
2.02877e-08
2.19274e-08
2.34518e-08
2.48719e-08
2.62034e-08
2.74646e-08
2.86748e-08
2.98532e-08
3.10174e-08
3.21835e-08
3.33653e-08
3.45744e-08
3.58202e-08
3.71098e-08
3.84484e-08
3.98395e-08
4.12848e-08
4.27849e-08
4.43388e-08
4.5945e-08
4.7601e-08
4.93039e-08
5.10505e-08
5.28376e-08
5.46624e-08
5.65219e-08
5.84135e-08
6.03345e-08
6.22816e-08
6.42503e-08
6.62344e-08
6.82249e-08
7.02091e-08
7.21698e-08
7.40848e-08
7.5926e-08
7.76596e-08
7.9246e-08
8.06403e-08
8.17931e-08
8.26507e-08
8.30958e-08
8.32151e-08
8.29122e-08
8.20706e-08
8.06646e-08
7.86639e-08
7.60444e-08
7.28024e-08
6.895e-08
6.45186e-08
5.95608e-08
5.41507e-08
4.8382e-08
4.23672e-08
3.62361e-08
3.01339e-08
2.42168e-08
1.86421e-08
1.35542e-08
9.06897e-09
5.2758e-09
2.26038e-09
2.51654e-10
1.36774e-10
1.22726e-09
2.81071e-09
4.69835e-09
6.78197e-09
8.98187e-09
1.12323e-08
1.3477e-08
1.56692e-08
1.77723e-08
1.9761e-08
2.16215e-08
2.33506e-08
2.49541e-08
2.64449e-08
2.78404e-08
2.9161e-08
3.04278e-08
3.16612e-08
3.28803e-08
3.4102e-08
3.53407e-08
3.66084e-08
3.79146e-08
3.92666e-08
4.06694e-08
4.21266e-08
4.36396e-08
4.5209e-08
4.68339e-08
4.85125e-08
5.02425e-08
5.20213e-08
5.38459e-08
5.57136e-08
5.76219e-08
5.95683e-08
6.15504e-08
6.35658e-08
6.56108e-08
6.76807e-08
6.97683e-08
7.18632e-08
7.39509e-08
7.60119e-08
7.80216e-08
7.99492e-08
8.17581e-08
8.34062e-08
8.48464e-08
8.60266e-08
8.68871e-08
8.73118e-08
8.74077e-08
8.70406e-08
8.6112e-08
8.45938e-08
8.24554e-08
7.96734e-08
7.62458e-08
7.21876e-08
6.75343e-08
6.2343e-08
5.66918e-08
5.0677e-08
4.44118e-08
3.80244e-08
3.16584e-08
2.54708e-08
1.96244e-08
1.4274e-08
9.54928e-09
5.55216e-09
2.37716e-09
2.64667e-10
1.45853e-10
1.30872e-09
2.99731e-09
5.01027e-09
7.23196e-09
9.57676e-09
1.19736e-08
1.43613e-08
1.6689e-08
1.8917e-08
2.10184e-08
2.29788e-08
2.47957e-08
2.64764e-08
2.80356e-08
2.94931e-08
3.08711e-08
3.21927e-08
3.348e-08
3.4753e-08
3.60296e-08
3.73249e-08
3.86511e-08
4.00179e-08
4.14327e-08
4.29006e-08
4.44248e-08
4.6007e-08
4.76475e-08
4.93456e-08
5.10995e-08
5.29071e-08
5.47661e-08
5.66739e-08
5.86282e-08
6.06268e-08
6.26677e-08
6.47489e-08
6.68676e-08
6.90202e-08
7.12011e-08
7.3402e-08
7.56108e-08
7.78112e-08
7.99814e-08
8.20939e-08
8.41155e-08
8.6007e-08
8.77237e-08
8.92161e-08
9.04306e-08
9.12961e-08
9.17063e-08
9.17808e-08
9.13512e-08
9.03347e-08
8.87002e-08
8.64163e-08
8.34598e-08
7.98304e-08
7.55466e-08
7.06488e-08
6.52003e-08
5.92855e-08
5.30058e-08
4.64762e-08
3.98245e-08
3.31918e-08
2.67334e-08
2.06154e-08
1.50016e-08
1.0035e-08
5.83139e-09
2.49493e-09
2.7779e-10
1.55184e-10
1.39243e-09
3.18904e-09
5.33072e-09
7.69409e-09
1.01873e-08
1.27336e-08
1.52668e-08
1.77315e-08
2.0085e-08
2.22985e-08
2.43575e-08
2.62603e-08
2.80159e-08
2.96412e-08
3.11585e-08
3.25921e-08
3.3967e-08
3.53069e-08
3.66332e-08
3.79645e-08
3.93165e-08
4.07017e-08
4.213e-08
4.36088e-08
4.51433e-08
4.67366e-08
4.83905e-08
5.01051e-08
5.18798e-08
5.37132e-08
5.56035e-08
5.75484e-08
5.9546e-08
6.15943e-08
6.36916e-08
6.58363e-08
6.80262e-08
7.02586e-08
7.25294e-08
7.4832e-08
7.71567e-08
7.94899e-08
8.1813e-08
8.41018e-08
8.63264e-08
8.84508e-08
9.04333e-08
9.22267e-08
9.37793e-08
9.50354e-08
9.59128e-08
9.6315e-08
9.63713e-08
9.58828e-08
9.47789e-08
9.30253e-08
9.05887e-08
8.74458e-08
8.35975e-08
7.90659e-08
7.38974e-08
6.81633e-08
6.19566e-08
5.53865e-08
4.85728e-08
4.16437e-08
3.47374e-08
2.80059e-08
2.16156e-08
1.57372e-08
1.05266e-08
6.11374e-09
2.61378e-09
2.91032e-10
1.64765e-10
1.47839e-09
3.3859e-09
5.65964e-09
8.16822e-09
1.08133e-08
1.35121e-08
1.61929e-08
1.87957e-08
2.12748e-08
2.35995e-08
2.57554e-08
2.77418e-08
2.95698e-08
3.12589e-08
3.28338e-08
3.43212e-08
3.57481e-08
3.71399e-08
3.85192e-08
3.99054e-08
4.13147e-08
4.27601e-08
4.42516e-08
4.57966e-08
4.74003e-08
4.90658e-08
5.07948e-08
5.25877e-08
5.44441e-08
5.63626e-08
5.83418e-08
6.03799e-08
6.24753e-08
6.46266e-08
6.68322e-08
6.90908e-08
7.14003e-08
7.37576e-08
7.61579e-08
7.85935e-08
8.10533e-08
8.35217e-08
8.5978e-08
8.83956e-08
9.0742e-08
9.29787e-08
9.50615e-08
9.69408e-08
9.85626e-08
9.98689e-08
1.00768e-07
1.0117e-07
1.01212e-07
1.0067e-07
9.94807e-08
9.76065e-08
9.50114e-08
9.16708e-08
8.75865e-08
8.27839e-08
7.7316e-08
7.12637e-08
6.47314e-08
5.78393e-08
5.07151e-08
4.34899e-08
3.62991e-08
2.92898e-08
2.26255e-08
1.64812e-08
1.10242e-08
6.39935e-09
2.73376e-09
3.044e-10
1.74597e-10
1.56658e-09
3.58782e-09
5.99694e-09
8.65419e-09
1.14543e-08
1.43084e-08
1.71387e-08
1.98805e-08
2.24848e-08
2.49195e-08
2.71702e-08
2.92377e-08
3.11356e-08
3.28859e-08
3.45162e-08
3.60558e-08
3.75338e-08
3.89771e-08
4.04096e-08
4.18517e-08
4.33199e-08
4.48275e-08
4.63847e-08
4.79989e-08
4.96753e-08
5.14172e-08
5.32263e-08
5.51031e-08
5.70472e-08
5.90578e-08
6.11337e-08
6.32735e-08
6.54761e-08
6.77403e-08
7.00651e-08
7.24489e-08
7.48896e-08
7.73836e-08
7.99251e-08
8.25054e-08
8.51117e-08
8.77264e-08
9.03265e-08
9.28832e-08
9.53615e-08
9.77204e-08
9.99133e-08
1.01888e-07
1.03589e-07
1.04955e-07
1.05887e-07
1.06297e-07
1.0633e-07
1.05741e-07
1.0447e-07
1.02476e-07
9.97181e-08
9.61701e-08
9.18335e-08
8.67367e-08
8.09395e-08
7.45337e-08
6.76375e-08
6.03859e-08
5.29185e-08
4.53722e-08
3.78814e-08
3.05864e-08
2.36451e-08
1.72333e-08
1.15278e-08
6.68825e-09
2.85488e-09
3.17893e-10
1.84675e-10
1.65698e-09
3.79477e-09
6.34251e-09
9.1518e-09
1.21102e-08
1.51219e-08
1.81033e-08
2.09846e-08
2.37133e-08
2.62563e-08
2.85994e-08
3.07453e-08
3.27102e-08
3.45193e-08
3.62031e-08
3.77936e-08
3.93221e-08
4.08172e-08
4.23039e-08
4.38034e-08
4.53327e-08
4.69055e-08
4.85319e-08
5.02196e-08
5.19736e-08
5.37973e-08
5.56925e-08
5.76599e-08
5.96994e-08
6.18104e-08
6.3992e-08
6.62434e-08
6.85636e-08
7.09518e-08
7.34072e-08
7.59281e-08
7.85121e-08
8.11549e-08
8.38498e-08
8.65864e-08
8.93505e-08
9.21224e-08
9.4877e-08
9.7583e-08
1.00203e-07
1.02694e-07
1.05007e-07
1.07087e-07
1.08876e-07
1.10312e-07
1.11289e-07
1.11716e-07
1.11746e-07
1.11118e-07
1.09771e-07
1.07659e-07
1.04736e-07
1.00974e-07
9.63705e-08
9.09576e-08
8.48013e-08
7.80049e-08
7.07032e-08
6.30493e-08
5.51996e-08
4.73012e-08
3.94893e-08
3.18974e-08
2.46746e-08
1.79932e-08
1.20372e-08
6.98038e-09
2.97712e-09
3.31509e-10
1.94998e-10
1.74956e-09
4.00667e-09
6.69623e-09
9.66082e-09
1.27804e-08
1.59521e-08
1.90858e-08
2.21065e-08
2.49586e-08
2.76077e-08
3.00404e-08
3.22618e-08
3.4291e-08
3.61565e-08
3.78921e-08
3.95327e-08
4.11116e-08
4.26593e-08
4.42019e-08
4.57613e-08
4.7355e-08
4.89969e-08
5.06973e-08
5.24636e-08
5.43012e-08
5.62135e-08
5.82022e-08
6.02683e-08
6.2412e-08
6.46329e-08
6.69305e-08
6.93042e-08
7.17535e-08
7.42777e-08
7.68758e-08
7.95463e-08
8.22859e-08
8.50896e-08
8.79495e-08
9.0854e-08
9.37868e-08
9.67264e-08
9.96454e-08
1.0251e-07
1.05282e-07
1.07914e-07
1.10356e-07
1.12551e-07
1.14438e-07
1.15952e-07
1.16986e-07
1.17441e-07
1.17473e-07
1.16814e-07
1.15399e-07
1.13173e-07
1.10086e-07
1.06104e-07
1.01223e-07
9.54751e-08
8.89313e-08
8.17076e-08
7.39565e-08
6.58535e-08
5.75767e-08
4.92886e-08
4.11289e-08
3.32249e-08
2.57138e-08
1.87604e-08
1.25519e-08
7.27551e-09
3.10037e-09
3.45237e-10
2.05562e-10
1.84429e-09
4.22345e-09
7.05794e-09
1.01809e-08
1.34644e-08
1.67981e-08
2.00849e-08
2.32447e-08
2.62186e-08
2.89713e-08
3.14907e-08
3.37844e-08
3.58751e-08
3.77949e-08
3.95811e-08
4.12713e-08
4.29014e-08
4.45032e-08
4.61043e-08
4.7727e-08
4.93895e-08
5.11055e-08
5.28856e-08
5.47372e-08
5.66657e-08
5.86744e-08
6.07653e-08
6.29396e-08
6.51974e-08
6.75389e-08
6.99638e-08
7.24716e-08
7.50621e-08
7.77347e-08
8.04881e-08
8.33205e-08
8.6228e-08
8.92045e-08
9.22409e-08
9.5324e-08
9.84357e-08
1.01552e-07
1.04645e-07
1.07677e-07
1.10608e-07
1.1339e-07
1.15969e-07
1.18287e-07
1.20281e-07
1.21882e-07
1.22985e-07
1.23476e-07
1.23516e-07
1.22837e-07
1.2136e-07
1.19027e-07
1.1578e-07
1.11577e-07
1.06411e-07
1.00312e-07
9.33557e-08
8.56692e-08
7.74245e-08
6.88228e-08
6.0069e-08
5.13473e-08
4.28071e-08
3.45711e-08
2.67626e-08
1.9534e-08
1.30713e-08
7.57331e-09
3.22451e-09
3.59062e-10
2.16363e-10
1.94114e-09
4.44501e-09
7.42746e-09
1.07119e-08
1.41618e-08
1.7659e-08
2.10994e-08
2.43974e-08
2.74911e-08
3.03446e-08
3.29475e-08
3.53104e-08
3.74598e-08
3.94322e-08
4.1268e-08
4.30081e-08
4.46907e-08
4.63493e-08
4.80123e-08
4.97029e-08
5.14394e-08
5.32358e-08
5.51026e-08
5.70474e-08
5.90752e-08
6.11897e-08
6.33928e-08
6.56857e-08
6.8069e-08
7.05428e-08
7.3107e-08
7.57616e-08
7.8506e-08
8.13395e-08
8.4261e-08
8.72677e-08
9.03549e-08
9.35155e-08
9.67389e-08
1.0001e-07
1.0331e-07
1.06612e-07
1.09886e-07
1.13093e-07
1.1619e-07
1.19128e-07
1.21851e-07
1.24299e-07
1.26406e-07
1.28102e-07
1.29283e-07
1.2982e-07
1.29874e-07
1.29183e-07
1.27654e-07
1.25221e-07
1.21819e-07
1.17399e-07
1.11945e-07
1.05484e-07
9.80948e-08
8.99135e-08
8.11325e-08
7.19809e-08
6.26963e-08
5.34916e-08
4.4532e-08
3.5939e-08
2.7821e-08
2.0313e-08
1.35946e-08
7.87329e-09
3.34934e-09
3.72961e-10
2.27396e-10
2.04006e-09
4.67126e-09
7.80459e-09
1.12532e-08
1.48719e-08
1.8534e-08
2.2128e-08
2.55629e-08
2.87739e-08
3.1725e-08
3.44078e-08
3.68368e-08
3.90426e-08
4.10659e-08
4.29512e-08
4.47423e-08
4.64796e-08
4.81983e-08
4.99279e-08
5.1692e-08
5.35091e-08
5.53934e-08
5.73553e-08
5.94022e-08
6.15393e-08
6.377e-08
6.60963e-08
6.85197e-08
7.10406e-08
7.36593e-08
7.63759e-08
7.91901e-08
8.21014e-08
8.51089e-08
8.82108e-08
9.14037e-08
9.46819e-08
9.80369e-08
1.01457e-07
1.04925e-07
1.0842e-07
1.11915e-07
1.15376e-07
1.18763e-07
1.22032e-07
1.25131e-07
1.28002e-07
1.30584e-07
1.32809e-07
1.34605e-07
1.35872e-07
1.36462e-07
1.36536e-07
1.35841e-07
1.34269e-07
1.31746e-07
1.28198e-07
1.23566e-07
1.17827e-07
1.11e-07
1.03162e-07
9.44593e-08
8.51022e-08
7.53504e-08
6.54789e-08
5.57365e-08
4.63127e-08