/*--------------------------------*- C++ -*----------------------------------*\
  =========                 |
  \\      /  F ield         | OpenFOAM: The Open Source CFD Toolbox
   \\    /   O peration     | Website:  https://openfoam.org
    \\  /    A nd           | Version:  12
     \\/     M anipulation  |
\*---------------------------------------------------------------------------*/
FoamFile
{
    format      ascii;
    class       volScalarField;
    location    "5";
    object      p;
}
// * * * * * * * * * * * * * * * * * * * * * * * * * * * * * * * * * * * * * //

dimensions      [0 2 -2 0 0 0 0];

internalField   nonuniform List<scalar> 
5625
(
5.40035e-09
-8.7618e-06
-8.74301e-05
-0.00023742
-0.000440266
-0.000679869
-0.000943075
-0.00122028
-0.00150506
-0.00179367
-0.00208444
-0.00237721
-0.00267281
-0.00297275
-0.00327879
-0.00359279
-0.00391649
-0.00425137
-0.00459861
-0.00495899
-0.00533286
-0.00572012
-0.00612014
-0.00653174
-0.00695313
-0.00738181
-0.00781451
-0.00824704
-0.00867415
-0.00908942
-0.00948506
-0.00985169
-0.0101782
-0.0104516
-0.0106566
-0.0107757
-0.010789
-0.010674
-0.0104056
-0.00995621
-0.009296
-0.00839322
-0.0072147
-0.00572669
-0.00389588
-0.00169065
0.000917305
0.0039511
0.00742657
0.0113501
0.0157169
0.0205007
0.0256654
0.0311682
0.0369232
0.0428374
0.0488004
0.0546858
0.0603572
0.0656743
0.0705011
0.0747145
0.078214
0.0809296
0.0828288
0.0839213
0.0842598
0.0839371
0.0830817
0.0818492
0.0804158
0.0789701
0.077711
0.0768522
0.0765111
-1.20033e-05
-2.09976e-05
-9.51485e-05
-0.0002354
-0.000425303
-0.000650923
-0.0009005
-0.00116518
-0.00143884
-0.00171778
-0.00200017
-0.00228556
-0.00257453
-0.00286823
-0.00316815
-0.00347585
-0.00379282
-0.00412034
-0.0044594
-0.0048106
-0.00517419
-0.00554992
-0.00593709
-0.00633442
-0.00674007
-0.0071515
-0.00756539
-0.00797756
-0.00838279
-0.00877472
-0.00914564
-0.00948637
-0.00978601
-0.0100318
-0.0102089
-0.0103003
-0.0102866
-0.010146
-0.00985414
-0.00938442
-0.00870799
-0.00779423
-0.00661118
-0.00512638
-0.00330782
-0.00112519
0.00144858
0.0044355
0.00785051
0.0116994
0.0159774
0.0206564
0.0257055
0.0310834
0.0367
0.0424709
0.0482888
0.0540316
0.0595681
0.0647636
0.0694878
0.0736231
0.0770735
0.0797727
0.0816906
0.0828371
0.0832632
0.0830584
0.0823453
0.0812722
0.0800051
0.0787205
0.0776001
0.0768381
0.0765377
-1.33819e-05
-2.29164e-05
-9.31761e-05
-0.000224364
-0.000401565
-0.000613023
-0.000848383
-0.00109967
-0.00136119
-0.00162932
-0.00190212
-0.00217894
-0.00246007
-0.00274633
-0.00303892
-0.0033391
-0.0036481
-0.00396695
-0.00429645
-0.00463703
-0.00498878
-0.00535134
-0.0057239
-0.00610511
-0.00649305
-0.00688516
-0.00727811
-0.00766772
-0.00804886
-0.00841525
-0.00875935
-0.00907218
-0.00934315
-0.00955985
-0.00970793
-0.00977091
-0.00973008
-0.00956439
-0.00925045
-0.00876262
-0.00807318
-0.00715271
-0.00597052
-0.00449546
-0.00269678
-0.000545433
0.00198455
0.00491426
0.00825798
0.0120211
0.016199
0.0207628
0.0256903
0.0309325
0.0364045
0.042028
0.0476984
0.0532983
0.0587014
0.0637783
0.0684039
0.0724654
0.0758709
0.0785574
0.0804965
0.0816983
0.0822125
0.0821249
0.0815526
0.0806365
0.0795326
0.0784039
0.0774137
0.076734
0.0764504
4.05693e-06
-7.46675e-06
-7.5994e-05
-0.000201293
-0.000369312
-0.000569871
-0.000793671
-0.00103361
-0.00128443
-0.00154269
-0.00180646
-0.002075
-0.00234836
-0.00262717
-0.00291237
-0.00320499
-0.00350603
-0.00381634
-0.00413651
-0.00446685
-0.00480731
-0.00515741
-0.00551628
-0.0058825
-0.00625412
-0.00662856
-0.00700253
-0.00737191
-0.00773165
-0.00807562
-0.00839649
-0.00868553
-0.00893248
-0.00912535
-0.00925028
-0.00929138
-0.00923059
-0.00904762
-0.00871995
-0.00822285
-0.00752959
-0.00661173
-0.00543964
-0.00398313
-0.0022124
-9.9173e-05
0.0023819
0.00525154
0.00852391
0.0122046
0.0162889
0.0207521
0.0255737
0.0306981
0.0360532
0.0415596
0.047116
0.0526086
0.0579146
0.062908
0.0674667
0.0714809
0.0748609
0.077545
0.0795056
0.0807529
0.0813349
0.0813354
0.0808675
0.0800663
0.0790798
0.07806
0.0771554
0.0765176
0.0762173
4.07074e-05
2.46016e-05
-4.48218e-05
-0.000167059
-0.000328893
-0.000521155
-0.000735663
-0.00096597
-0.00120731
-0.00145651
-0.00171174
-0.0019722
-0.00223786
-0.00250918
-0.00278692
-0.00307191
-0.00336498
-0.0036668
-0.00397781
-0.0042982
-0.00462778
-0.00496601
-0.00531194
-0.00566413
-0.00602061
-0.00637883
-0.00673555
-0.00708674
-0.00742749
-0.00775188
-0.0080528
-0.00832186
-0.00854915
-0.00872316
-0.00883054
-0.00885601
-0.00878221
-0.00858958
-0.00825641
-0.00775882
-0.00707093
-0.00616517
-0.00501269
-0.00358402
-0.00184993
0.000217461
0.00264334
0.00544855
0.00864769
0.0122471
0.016243
0.0206149
0.0253393
0.0303646
0.0356239
0.0410378
0.0465081
0.0519234
0.0571633
0.0621037
0.066624
0.0706151
0.0739881
0.0766814
0.0786671
0.0799545
0.0805907
0.0806576
0.0802657
0.0795457
0.0786396
0.0776904
0.0768345
0.0762046
0.0758601
9.55919e-05
7.18715e-05
-1.17661e-06
-0.000122771
-0.000280739
-0.000466806
-0.000673709
-0.000895683
-0.00112847
-0.00136921
-0.00161622
-0.00186874
-0.0021267
-0.00239046
-0.00266061
-0.00293788
-0.0032229
-0.00351621
-0.00381813
-0.00412871
-0.00444769
-0.00477445
-0.00510799
-0.00544687
-0.00578912
-0.00613225
-0.00647311
-0.00680781
-0.00713162
-0.00743885
-0.0077227
-0.00797514
-0.0081867
-0.00834636
-0.00844136
-0.00845706
-0.00837678
-0.00818176
-0.00785103
-0.00736152
-0.00668812
-0.00580395
-0.00468078
-0.00328962
-0.00160151
0.000411397
0.00277451
0.00550922
0.00863102
0.0121475
0.0160563
0.0203405
0.0249753
0.0299136
0.0350916
0.0404313
0.0458366
0.0511981
0.0563967
0.061309
0.0658148
0.0698045
0.0731883
0.0759036
0.0779211
0.0792489
0.0799328
0.0800529
0.079718
0.0790556
0.0782029
0.0772957
0.0764607
0.0758121
0.0754025
0.000167592
0.00013324
5.39013e-05
-6.92827e-05
-0.000225457
-0.000407158
-0.000607953
-0.000822761
-0.00104784
-0.00128069
-0.00151982
-0.00176459
-0.0020149
-0.00227107
-0.0025336
-0.00280308
-0.00308004
-0.00336489
-0.00365782
-0.0039588
-0.00426748
-0.00458321
-0.00490495
-0.00523126
-0.00556024
-0.00588947
-0.00621593
-0.0065359
-0.00684489
-0.0071375
-0.00740728
-0.00764661
-0.00784652
-0.00799655
-0.00808457
-0.0080966
-0.00801671
-0.00782688
-0.00750691
-0.00703444
-0.00638506
-0.00553245
-0.00444881
-0.00310537
-0.00147318
0.000475891
0.00276786
0.00542506
0.0084643
0.0118948
0.0157161
0.0199143
0.0244655
0.0293257
0.0344343
0.0397148
0.0450731
0.0504012
0.0555805
0.0604876
0.0650013
0.0690107
0.0724238
0.0751757
0.0772348
0.0786072
0.0793369
0.0795026
0.0792113
0.0785885
0.0777678
0.0768793
0.0760421
0.0753536
0.0748634
0.000255361
0.000207566
0.000119437
-7.4269e-06
-0.000163716
-0.000342722
-0.000538802
-0.000747547
-0.000965751
-0.00119129
-0.00142294
-0.00166018
-0.00190297
-0.00215161
-0.00240656
-0.00266829
-0.00293726
-0.00321376
-0.00349791
-0.00378957
-0.00408835
-0.00439357
-0.00470419
-0.00501882
-0.00533561
-0.00565227
-0.00596594
-0.00627313
-0.00656963
-0.00685038
-0.00710934
-0.00733938
-0.00753207
-0.00767756
-0.00776438
-0.0077793
-0.00770711
-0.00753055
-0.00723016
-0.00678425
-0.00616896
-0.00535842
-0.00432506
-0.00304013
-0.00147437
0.000400939
0.00261276
0.00518475
0.00813536
0.0114758
0.015208
0.0193211
0.0237926
0.0285819
0.033631
0.0388653
0.0441926
0.0495056
0.0546859
0.0596092
0.0641528
0.068203
0.0716649
0.0744699
0.0765832
0.0780078
0.0787855
0.0789933
0.0787367
0.0781398
0.0773336
0.0764445
0.0755859
0.0748407
0.0742586
0.00035734
0.000293556
0.000194353
6.1888e-05
-9.62551e-05
-0.000274086
-0.000466728
-0.000670444
-0.000882571
-0.00110139
-0.00132598
-0.00155597
-0.00179144
-0.0020327
-0.00228016
-0.00253428
-0.0027954
-0.00306376
-0.00333938
-0.00362209
-0.00391147
-0.0042068
-0.00450709
-0.00481099
-0.00511679
-0.00542233
-0.00572498
-0.00602151
-0.00630804
-0.00657991
-0.00683156
-0.00705638
-0.00724657
-0.00739294
-0.00748475
-0.00750949
-0.00745275
-0.00729799
-0.00702644
-0.00661705
-0.00604639
-0.0052889
-0.00431705
-0.00310185
-0.0016135
0.000177616
0.00229974
0.00477815
0.00763334
0.0108789
0.0145192
0.0185465
0.0229408
0.0276642
0.0326619
0.0378611
0.043171
0.0484852
0.0536851
0.058645
0.0632397
0.067352
0.0708829
0.0737593
0.0759418
0.0774296
0.0782612
0.0785116
0.0782849
0.0777042
0.0768992
0.0759937
0.0750979
0.0742832
0.0736011
0.000471821
0.000389823
0.000277481
0.000137675
-2.38887e-05
-0.000201916
-0.000392286
-0.00059193
-0.000798739
-0.00101144
-0.0012294
-0.00145248
-0.00168088
-0.00191495
-0.00215512
-0.00240181
-0.00265531
-0.00291579
-0.00318325
-0.00345746
-0.00373797
-0.00402412
-0.00431494
-0.00460918
-0.00490528
-0.00520129
-0.0054948
-0.00578293
-0.00606218
-0.00632835
-0.00657641
-0.00680036
-0.00699305
-0.00714602
-0.00724929
-0.00729114
-0.00725793
-0.00713386
-0.00690082
-0.00653826
-0.00602315
-0.00533002
-0.00443122
-0.0032973
-0.00189769
-0.000201567
0.00182085
0.0041968
0.00694907
0.0100939
0.0136384
0.0175783
0.021896
0.0265571
0.0315093
0.0366821
0.0419863
0.0473162
0.0525525
0.0575679
0.062234
0.0664298
0.0700508
0.0730184
0.0752875
0.0768522
0.0777471
0.0780443
0.0778466
0.0772763
0.0764626
0.0755287
0.0745832
0.0736891
0.0729017
0.000597082
0.000494891
0.00036758
0.000218874
5.24876e-05
-0.000126967
-0.000316121
-0.000512576
-0.000714792
-0.00092194
-0.00113374
-0.00135028
-0.00157191
-0.00179907
-0.00203221
-0.00227172
-0.0025179
-0.00277086
-0.00303056
-0.00329677
-0.00356907
-0.0038468
-0.00412909
-0.00441484
-0.00470264
-0.00499078
-0.00527718
-0.00555931
-0.00583413
-0.00609796
-0.00634635
-0.00657397
-0.0067744
-0.00693996
-0.00706145
-0.00712799
-0.00712669
-0.00704249
-0.00685786
-0.00655272
-0.00610427
-0.00548702
-0.00467301
-0.00363213
-0.00233276
-0.000742665
0.00116976
0.00343394
0.00607524
0.00911272
0.0125567
0.0164062
0.0206466
0.0252469
0.0301578
0.035311
0.0406191
0.0459769
0.0512647
0.0563532
0.0611106
0.0654109
0.0691436
0.0722235
0.0745986
0.0762567
0.0772273
0.077579
0.0774128
0.0768505
0.0760217
0.0750501
0.0740454
0.0730645
0.0721685
0.000731364
0.000607244
0.00046335
0.000304357
0.0001319
-5.00828e-05
-0.000238976
-0.000433058
-0.000631367
-0.00083354
-0.00103965
-0.00125006
-0.00146528
-0.00168584
-0.00191226
-0.00214494
-0.00238415
-0.00263
-0.00288244
-0.00314124
-0.00340601
-0.00367616
-0.00395095
-0.00422943
-0.00451041
-0.00479247
-0.00507389
-0.00535256
-0.00562594
-0.00589093
-0.00614375
-0.00637978
-0.0065934
-0.00677773
-0.00692443
-0.00702343
-0.00706263
-0.00702765
-0.00690152
-0.00666451
-0.00629393
-0.00576416
-0.00504671
-0.00411063
-0.00292305
-0.00145009
0.000341888
0.00248474
0.00500658
0.00792954
0.0112673
0.0150223
0.0191833
0.0237227
0.0285944
0.0337329
0.0390524
0.0444486
0.0498013
0.0549791
0.0598465
0.0642721
0.0681387
0.071353
0.0738552
0.0756256
0.0766871
0.0771041
0.076975
0.0764214
0.075574
0.0745586
0.0734874
0.072414
0.0714075
0.000872908
0.000725334
0.000563435
0.000392928
0.000213295
2.78049e-05
-0.000161688
-0.000354149
-0.000549201
-0.000746963
-0.000947884
-0.0011526
-0.0013618
-0.00157615
-0.00179623
-0.00202246
-0.00225512
-0.00249433
-0.00274005
-0.00299208
-0.00325007
-0.00351356
-0.00378193
-0.00405444
-0.00433016
-0.00460801
-0.00488666
-0.0051645
-0.00543954
-0.00570934
-0.00597082
-0.00622016
-0.00645255
-0.006662
-0.00684103
-0.0069804
-0.00706879
-0.00709246
-0.00703494
-0.00687675
-0.00659523
-0.00616442
-0.00555519
-0.00473554
-0.00367117
-0.00232638
-0.000665309
0.00134649
0.00374007
0.00654079
0.0097658
0.0134212
0.0174993
0.0219763
0.0268094
0.0319358
0.0372722
0.0427153
0.0481445
0.0534264
0.0584215
0.0629928
0.0670153
0.0703872
0.0730392
0.0749426
0.0761128
0.0766085
0.0765252
0.0759839
0.0751172
0.074054
0.0729112
0.0717412
0.070623
0.00101995
0.000847579
0.000666426
0.000483324
0.000295544
0.000105678
-8.51893e-05
-0.000276718
-0.00046913
-0.000663034
-0.000859266
-0.00105875
-0.00126237
-0.00147094
-0.00168509
-0.00190532
-0.00213191
-0.00236501
-0.00260461
-0.00285055
-0.00310258
-0.00336035
-0.00362344
-0.00389133
-0.00416341
-0.00443897
-0.00471715
-0.00499686
-0.00527677
-0.0055551
-0.00582957
-0.00609719
-0.00635405
-0.00659503
-0.00681356
-0.00700124
-0.00714751
-0.00723922
-0.00726032
-0.00719151
-0.00701
-0.0066894
-0.00619976
-0.00550788
-0.00457787
-0.00337207
-0.00185223
1.87954e-05
0.00227511
0.00494544
0.00805055
0.0116003
0.0155909
0.0200022
0.0247954
0.0299108
0.0352677
0.040764
0.0462792
0.0516783
0.0568177
0.0615542
0.0657548
0.0693078
0.0721335
0.0741926
0.0754915
0.0760819
0.0760557
0.0755331
0.0746487
0.073536
0.0723181
0.0710485
0.0698177
0.00117073
0.000972368
0.000770859
0.000574217
0.000377437
0.000182431
-1.05031e-05
-0.000201732
-0.000392087
-0.000582675
-0.000774727
-0.000969457
-0.00116797
-0.00137122
-0.00157993
-0.00179463
-0.00201568
-0.00224324
-0.00247734
-0.00271792
-0.00296483
-0.00321788
-0.00347685
-0.00374151
-0.0040116
-0.00428684
-0.00456688
-0.00485124
-0.00513923
-0.00542987
-0.00572171
-0.00601263
-0.00629964
-0.00657857
-0.00684375
-0.00708762
-0.00730032
-0.00746929
-0.00757879
-0.00760961
-0.00753874
-0.00733918
-0.00698006
-0.00642685
-0.00564195
-0.00458559
-0.00321707
-0.00149643
0.000613541
0.00314501
0.0061225
0.00955976
0.0134569
0.0177981
0.0225484
0.0276518
0.0330305
0.0385844
0.0441934
0.0497208
0.0550195
0.0599399
0.0643403
0.0680984
0.0711226
0.0733616
0.0748112
0.0755149
0.0755594
0.0750642
0.0741662
0.0730043
0.0717094
0.0703379
0.0689934
0.00132348
0.00109806
0.00087522
0.000664212
0.00045769
0.000256872
6.12541e-05
-0.000130255
-0.000319102
-0.000506903
-0.000695286
-0.000885768
-0.00107967
-0.00127809
-0.00148185
-0.00169156
-0.00190761
-0.00213022
-0.00235949
-0.00259546
-0.00283811
-0.00308743
-0.00334347
-0.00360631
-0.00387609
-0.00415299
-0.00443724
-0.004729
-0.00502833
-0.00533506
-0.00564861
-0.00596781
-0.00629063
-0.00661385
-0.0069327
-0.00724044
-0.00752791
-0.00778304
-0.00799036
-0.00813063
-0.0081805
-0.00811229
-0.00789405
-0.00748984
-0.00686023
-0.00596328
-0.00475579
-0.00319494
-0.00124035
0.0011436
0.00398528
0.00730246
0.0110994
0.0153644
0.0200672
0.0251558
0.0305557
0.0361694
0.0418776
0.0475427
0.053014
0.0581355
0.0627567
0.0667438
0.0699919
0.0724364
0.0740606
0.0748981
0.0750296
0.0745728
0.0736674
0.0724584
0.0710859
0.0696109
0.0681512
0.00147641
0.00122297
0.000977941
0.000751846
0.00053494
0.000327726
0.000128874
-6.34434e-05
-0.000251301
-0.000436827
-0.000622052
-0.000808797
-0.000998602
-0.00119271
-0.00139205
-0.0015973
-0.00180892
-0.0020272
-0.00225232
-0.00248442
-0.00272367
-0.00297028
-0.00322457
-0.00348698
-0.00375809
-0.00403862
-0.0043294
-0.0046313
-0.00494518
-0.00527171
-0.00561127
-0.00596364
-0.00632778
-0.00670144
-0.00708075
-0.00745979
-0.00783001
-0.00817978
-0.00849384
-0.00875281
-0.00893291
-0.00900566
-0.00893798
-0.00869237
-0.00822757
-0.00749941
-0.00646216
-0.00507016
-0.00327987
-0.00105218
0.00164519
0.00483411
0.00852298
0.0127046
0.017354
0.0224231
0.0278416
0.033515
0.0393256
0.0451354
0.0507905
0.056129
0.0609909
0.0652303
0.0687282
0.0714048
0.0732291
0.0742232
0.0744601
0.0740551
0.0731504
0.071898
0.0704485
0.0688687
0.0672918
0.00162772
0.00134538
0.0010774
0.000835592
0.000607747
0.000393629
0.000191057
-2.54881e-06
-0.000189902
-0.000373648
-0.00055622
-0.000739738
-0.000925961
-0.00111628
-0.00131174
-0.00151309
-0.00172085
-0.0019354
-0.00215703
-0.00238602
-0.00262271
-0.00286758
-0.00312127
-0.00338461
-0.00365867
-0.00394475
-0.00424432
-0.00455904
-0.00489057
-0.00524053
-0.00561025
-0.00600051
-0.00641128
-0.00684128
-0.00728754
-0.00774488
-0.00820538
-0.00865776
-0.00908685
-0.00947309
-0.00979216
-0.0100147
-0.0101064
-0.0100282
-0.00973695
-0.00918626
-0.00832788
-0.00711333
-0.00549598
-0.0034333
-0.000888929
0.0021632
0.00573543
0.00982543
0.0144138
0.0194571
0.0248895
0.0306203
0.0365343
0.0424934
0.0483414
0.0539105
0.0590317
0.0635461
0.0673195
0.0702555
0.0723068
0.0734821
0.0738451
0.0735074
0.0726135
0.0713231
0.0697981
0.0681126
0.0664163
0.00177559
0.00146354
0.00117192
0.000913853
0.000674593
0.000453132
0.000246415
5.10854e-05
-0.000136216
-0.000318654
-0.000499064
-0.000679862
-0.00086302
-0.00105007
-0.00124218
-0.00144017
-0.00164464
-0.00185606
-0.00207483
-0.00230141
-0.00253636
-0.00278043
-0.0030346
-0.00330017
-0.00357873
-0.00387217
-0.00418272
-0.0045128
-0.00486498
-0.00524182
-0.00564565
-0.00607829
-0.00654072
-0.00703262
-0.00755189
-0.00809409
-0.00865182
-0.00921412
-0.00976583
-0.0102871
-0.010753
-0.0111333
-0.0113923
-0.0114894
-0.0113796
-0.0110142
-0.0103426
-0.00931355
-0.00787741
-0.00598835
-0.00360565
-0.000699198
0.00274668
0.00673637
0.0112551
0.0162647
0.0217045
0.0274882
0.0335038
0.0396143
0.0456616
0.051473
0.0568699
0.0616808
0.065755
0.0689781
0.0712846
0.0726674
0.0731792
0.0729265
0.0720556
0.0707339
0.069136
0.067344
0.0655257
0.00191815
0.00157564
0.00125975
0.00098496
0.000733879
0.000504704
0.000293469
9.60254e-05
-9.16419e-05
-0.00027322
-0.000451938
-0.000630506
-0.0008111
-0.000995401
-0.00118466
-0.0013798
-0.00158151
-0.00179035
-0.00200687
-0.0022317
-0.00246564
-0.00270976
-0.00296544
-0.00323444
-0.00351893
-0.00382146
-0.00414501
-0.00449285
-0.00486848
-0.00527544
-0.0057171
-0.00619631
-0.00671507
-0.00727401
-0.00787188
-0.00850491
-0.00916618
-0.00984497
-0.0105261
-0.0111893
-0.011809
-0.0123539
-0.0127872
-0.0130665
-0.013145
-0.0129719
-0.0124942
-0.0116579
-0.0104107
-0.00870321
-0.00649068
-0.0037396
-0.000430775
0.00345056
0.00788973
0.0128562
0.0182949
0.024125
0.030238
0.0364992
0.0427497
0.048812
0.0544991
0.0596262
0.0640257
0.0675635
0.0701542
0.0717724
0.0724576
0.0723097
0.0714759
0.0701313
0.0684638
0.066565
0.0646215
0.00205351
0.00167982
0.00133911
0.00104718
0.000783931
0.000546726
0.000330652
0.000130749
-5.7665e-05
-0.000238797
-0.000416269
-0.00059307
-0.000771574
-0.000953597
-0.00114049
-0.00133327
-0.00153269
-0.00173945
-0.00195424
-0.00217789
-0.00241148
-0.00265642
-0.0029145
-0.00318802
-0.00347972
-0.00379291
-0.00413132
-0.00449912
-0.00490078
-0.00534084
-0.00582372
-0.00635333
-0.00693267
-0.0075633
-0.00824478
-0.00897397
-0.00974437
-0.0105454
-0.0113618
-0.0121729
-0.0129523
-0.0136678
-0.0142811
-0.0147485
-0.0150212
-0.0150464
-0.0147687
-0.0141318
-0.0130801
-0.0115603
-0.00952615
-0.00694142
-0.003777
-1.57195e-05
0.00433263
0.00924526
0.014673
0.0205406
0.0267445
0.033153
0.0396073
0.0459265
0.0519154
0.0573763
0.0621242
0.0660039
0.0689081
0.0707909
0.071676
0.0716547
0.0708739
0.0695163
0.0677838
0.0657779
0.063706
0.00217972
0.00177418
0.00140813
0.00109869
0.000822992
0.000577494
0.000356311
0.000153648
-3.58525e-05
-0.000216917
-0.000393549
-0.000569009
-0.000745855
-0.00092603
-0.00111098
-0.0013018
-0.00149935
-0.00170444
-0.00191794
-0.00214089
-0.00237467
-0.00262105
-0.00288231
-0.00316126
-0.00346133
-0.00378653
-0.00414145
-0.00453119
-0.00496117
-0.005437
-0.00596415
-0.00654757
-0.00719125
-0.00789768
-0.00866715
-0.00949711
-0.0103814
-0.0113096
-0.0122662
-0.0132301
-0.0141741
-0.0150649
-0.0158631
-0.0165232
-0.0169948
-0.0172232
-0.0171509
-0.0167189
-0.0158685
-0.0145441
-0.012698
-0.0102866
-0.00727404
-0.00364532
0.000601695
0.00544908
0.0108544
0.0167488
0.0230348
0.0295843
0.0362401
0.0428188
0.0491181
0.0549278
0.060045
0.0642929
0.0675401
0.0697177
0.0708309
0.07096
0.07025
0.0688908
0.0670987
0.0649859
0.0627821
0.00229479
0.00185675
0.00146487
0.00113761
0.000849222
0.000595221
0.000368708
0.000163031
-2.78506e-05
-0.000209178
-0.00038533
-0.000559822
-0.000735385
-0.000914078
-0.00109744
-0.00128663
-0.00148262
-0.00168636
-0.00189887
-0.00212148
-0.00235585
-0.00260417
-0.0028692
-0.00315434
-0.0034637
-0.00380207
-0.00417491
-0.00458826
-0.00504856
-0.00556247
-0.00613651
-0.00677668
-0.00748796
-0.00827367
-0.00913484
-0.0100694
-0.0110716
-0.0121309
-0.0132316
-0.0143521
-0.0154645
-0.0165343
-0.0175209
-0.0183773
-0.0190515
-0.0194869
-0.019624
-0.0194016
-0.0187588
-0.0176378
-0.0159854
-0.0137532
-0.010904
-0.00741654
-0.00328201
0.00148802
0.00685835
0.0127674
0.0191241
0.0258057
0.0326575
0.0394949
0.0461097
0.05228
0.0577853
0.0624261
0.0660452
0.0685484
0.0699193
0.0702244
0.069605
0.0682571
0.0664119
0.0641929
0.0618537
0.00239667
0.0019255
0.00150733
0.00116198
0.000860702
0.000598033
0.000366018
0.000157123
-3.53802e-05
-0.000217248
-0.000393218
-0.00056705
-0.000741631
-0.000919125
-0.00110114
-0.00128894
-0.00148358
-0.00168613
-0.00189785
-0.0021203
-0.00235551
-0.00260607
-0.00287527
-0.00316715
-0.0034865
-0.00383895
-0.00423083
-0.00466917
-0.00516144
-0.00571535
-0.00633847
-0.00703784
-0.00781938
-0.00868722
-0.00964308
-0.0106853
-0.0118085
-0.0130019
-0.0142497
-0.0155296
-0.0168129
-0.0180642
-0.0192415
-0.0202966
-0.0211758
-0.0218209
-0.0221703
-0.0221611
-0.0217299
-0.0208161
-0.0193628
-0.0173184
-0.0146418
-0.0113054
-0.00729464
-0.00261443
0.00270764
0.00861771
0.015032
0.0218341
0.0288731
0.0359649
0.0428966
0.0494358
0.0553449
0.0604012
0.0644203
0.0672799
0.0689391
0.0694477
0.0689405
0.0676184
0.0657277
0.0634035
0.0609255
0.00248328
0.00197832
0.00153343
0.00116974
0.000855423
0.000583971
0.000346334
0.000134074
-6.02328e-05
-0.00024285
-0.000418864
-0.000592262
-0.00076607
-0.000942542
-0.00112336
-0.00130986
-0.0015032
-0.00170461
-0.00191555
-0.00213787
-0.00237395
-0.00262687
-0.00290044
-0.00319935
-0.00352915
-0.0038963
-0.00430806
-0.00477243
-0.00529793
-0.00589332
-0.00656725
-0.00732772
-0.00818157
-0.00913374
-0.0101865
-0.0113387
-0.0125849
-0.0139145
-0.0153112
-0.0167522
-0.0182079
-0.0196421
-0.0210113
-0.0222663
-0.0233516
-0.0242077
-0.0247714
-0.0249775
-0.0247607
-0.0240577
-0.0228085
-0.0209584
-0.0184621
-0.015286
-0.0114099
-0.00683196
-0.00157192
0.0043245
0.0107816
0.0176902
0.0249047
0.0322429
0.0394891
0.0464016
0.0527266
0.0582183
0.0626637
0.0659104
0.0678895
0.0686303
0.0682586
0.0669787
0.0650511
0.0626235
0.0600036
0.00255243
0.00201306
0.001541
0.00115877
0.000831294
0.00055099
0.000307665
9.19564e-05
-0.000104266
-0.000287764
-0.00046396
-0.000637047
-0.000810178
-0.000985683
-0.00116531
-0.00135045
-0.00154239
-0.00174252
-0.00195251
-0.00217452
-0.00241133
-0.00266647
-0.00294436
-0.00325036
-0.00359079
-0.00397296
-0.00440509
-0.00489617
-0.00545577
-0.0060937
-0.00681964
-0.00764256
-0.00857018
-0.00960814
-0.0107593
-0.0120228
-0.0133933
-0.0148601
-0.0164066
-0.0180093
-0.0196379
-0.021255
-0.0228162
-0.0242709
-0.0255624
-0.0266297
-0.0274079
-0.0278304
-0.0278297
-0.0273401
-0.0262988
-0.0246481
-0.0223383
-0.0193308
-0.0155996
-0.0111359
-0.00595165
-8.414e-05
0.00639971
0.0133988
0.0207742
0.0283474
0.0359015
0.0431875
0.0499366
0.0558803
0.0607765
0.0644398
0.0667704
0.0677736
0.0675625
0.0663425
0.0643883
0.0618597
0.0590948
0.00260191
0.00202746
0.00152782
0.00112684
0.000786131
0.000496957
0.00024794
2.8768e-05
-0.000169399
-0.000353815
-0.000530223
-0.000703006
-0.000875424
-0.00104987
-0.00122814
-0.00141171
-0.00160197
-0.00180047
-0.00200913
-0.00223043
-0.00246756
-0.00272457
-0.00300647
-0.00331933
-0.00367027
-0.00406747
-0.00452013
-0.00503822
-0.00563237
-0.00631343
-0.00709208
-0.00797823
-0.00898041
-0.010105
-0.0113552
-0.0127305
-0.0142257
-0.0158299
-0.017526
-0.01929
-0.0210906
-0.0228897
-0.0246417
-0.0262948
-0.0277913
-0.0290687
-0.0300607
-0.0306991
-0.0309148
-0.0306398
-0.0298087
-0.0283609
-0.0262429
-0.023411
-0.0198338
-0.0154955
-0.0104005
-0.00457738
0.00191622
0.0089882
0.0165075
0.0243009
0.0321525
0.0398078
0.0469849
0.0533935
0.0587617
0.0628699
0.0655836
0.0668802
0.0668563
0.0657157
0.063746
0.0611199
0.0582075
0.00262941
0.00201919
0.00149154
0.00107164
0.000717657
0.000419649
0.000165005
-5.75628e-05
-0.000257607
-0.00044287
-0.000619395
-0.00079174
-0.000963252
-0.00113637
-0.00131295
-0.00149452
-0.0016826
-0.00187891
-0.00208563
-0.00230558
-0.00254238
-0.00280063
-0.00308596
-0.00340517
-0.00376619
-0.00417811
-0.00465108
-0.00519611
-0.00582484
-0.00654914
-0.00738067
-0.00833026
-0.0094072
-0.0106184
-0.0119677
-0.0134546
-0.015074
-0.0168147
-0.0186593
-0.020583
-0.0225539
-0.0245329
-0.0264734
-0.0283226
-0.0300215
-0.0315065
-0.0327103
-0.0335629
-0.0339939
-0.0339332
-0.0333132
-0.0320704
-0.0301477
-0.027497
-0.0240814
-0.0198788
-0.0148858
-0.00912213
-0.00263608
0.00449004
0.0121342
0.0201301
0.0282648
0.0362809
0.0438853
0.0507673
0.0566256
0.0612046
0.0643323
0.0659538
0.066145
0.0651049
0.0631325
0.060413
0.0573513
0.00263254
0.00198583
0.00142972
0.000990748
0.000623498
0.000316751
5.66223e-05
-0.000169177
-0.000370921
-0.000556828
-0.000733231
-0.000904841
-0.00107508
-0.00124642
-0.00142075
-0.00159968
-0.00178485
-0.00197816
-0.00218208
-0.00239978
-0.00263535
-0.00289393
-0.00318182
-0.00350655
-0.00387691
-0.00430289
-0.00479562
-0.0053671
-0.00603
-0.0067972
-0.00768129
-0.00869395
-0.00984519
-0.0111425
-0.0125901
-0.0141874
-0.0159296
-0.0178052
-0.0197961
-0.0218772
-0.0240156
-0.0261713
-0.028297
-0.0303386
-0.0322363
-0.0339255
-0.0353375
-0.0364014
-0.0370451
-0.0371969
-0.0367872
-0.0357498
-0.0340244
-0.0315589
-0.0283111
-0.0242529
-0.0193733
-0.0136836
-0.00722226
-6.1379e-05
0.00768708
0.0158653
0.0242653
0.0326292
0.0406555
0.0480148
0.0543772
0.0594504
0.0630216
0.0649997
0.0654352
0.064518
0.062557
0.0597493
0.0565369
0.00260886
0.00192488
0.00133985
0.000881652
0.000501177
0.000185856
-7.95251e-05
-0.000308282
-0.000511416
-0.000697617
-0.00087349
-0.00104388
-0.00121227
-0.00138116
-0.00155247
-0.00172787
-0.00190914
-0.00209839
-0.00229838
-0.00251266
-0.00274579
-0.0030035
-0.00329278
-0.00362191
-0.00400055
-0.0044396
-0.00495115
-0.00554822
-0.00624447
-0.00705376
-0.00798957
-0.00906439
-0.0102889
-0.0116711
-0.0132155
-0.0149214
-0.0167843
-0.0187921
-0.0209265
-0.0231615
-0.0254637
-0.027792
-0.0300983
-0.0323278
-0.0344196
-0.0363081
-0.0379238
-0.0391945
-0.040047
-0.0404081
-0.0402062
-0.039373
-0.0378453
-0.035567
-0.0324914
-0.0285846
-0.0238285
-0.018226
-0.0118059
-0.00462964
0.00320159
0.0115398
0.0201844
0.0288793
0.0373173
0.0451529
0.0520292
0.0576164
0.0616588
0.0640248
0.0647343
0.0639641
0.06203
0.0591405
0.0557766
0.0025558
0.0018337
0.00121925
0.000741716
0.000348108
2.44564e-05
-0.000245839
-0.00047715
-0.000681214
-0.000867185
-0.00104193
-0.00121041
-0.00137614
-0.00154166
-0.00170891
-0.00187964
-0.00205576
-0.00223961
-0.00243424
-0.00264363
-0.00287284
-0.0031282
-0.00341739
-0.0037495
-0.00413502
-0.0045858
-0.0051149
-0.00573632
-0.0064647
-0.00731481
-0.00830103
-0.00943659
-0.0107328
-0.012198
-0.0138371
-0.015649
-0.0176297
-0.0197665
-0.0220405
-0.0244252
-0.0268865
-0.0293824
-0.0318641
-0.0342758
-0.0365559
-0.0386379
-0.0404514
-0.0419233
-0.0429793
-0.0435449
-0.0435469
-0.042915
-0.0415833
-0.0394925
-0.0365916
-0.0328412
-0.0282168
-0.0227132
-0.0163496
-0.0091769
-0.00128467
0.00719018
0.016056
0.0250614
0.0338964
0.0422026
0.0495975
0.0557148
0.0602535
0.0630377
0.0640516
0.0634536
0.0615633
0.0585994
0.0550842
0.0024707
0.00170957
0.00106517
0.000568181
0.00016159
-0.000170058
-0.000444808
-0.000678118
-0.000882474
-0.00106749
-0.00124028
-0.00140592
-0.00156795
-0.00172891
-0.00189079
-0.00205541
-0.00222482
-0.00240163
-0.00258921
-0.00279196
-0.00301546
-0.00326668
-0.00355401
-0.00388735
-0.00427806
-0.00473893
-0.00528395
-0.00592811
-0.00668699
-0.00757627
-0.00861113
-0.0098055
-0.0111712
-0.0127171
-0.0144482
-0.0163628
-0.0184578
-0.0207194
-0.0231286
-0.0256581
-0.0282729
-0.0309306
-0.0335814
-0.0361688
-0.0386304
-0.040899
-0.0429034
-0.0445698
-0.0458227
-0.0465867
-0.0467871
-0.0463518
-0.0452128
-0.0433077
-0.0405819
-0.036991
-0.0325045
-0.0271095
-0.0208162
-0.0136646
-0.00573275
0.00285462
0.0119166
0.0212091
0.0304222
0.0391881
0.0471017
0.0537609
0.0588179
0.0620493
0.063398
0.0629985
0.0611702
0.0581406
0.054475
0.00235081
0.00154961
0.000874693
0.000358152
-6.12055e-05
-0.000400407
-0.000679004
-0.000913583
-0.00111739
-0.00130051
-0.00147028
-0.00163187
-0.00178886
-0.00194379
-0.00209868
-0.00225544
-0.00241631
-0.00258414
-0.00276264
-0.00295669
-0.0031724
-0.00341739
-0.00370081
-0.00403335
-0.00442725
-0.00489623
-0.00545524
-0.0061202
-0.00690761
-0.007834
-0.00891532
-0.0101661
-0.0115988
-0.0132224
-0.0150423
-0.0170557
-0.0192607
-0.0216425
-0.0241817
-0.0268502
-0.0296125
-0.0324254
-0.0352383
-0.037994
-0.0406296
-0.043077
-0.0452644
-0.0471172
-0.0485593
-0.0495142
-0.049906
-0.0496613
-0.0487099
-0.0469869
-0.0444345
-0.0410039
-0.0366591
-0.0313802
-0.0251687
-0.0180543
-0.0101031
-0.00142711
0.00780506
0.0173587
0.0269277
0.036138
0.044565
0.0517732
0.0573669
0.0610724
0.0627861
0.0626122
0.0608656
0.0577799
0.0539657
0.00219322
0.00135081
0.000644748
0.000108587
-0.000323243
-0.000669425
-0.000951094
-0.00118601
-0.0013882
-0.0015682
-0.0017336
-0.00188965
-0.00203996
-0.00218707
-0.00233303
-0.00247988
-0.00263003
-0.00278661
-0.00295373
-0.00313672
-0.00334225
-0.00357866
-0.00385581
-0.00418523
-0.00458006
-0.00505491
-0.00562566
-0.00630917
-0.0071228
-0.0080839
-0.0092091
-0.0105136
-0.0120101
-0.013708
-0.0156133
-0.0177207
-0.0200313
-0.0225279
-0.0251914
-0.0279927
-0.0308957
-0.0338564
-0.0368237
-0.0397397
-0.0425408
-0.0451584
-0.04752
-0.0495505
-0.0511729
-0.05231
-0.052885
-0.0528231
-0.0520525
-0.0505062
-0.0481234
-0.0448518
-0.0406501
-0.0354923
-0.0293718
-0.0223084
-0.0143564
-0.0056147
0.00376144
0.013549
0.0234485
0.0330836
0.0420141
0.0497738
0.0559185
0.0601225
0.0622306
0.06231
0.0606658
0.0575351
0.0535751
0.00199491
0.00111001
0.000372104
-0.000183723
-0.000627634
-0.000980072
-0.00126384
-0.00149791
-0.00169713
-0.00187252
-0.00203189
-0.00218059
-0.00232223
-0.00245938
-0.00259415
-0.00272869
-0.00286563
-0.00300838
-0.00316149
-0.00333076
-0.00352347
-0.00374864
-0.00401691
-0.00434065
-0.00473386
-0.00521207
-0.00579207
-0.0064916
-0.00732885
-0.00832194
-0.00948814
-0.0108431
-0.0124
-0.0141686
-0.0161555
-0.0183514
-0.0207625
-0.0233683
-0.0261499
-0.0290772
-0.0321135
-0.0352143
-0.0383277
-0.0413954
-0.044353
-0.0471314
-0.0496577
-0.0518561
-0.0536491
-0.0549587
-0.0557073
-0.0558192
-0.0552211
-0.0538443
-0.0516254
-0.0485089
-0.0444494
-0.039415
-0.033392
-0.0263907
-0.0184541
-0.00966799
-0.000173334
0.0098202