/*--------------------------------*- C++ -*----------------------------------*\
  =========                 |
  \\      /  F ield         | OpenFOAM: The Open Source CFD Toolbox
   \\    /   O peration     | Website:  https://openfoam.org
    \\  /    A nd           | Version:  12
     \\/     M anipulation  |
\*---------------------------------------------------------------------------*/
FoamFile
{
    format      ascii;
    class       volVectorField;
    location    "5";
    object      U;
}
// * * * * * * * * * * * * * * * * * * * * * * * * * * * * * * * * * * * * * //

dimensions      [0 1 -1 0 0 0 0];

internalField   nonuniform List<vector> 
5625
(
(7.55548e-06 -3.51846e-06 0)
(4.61115e-05 -5.87017e-06 0)
(9.08014e-05 -5.31327e-06 0)
(0.000121332 -3.30986e-06 0)
(0.000127693 -1.01293e-06 0)
(0.00010785 1.23296e-06 0)
(6.28784e-05 3.22398e-06 0)
(-4.60392e-06 4.89891e-06 0)
(-9.14425e-05 6.25809e-06 0)
(-0.000194516 7.33768e-06 0)
(-0.000311065 8.18884e-06 0)
(-0.000438865 8.86881e-06 0)
(-0.000576297 9.43421e-06 0)
(-0.000722346 9.93744e-06 0)
(-0.00087657 1.04248e-05 0)
(-0.00103904 1.09361e-05 0)
(-0.00121027 1.15045e-05 0)
(-0.00139116 1.21575e-05 0)
(-0.00158294 1.29177e-05 0)
(-0.0017871 1.3804e-05 0)
(-0.00200536 1.48325e-05 0)
(-0.00223965 1.60174e-05 0)
(-0.00249205 1.73716e-05 0)
(-0.00276481 1.89073e-05 0)
(-0.00306031 2.0636e-05 0)
(-0.00338103 2.2569e-05 0)
(-0.00372957 2.47168e-05 0)
(-0.00410859 2.70889e-05 0)
(-0.0045208 2.96931e-05 0)
(-0.00496891 3.25349e-05 0)
(-0.00545559 3.56164e-05 0)
(-0.00598339 3.89351e-05 0)
(-0.00655467 4.24825e-05 0)
(-0.00717151 4.62425e-05 0)
(-0.00783557 5.01899e-05 0)
(-0.00854795 5.42879e-05 0)
(-0.00930908 5.84865e-05 0)
(-0.0101185 6.272e-05 0)
(-0.0109746 6.69051e-05 0)
(-0.0118746 7.09383e-05 0)
(-0.0128141 7.46945e-05 0)
(-0.013787 7.80257e-05 0)
(-0.0147852 8.07599e-05 0)
(-0.0157984 8.27016e-05 0)
(-0.016814 8.36341e-05 0)
(-0.0178168 8.33223e-05 0)
(-0.0187891 8.15197e-05 0)
(-0.0197106 7.79758e-05 0)
(-0.0205587 7.24495e-05 0)
(-0.0213088 6.47567e-05 0)
(-0.0219336 5.44815e-05 0)
(-0.0224075 4.18398e-05 0)
(-0.0227003 2.69357e-05 0)
(-0.0227925 9.07796e-06 0)
(-0.0226551 -1.05437e-05 0)
(-0.022271 -3.20543e-05 0)
(-0.0216276 -5.4783e-05 0)
(-0.0207197 -7.79359e-05 0)
(-0.0195518 -0.000100575 0)
(-0.0181392 -0.000121628 0)
(-0.0165088 -0.00013995 0)
(-0.0146995 -0.000154404 0)
(-0.0127612 -0.000163962 0)
(-0.0107531 -0.00016781 0)
(-0.00874126 -0.000165446 0)
(-0.00679454 -0.000156758 0)
(-0.00498093 -0.000142048 0)
(-0.00336306 -0.00012202 0)
(-0.00199426 -9.7704e-05 0)
(-0.000915214 -7.03526e-05 0)
(-0.000151239 -4.13761e-05 0)
(0.000290287 -1.24801e-05 0)
(0.000424358 1.45934e-05 0)
(0.000312988 3.39186e-05 0)
(8.20038e-05 3.71871e-05 0)
(1.79492e-05 -2.50333e-05 0)
(0.000107336 -4.35839e-05 0)
(0.000200112 -3.72268e-05 0)
(0.000253268 -1.69668e-05 0)
(0.000243069 8.49208e-06 0)
(0.000163078 3.45719e-05 0)
(1.48524e-05 5.88438e-05 0)
(-0.000195705 8.02531e-05 0)
(-0.000460935 9.852e-05 0)
(-0.000772947 0.000113826 0)
(-0.00112461 0.000126615 0)
(-0.00151009 0.000137456 0)
(-0.00192507 0.00014696 0)
(-0.00236682 0.000155723 0)
(-0.00283416 0.000164298 0)
(-0.0033273 0.000173175 0)
(-0.0038477 0.000182778 0)
(-0.00439788 0.000193469 0)
(-0.00498129 0.000205553 0)
(-0.00560217 0.000219288 0)
(-0.00626538 0.000234894 0)
(-0.00697637 0.000252558 0)
(-0.00774107 0.000272446 0)
(-0.00856582 0.000294702 0)
(-0.00945731 0.000319454 0)
(-0.0104225 0.000346809 0)
(-0.0114687 0.000376851 0)
(-0.0126031 0.000409639 0)
(-0.0138332 0.000445192 0)
(-0.0151663 0.000483481 0)
(-0.0166094 0.000524418 0)
(-0.018169 0.000567838 0)
(-0.0198512 0.000613484 0)
(-0.0216607 0.000660988 0)
(-0.0236011 0.000709849 0)
(-0.0256742 0.000759416 0)
(-0.0278796 0.000808865 0)
(-0.0302142 0.000857179 0)
(-0.0326718 0.000903133 0)
(-0.0352423 0.000945279 0)
(-0.0379113 0.000981938 0)
(-0.0406594 0.0010112 0)
(-0.0434617 0.00103093 0)
(-0.0462874 0.00103882 0)
(-0.0490992 0.00103237 0)
(-0.0518535 0.00100903 0)
(-0.0544998 0.000966216 0)
(-0.0569814 0.000901474 0)
(-0.0592362 0.00081259 0)
(-0.0611971 0.00069774 0)
(-0.0627923 0.000555313 0)
(-0.0639559 0.000384317 0)
(-0.0646017 0.000189352 0)
(-0.0646903 -3.05788e-05 0)
(-0.0641456 -0.000273393 0)
(-0.0629283 -0.00053137 0)
(-0.0610096 -0.000798033 0)
(-0.0583823 -0.00106466 0)
(-0.055064 -0.00132099 0)
(-0.0511002 -0.00155565 0)
(-0.0465659 -0.00175676 0)
(-0.0415661 -0.00191279 0)
(-0.0362333 -0.00201342 0)
(-0.0307234 -0.00205061 0)
(-0.0252087 -0.00201946 0)
(-0.019869 -0.00191893 0)
(-0.0148817 -0.00175223 0)
(-0.0104106 -0.00152675 0)
(-0.00659571 -0.00125364 0)
(-0.00354396 -0.000947149 0)
(-0.00132094 -0.000624398 0)
(5.74325e-05 -0.000306544 0)
(0.000637316 -2.30255e-05 0)
(0.000573734 0.000172711 0)
(0.00015044 0.000182377 0)
(2.40994e-05 -5.97991e-05 0)
(0.000140203 -9.74992e-05 0)
(0.000247783 -7.69202e-05 0)
(0.000291069 -2.34755e-05 0)
(0.000237527 4.36983e-05 0)
(7.70968e-05 0.00011329 0)
(-0.000188887 0.000178959 0)
(-0.000552485 0.000237708 0)
(-0.00100283 0.000288565 0)
(-0.00152845 0.000331832 0)
(-0.00211882 0.000368554 0)
(-0.0027652 0.000400158 0)
(-0.00346111 0.000428225 0)
(-0.00420244 0.000454327 0)
(-0.00498743 0.000479941 0)
(-0.00581647 0.000506396 0)
(-0.0066919 0.000534856 0)
(-0.00761774 0.000566319 0)
(-0.00859948 0.000601635 0)
(-0.00964384 0.000641523 0)
(-0.0107586 0.000686593 0)
(-0.0119524 0.000737369 0)
(-0.0132347 0.0007943 0)
(-0.0146156 0.000857774 0)
(-0.0161056 0.000928116 0)
(-0.0177157 0.00100559 0)
(-0.0194573 0.00109038 0)
(-0.0213417 0.00118259 0)
(-0.0233803 0.00128219 0)
(-0.0255841 0.00138902 0)
(-0.0279638 0.00150273 0)
(-0.0305288 0.00162275 0)
(-0.0332874 0.00174823 0)
(-0.036246 0.00187802 0)
(-0.0394088 0.00201058 0)
(-0.0427769 0.00214396 0)
(-0.0463474 0.00227574 0)
(-0.0501134 0.00240296 0)
(-0.0540624 0.00252213 0)
(-0.0581758 0.00262917 0)
(-0.0624279 0.0027194 0)
(-0.0667855 0.00278759 0)
(-0.0712064 0.00282795 0)
(-0.0756396 0.00283429 0)
(-0.0800242 0.00280009 0)
(-0.0842897 0.00271871 0)
(-0.0883563 0.00258363 0)
(-0.0921348 0.00238877 0)
(-0.0955289 0.00212886 0)
(-0.098436 0.00179981 0)
(-0.100748 0.00139888 0)
(-0.102368 0.000922673 0)
(-0.103168 0.000387554 0)
(-0.103091 -0.000215424 0)
(-0.10203 -0.000870239 0)
(-0.0999322 -0.00156225 0)
(-0.096762 -0.00227257 0)
(-0.0925157 -0.00297826 0)
(-0.0872264 -0.00365274 0)
(-0.0809682 -0.00426686 0)
(-0.0738582 -0.00479052 0)
(-0.0660564 -0.00519455 0)
(-0.0577624 -0.00545309 0)
(-0.049209 -0.00554593 0)
(-0.040653 -0.00546081 0)
(-0.0323619 -0.00519517 0)
(-0.0245998 -0.00475714 0)
(-0.0176113 -0.0041656 0)
(-0.0116065 -0.00344937 0)
(-0.0067462 -0.00264603 0)
(-0.00312867 -0.00180147 0)
(-0.000775844 -0.000972596 0)
(0.000384339 -0.000236918 0)
(0.000572019 0.000281831 0)
(0.000166203 0.000363389 0)
(2.6752e-05 -0.00010188 0)
(0.000148789 -0.000156759 0)
(0.000244274 -0.00011187 0)
(0.000250313 -1.05913e-05 0)
(0.000129236 0.000115597 0)
(-0.00013138 0.000246866 0)
(-0.000530393 0.000371748 0)
(-0.00105844 0.000484468 0)
(-0.00170232 0.000582998 0)
(-0.00244785 0.000667695 0)
(-0.00328188 0.00074035 0)
(-0.00419341 0.000803534 0)
(-0.00517424 0.000860145 0)
(-0.00621921 0.000913116 0)
(-0.00732613 0.000965222 0)
(-0.00849567 0.00101899 0)
(-0.00973101 0.00107664 0)
(-0.0110376 0.00114009 0)
(-0.0124228 0.00121098 0)
(-0.0138956 0.00129071 0)
(-0.0154664 0.00138046 0)
(-0.0171469 0.00148123 0)
(-0.0189496 0.00159388 0)
(-0.020888 0.00171913 0)
(-0.0229762 0.00185756 0)
(-0.0252286 0.00200964 0)
(-0.0276602 0.00217565 0)
(-0.0302857 0.00235568 0)
(-0.0331198 0.00254957 0)
(-0.0361766 0.00275688 0)
(-0.0394692 0.00297677 0)
(-0.0430092 0.00320796 0)
(-0.0468062 0.00344863 0)
(-0.050867 0.00369634 0)
(-0.055195 0.00394791 0)
(-0.0597893 0.00419936 0)
(-0.0646437 0.0044458 0)
(-0.0697455 0.00468135 0)
(-0.0750752 0.0048991 0)
(-0.0806044 0.0050911 0)
(-0.0862956 0.0052483 0)
(-0.0921008 0.00536068 0)
(-0.097961 0.00541732 0)
(-0.103805 0.00540662 0)
(-0.109551 0.00531655 0)
(-0.115102 0.00513501 0)
(-0.120353 0.00485034 0)
(-0.125187 0.0044519 0)
(-0.129479 0.00393074 0)
(-0.133096 0.00328036 0)
(-0.135903 0.00249744 0)
(-0.137773 0.00158059 0)
(-0.138571 0.000545383 0)
(-0.138192 -0.000600797 0)
(-0.136536 -0.00184057 0)
(-0.133537 -0.00314331 0)
(-0.129156 -0.00447367 0)
(-0.1234 -0.0057892 0)
(-0.116316 -0.00704129 0)
(-0.108005 -0.00817707 0)
(-0.0986197 -0.0091422 0)
(-0.0883645 -0.00988429 0)
(-0.0774922 -0.0103569 0)
(-0.0662961 -0.0105239 0)
(-0.0550986 -0.0103631 0)
(-0.0442357 -0.00986975 0)
(-0.03404 -0.00905847 0)
(-0.0248209 -0.00796335 0)
(-0.016845 -0.00663713 0)
(-0.0103177 -0.00514936 0)
(-0.00536531 -0.00358598 0)
(-0.00201646 -0.00205333 0)
(-0.000181765 -0.000692751 0)
(0.000398715 0.00028641 0)
(0.000153845 0.000529521 0)
(2.69298e-05 -0.00014418 0)
(0.000137504 -0.00020916 0)
(0.000198388 -0.00012852 0)
(0.000143518 3.43677e-05 0)
(-6.70535e-05 0.000234702 0)
(-0.000446756 0.000443238 0)
(-0.000994248 0.000642623 0)
(-0.00169898 0.000823779 0)
(-0.00254591 0.000983339 0)
(-0.00351877 0.00112164 0)
(-0.00460237 0.00124132 0)
(-0.00578397 0.0013463 0)
(-0.00705405 0.00144106 0)
(-0.00840669 0.00153019 0)
(-0.00983948 0.00161807 0)
(-0.0113534 0.00170872 0)
(-0.0129525 0.00180569 0)
(-0.0146436 0.00191206 0)
(-0.0164357 0.00203048 0)
(-0.01834 0.00216318 0)
(-0.0203694 0.00231209 0)
(-0.0225381 0.0024788 0)
(-0.0248615 0.00266468 0)
(-0.0273561 0.00287083 0)
(-0.0300391 0.00309816 0)
(-0.032928 0.0033473 0)
(-0.0360406 0.0036186 0)
(-0.0393948 0.00391207 0)
(-0.0430078 0.00422729 0)
(-0.0468958 0.00456331 0)
(-0.0510737 0.00491857 0)
(-0.0555543 0.00529073 0)
(-0.0603474 0.00567657 0)
(-0.0654592 0.00607183 0)
(-0.0708914 0.00647108 0)
(-0.0766397 0.00686756 0)
(-0.0826932 0.00725309 0)
(-0.0890331 0.00761793 0)
(-0.0956311 0.00795074 0)
(-0.102449 0.00823854 0)
(-0.109436 0.0084668 0)
(-0.11653 0.0086195 0)
(-0.123656 0.00867941 0)
(-0.130723 0.0086284 0)
(-0.137628 0.00844789 0)
(-0.144254 0.00811951 0)
(-0.150472 0.00762581 0)
(-0.156141 0.00695122 0)
(-0.161113 0.00608312 0)
(-0.165233 0.00501298 0)
(-0.168345 0.00373755 0)
(-0.170301 0.00225899 0)
(-0.170956 0.000596923 0)
(-0.170185 -0.0012314 0)
(-0.167885 -0.00319607 0)
(-0.163987 -0.00525046 0)
(-0.158458 -0.00733929 0)
(-0.151309 -0.00939682 0)
(-0.142607 -0.0113485 0)
(-0.132474 -0.0131136 0)
(-0.121091 -0.0146099 0)
(-0.108696 -0.0157578 0)
(-0.0955845 -0.0164871 0)
(-0.082095 -0.0167428 0)
(-0.0686003 -0.0164912 0)
(-0.05549 -0.0157246 0)
(-0.0431504 -0.0144646 0)
(-0.0319428 -0.0127629 0)
(-0.0221808 -0.0107005 0)
(-0.0141076 -0.00838519 0)
(-0.00787481 -0.00595128 0)
(-0.00352094 -0.00356435 0)
(-0.000948657 -0.00143916 0)
(0.00011936 0.000122273 0)
(0.000128127 0.000635135 0)
(2.53238e-05 -0.000181525 0)
(0.000110278 -0.000245147 0)
(0.000117441 -0.000115847 0)
(-1.90985e-05 0.000122336 0)
(-0.000339134 0.000410845 0)
(-0.000855839 0.000710686 0)
(-0.00156709 0.000998182 0)
(-0.00246108 0.00126069 0)
(-0.00352119 0.00149333 0)
(-0.00472947 0.00169639 0)
(-0.00606913 0.00187343 0)
(-0.00752609 0.00202988 0)
(-0.00908989 0.00217202 0)
(-0.0107541 0.00230636 0)
(-0.0125162 0.00243913 0)
(-0.0143776 0.00257608 0)
(-0.0163433 0.00272232 0)
(-0.0184212 0.00288231 0)
(-0.0206222 0.00305987 0)
(-0.0229592 0.00325826 0)
(-0.0254474 0.00348023 0)
(-0.0281034 0.0037281 0)
(-0.0309451 0.00400379 0)
(-0.0339917 0.00430886 0)
(-0.037263 0.00464451 0)
(-0.0407792 0.00501154 0)
(-0.0445606 0.00541028 0)
(-0.0486272 0.00584055 0)
(-0.0529982 0.00630147 0)
(-0.0576914 0.0067914 0)
(-0.0627226 0.0073077 0)
(-0.0681049 0.00784663 0)
(-0.0738474 0.00840309 0)
(-0.0799547 0.00897048 0)
(-0.0864256 0.00954045 0)
(-0.0932517 0.0101028 0)
(-0.100416 0.0106452 0)
(-0.107893 0.0111531 0)
(-0.115646 0.01161 0)
(-0.123624 0.0119968 0)
(-0.131765 0.0122924 0)
(-0.139992 0.0124741 0)
(-0.148214 0.0125172 0)
(-0.156323 0.0123965 0)
(-0.164198 0.0120861 0)
(-0.171702 0.011561 0)
(-0.178687 0.0107979 0)
(-0.184994 0.00977622 0)
(-0.190455 0.00848025 0)
(-0.1949 0.00690016 0)
(-0.198158 0.005034 0)
(-0.200068 0.00288884 0)
(-0.200476 0.000489473 0)
(-0.199253 -0.0021348 0)
(-0.196292 -0.00493873 0)
(-0.191525 -0.00785792 0)
(-0.184926 -0.0108147 0)
(-0.176515 -0.0137176 0)
(-0.166373 -0.0164635 0)
(-0.154638 -0.0189416 0)
(-0.141512 -0.0210386 0)
(-0.127262 -0.0226459 0)
(-0.112211 -0.0236669 0)
(-0.0967312 -0.0240257 0)
(-0.081235 -0.0236752 0)
(-0.0661522 -0.0226038 0)
(-0.051912 -0.0208401 0)
(-0.0389183 -0.0184548 0)
(-0.0275243 -0.0155598 0)
(-0.0180071 -0.0123056 0)
(-0.010543 -0.00888077 0)
(-0.00518431 -0.0055169 0)
(-0.00183533 -0.00250769 0)
(-0.000220021 -0.000249101 0)
(9.65737e-05 0.00065651 0)
(2.24398e-05 -0.000210113 0)
(7.03536e-05 -0.000257078 0)
(7.45563e-06 -6.46032e-05 0)
(-0.000229079 0.000262911 0)
(-0.000676766 0.000653158 0)
(-0.00134733 0.00105736 0)
(-0.00223716 0.00144541 0)
(-0.00333298 0.00180101 0)
(-0.00461665 0.00211772 0)
(-0.00606878 0.00239579 0)
(-0.00767127 0.0026398 0)
(-0.00940904 0.00285684 0)
(-0.0112709 0.0030552 0)
(-0.0132502 0.00324348 0)
(-0.0153445 0.00342999 0)
(-0.0175556 0.00362243 0)
(-0.0198895 0.00382765 0)
(-0.0223553 0.00405166 0)
(-0.0249652 0.00429963 0)
(-0.0277342 0.00457595 0)
(-0.0306793 0.00488433 0)
(-0.0338192 0.00522785 0)
(-0.0371742 0.00560907 0)
(-0.0407656 0.00603 0)
(-0.0446155 0.00649211 0)
(-0.0487463 0.00699632 0)
(-0.0531803 0.00754286 0)
(-0.0579391 0.00813116 0)
(-0.0630432 0.00875972 0)
(-0.0685113 0.00942589 0)
(-0.0743594 0.0101257 0)
(-0.0805998 0.0108535 0)
(-0.0872402 0.0116019 0)
(-0.0942828 0.0123614 0)
(-0.101723 0.0131201 0)
(-0.109546 0.0138635 0)
(-0.11773 0.0145746 0)
(-0.126241 0.0152332 0)
(-0.135031 0.0158166 0)
(-0.144041 0.0162989 0)
(-0.153195 0.0166518 0)
(-0.162403 0.0168449 0)
(-0.171558 0.0168458 0)
(-0.180537 0.0166214 0)
(-0.189204 0.0161385 0)
(-0.197405 0.0153654 0)
(-0.204976 0.0142729 0)
(-0.211745 0.0128363 0)
(-0.21753 0.0110373 0)
(-0.22215 0.00886581 0)
(-0.225427 0.00632242 0)
(-0.22719 0.00342013 0)
(-0.227285 0.00019073 0)
(-0.225579 -0.00332294 0)
(-0.221967 -0.00705886 0)
(-0.216386 -0.0109332 0)
(-0.208813 -0.0148445 0)
(-0.19928 -0.0186741 0)
(-0.187875 -0.0222888 0)
(-0.17475 -0.0255462 0)
(-0.160121 -0.0283008 0)
(-0.144271 -0.0304125 0)
(-0.127544 -0.0317569 0)
(-0.110339 -0.0322353 0)
(-0.0930928 -0.0317854 0)
(-0.0762689 -0.0303903 0)
(-0.0603305 -0.0280851 0)
(-0.0457174 -0.0249595 0)
(-0.032818 -0.0211578 0)
(-0.021941 -0.0168765 0)
(-0.0132885 -0.0123624 0)
(-0.00693124 -0.00791739 0)
(-0.00278434 -0.00391685 0)
(-0.000587902 -0.000848568 0)
(6.35409e-05 0.000583128 0)
(1.86585e-05 -0.000226988 0)
(2.03027e-05 -0.000238576 0)
(-0.000126669 3.32533e-05 0)
(-0.000479428 0.000464696 0)
(-0.00107133 0.000970055 0)
(-0.00191149 0.00149099 0)
(-0.00299412 0.00199112 0)
(-0.00430409 0.00245054 0)
(-0.00582167 0.00286131 0)
(-0.00752611 0.00322377 0)
(-0.00939823 0.00354361 0)
(-0.0114222 0.00382974 0)
(-0.0135862 0.00409261 0)
(-0.0158836 0.00434312 0)
(-0.0183122 0.00459185 0)
(-0.0208743 0.00484859 0)
(-0.0235768 0.00512213 0)
(-0.0264298 0.00542016 0)
(-0.0294472 0.00574933 0)
(-0.0326454 0.00611525 0)
(-0.0360431 0.00652267 0)
(-0.039661 0.00697551 0)
(-0.0435214 0.00747696 0)
(-0.0476474 0.00802949 0)
(-0.052063 0.00863481 0)
(-0.0567922 0.00929384 0)
(-0.0618587 0.0100066 0)
(-0.0672855 0.0107719 0)
(-0.0730936 0.0115875 0)
(-0.0793018 0.0124494 0)
(-0.0859255 0.0133518 0)
(-0.0929757 0.0142869 0)
(-0.100458 0.0152445 0)
(-0.108371 0.0162114 0)
(-0.116705 0.0171718 0)
(-0.125442 0.0181064 0)
(-0.13455 0.0189923 0)
(-0.143988 0.0198034 0)
(-0.153699 0.0205098 0)
(-0.163612 0.0210785 0)
(-0.17364 0.0214731 0)
(-0.18368 0.0216551 0)
(-0.193611 0.0215841 0)
(-0.203298 0.0212191 0)
(-0.21259 0.0205196 0)
(-0.221323 0.0194473 0)
(-0.22932 0.017968 0)
(-0.236397 0.0160533 0)
(-0.242368 0.0136834 0)
(-0.247044 0.010849 0)
(-0.250241 0.00755433 0)
(-0.25179 0.00381931 0)
(-0.251535 -0.00031561 0)
(-0.249344 -0.00479332 0)
(-0.245118 -0.00953422 0)
(-0.238797 -0.0144341 0)
(-0.230364 -0.0193671 0)
(-0.219856 -0.0241867 0)
(-0.207366 -0.0287293 0)
(-0.193053 -0.0328198 0)
(-0.177142 -0.0362796 0)
(-0.159924 -0.0389363 0)
(-0.141757 -0.0406356 0)
(-0.123053 -0.0412542 0)
(-0.104272 -0.0407129 0)
(-0.0858998 -0.0389874 0)
(-0.0684297 -0.0361178 0)
(-0.0523327 -0.0322123 0)
(-0.0380296 -0.0274484 0)
(-0.0258608 -0.02207 0)
(-0.0160563 -0.0163847 0)
(-0.00871012 -0.0107673 0)
(-0.00375674 -0.00567586 0)
(-0.000963642 -0.00168585 0)
(3.16551e-05 0.000411489 0)
(1.4252e-05 -0.000229802 0)
(-3.78852e-05 -0.000184258 0)
(-0.000280991 0.000184777 0)
(-0.000764381 0.000735438 0)
(-0.00151555 0.00136928 0)
(-0.00253996 0.00201886 0)
(-0.00382885 0.00264181 0)
(-0.00536482 0.00321488 0)
(-0.00712638 0.0037288 0)
(-0.00909141 0.00418413 0)
(-0.0112398 0.00458787 0)
(-0.0135549 0.00495088 0)
(-0.0160249 0.00528596 0)
(-0.0186428 0.00560645 0)
(-0.0214069 0.00592534 0)
(-0.0243202 0.00625471 0)
(-0.0273902 0.00660539 0)
(-0.0306285 0.00698688 0)
(-0.0340499 0.00740739 0)
(-0.0376724 0.00787387 0)
(-0.0415162 0.00839213 0)
(-0.0456037 0.00896697 0)
(-0.0499587 0.00960222 0)
(-0.0546059 0.0103007 0)
(-0.0595708 0.0110644 0)
(-0.0648786 0.0118941 0)
(-0.0705539 0.0127894 0)
(-0.0766203 0.0137485 0)
(-0.0830988 0.0147678 0)
(-0.0900078 0.0158417 0)
(-0.0973613 0.0169625 0)
(-0.105169 0.0181196 0)
(-0.113432 0.0192994 0)
(-0.122146 0.0204848 0)
(-0.131296 0.0216552 0)
(-0.140857 0.0227857 0)
(-0.150792 0.0238475 0)
(-0.161049 0.0248075 0)
(-0.171563 0.0256284 0)
(-0.182251 0.0262691 0)
(-0.193017 0.0266853 0)
(-0.203744 0.02683 0)
(-0.214303 0.0266547 0)
(-0.224545 0.0261106 0)
(-0.234311 0.0251504 0)
(-0.243426 0.0237298 0)
(-0.251707 0.0218102 0)
(-0.258964 0.0193606 0)
(-0.265007 0.0163605 0)
(-0.269644 0.0128027 0)
(-0.272695 0.00869587 0)
(-0.273989 0.00406763 0)
(-0.273374 -0.00103169 0)
(-0.270724 -0.0065305 0)
(-0.265944 -0.0123315 0)
(-0.258976 -0.0183097 0)
(-0.249807 -0.0243151 0)
(-0.238475 -0.0301735 0)
(-0.225077 -0.0356908 0)
(-0.209771 -0.0406594 0)
(-0.192784 -0.0448668 0)
(-0.174409 -0.0481073 0)
(-0.155009 -0.0501952 0)
(-0.135005 -0.0509806 0)
(-0.114871 -0.0503647 0)
(-0.095112 -0.0483139 0)
(-0.0762462 -0.0448707 0)
(-0.0587736 -0.0401608 0)
(-0.0431473 -0.0343942 0)
(-0.0297398 -0.0278628 0)
(-0.0188125 -0.0209367 0)
(-0.0104882 -0.0140649 0)
(-0.00472783 -0.00778757 0)
(-0.00133478 -0.00276346 0)
(2.34258e-06 0.000142242 0)
(9.40053e-06 -0.000216681 0)
(-0.000102695 -8.95641e-05 0)
(-0.000452367 0.000396162 0)
(-0.0010792 0.00108211 0)
(-0.00200334 0.00185794 0)
(-0.00322552 0.00264774 0)
(-0.0047333 0.00340364 0)
(-0.00650652 0.00409939 0)
(-0.00852167 0.00472468 0)
(-0.0107552 0.00528052 0)
(-0.013186 0.0057754 0)
(-0.0157969 0.00622233 0)
(-0.0185758 0.0066366 0)
(-0.021516 0.00703416 0)
(-0.0246159 0.00743057 0)
(-0.0278794 0.00784028 0)
(-0.0313147 0.00827628 0)
(-0.0349344 0.00875 0)
(-0.0387546 0.00927126 0)
(-0.0427943 0.00984839 0)
(-0.0470754 0.0104883 0)
(-0.0516213 0.0111967 0)
(-0.0564573 0.0119781 0)
(-0.0616093 0.0128355 0)
(-0.0671037 0.0137711 0)
(-0.0729666 0.0147854 0)
(-0.0792231 0.0158774 0)
(-0.0858966 0.0170443 0)
(-0.0930078 0.0182812 0)
(-0.100574 0.0195806 0)
(-0.108607 0.0209321 0)
(-0.117114 0.022322 0)
(-0.126093 0.023733 0)
(-0.135535 0.0251435 0)
(-0.145419 0.0265274 0)
(-0.155714 0.0278541 0)
(-0.166374 0.0290879 0)
(-0.177341 0.0301884 0)
(-0.188538 0.0311106 0)
(-0.199876 0.0318051 0)
(-0.211246 0.0322193 0)
(-0.222524 0.0322979 0)
(-0.233569 0.0319844 0)
(-0.244226 0.0312229 0)
(-0.254327 0.0299595 0)
(-0.263693 0.028145 0)
(-0.272136 0.0257371 0)
(-0.279466 0.0227033 0)
(-0.28549 0.0190236 0)
(-0.290023 0.0146933 0)
(-0.292884 0.00972681 0)
(-0.293909 0.00415972 0)
(-0.292951 -0.00194717 0)
(-0.289889 -0.00850798 0)
(-0.28463 -0.0154081 0)
(-0.277121 -0.0225024 0)
(-0.267349 -0.0296173 0)
(-0.255351 -0.0365517 0)
(-0.241219 -0.0430818 0)
(-0.225107 -0.0489676 0)
(-0.207236 -0.0539625 0)
(-0.187896 -0.0578263 0)
(-0.167448 -0.0603405 0)
(-0.146318 -0.0613263 0)
(-0.124986 -0.0606624 0)
(-0.103975 -0.0583025 0)
(-0.0838242 -0.0542892 0)
(-0.065062 -0.0487632 0)
(-0.0481741 -0.0419659 0)
(-0.0335682 -0.034237 0)
(-0.0215404 -0.0260094 0)
(-0.0122477 -0.0178069 0)
(-0.00568387 -0.010251 0)
(-0.0016948 -0.00407959 0)
(-2.3827e-05 -0.00022158 0)
(4.22855e-06 -0.000186112 0)
(-0.000172982 4.94016e-05 0)
(-0.000638302 0.000672863 0)
(-0.00142001 0.00151098 0)
(-0.00252954 0.00244254 0)
(-0.00396195 0.00338393 0)
(-0.00570036 0.0042824 0)
(-0.00772135 0.00510914 0)
(-0.0099991 0.00585321 0)
(-0.0125085 0.00651634 0)
(-0.0152273 0.00710876 0)
(-0.018138 0.00764584 0)
(-0.0212282 0.00814553 0)
(-0.0244914 0.00862654 0)
(-0.0279265 0.00910708 0)
(-0.0315379 0.00960412 0)
(-0.0353347 0.0101329 0)
(-0.0393304 0.0107068 0)
(-0.043542 0.0113373 0)
(-0.0479899 0.0120343 0)
(-0.0526969 0.0128056 0)
(-0.0576875 0.0136579 0)
(-0.062988 0.0145962 0)
(-0.0686252 0.0156239 0)
(-0.074626 0.0167431 0)
(-0.0810169 0.0179538 0)
(-0.0878231 0.0192544 0)
(-0.0950673 0.0206408 0)
(-0.102769 0.0221063 0)
(-0.110945 0.0236413 0)
(-0.119603 0.0252324 0)
(-0.128748 0.0268624 0)
(-0.138373 0.0285097 0)
(-0.148466 0.0301476 0)
(-0.158998 0.0317445 0)
(-0.169933 0.033263 0)
(-0.181217 0.0346607 0)
(-0.192783 0.0358893 0)
(-0.204548 0.0368958 0)
(-0.216411 0.0376226 0)
(-0.228258 0.0380088 0)
(-0.239955 0.0379911 0)
(-0.251355 0.0375055 0)
(-0.262298 0.0364893 0)
(-0.27261 0.0348832 0)
(-0.282112 0.0326339 0)
(-0.290615 0.0296965 0)
(-0.29793 0.0260378 0)
(-0.30387 0.0216392 0)
(-0.308253 0.0164996 0)
(-0.310905 0.0106391 0)
(-0.311669 0.00410176 0)
(-0.310404 -0.00304121 0)
(-0.306993 -0.0106903 0)
(-0.301348 -0.0187145 0)
(-0.293415 -0.0269499 0)
(-0.283179 -0.0352002 0)
(-0.27067 -0.043239 0)
(-0.255974 -0.0508135 0)
(-0.239234 -0.0576521 0)
(-0.220661 -0.0634738 0)
(-0.200533 -0.0680033 0)
(-0.179206 -0.0709872 0)
(-0.157102 -0.0722149 0)
(-0.134707 -0.0715393 0)
(-0.112557 -0.0688978 0)
(-0.0912113 -0.0643296 0)
(-0.0712271 -0.0579873 0)
(-0.0531243 -0.0501417 0)
(-0.0373485 -0.0411793 0)
(-0.0242355 -0.031596 0)
(-0.0139815 -0.02199 0)
(-0.00661925 -0.0130632 0)
(-0.00204126 -0.00563005 0)
(-4.68623e-05 -0.000675897 0)
(-1.18462e-06 -0.000136837 0)
(-0.000247886 0.000235991 0)
(-0.00083682 0.0010197 0)
(-0.00178362 0.00202769 0)
(-0.0030898 0.00312901 0)
(-0.00474384 0.00423323 0)
(-0.0067237 0.00528343 0)
(-0.0090022 0.00624884 0)
(-0.0115508 0.0071183 0)
(-0.0143427 0.00789467 0)
(-0.0173545 0.0085902 0)
(-0.0205682 0.00922282 0)
(-0.0239713 0.00981333 0)
(-0.0275573 0.0103833 0)
(-0.0313257 0.0109538 0)
(-0.0352814 0.0115444 0)
(-0.0394344 0.0121725 0)
(-0.0437989 0.0128537 0)
(-0.0483929 0.013601 0)
(-0.0532376 0.0144258 0)
(-0.0583567 0.0153371 0)
(-0.0637756 0.0163423 0)
(-0.0695212 0.0174469 0)
(-0.0756208 0.0186545 0)
(-0.0821017 0.0199669 0)
(-0.0889901 0.0213839 0)
(-0.0963106 0.0229025 0)
(-0.104085 0.0245174 0)
(-0.112332 0.0262197 0)
(-0.121065 0.0279973 0)
(-0.13029 0.0298335 0)
(-0.140007 0.0317072 0)
(-0.150207 0.0335919 0)
(-0.16087 0.0354557 0)
(-0.171963 0.0372608 0)
(-0.183442 0.0389631 0)
(-0.195246 0.0405126 0)
(-0.207302 0.0418535 0)
(-0.219519 0.0429244 0)
(-0.231789 0.0436598 0)
(-0.243989 0.0439906 0)
(-0.255982 0.0438461 0)
(-0.267616 0.0431554 0)
(-0.278727 0.04185 0)
(-0.289142 0.039866 0)
(-0.298681 0.0371468 0)
(-0.30716 0.0336462 0)
(-0.314394 0.029331 0)
(-0.320203 0.0241849 0)
(-0.324411 0.0182109 0)
(-0.326855 0.011435 0)
(-0.327383 0.00390941 0)
(-0.325862 -0.00428469 0)
(-0.322179 -0.0130353 0)
(-0.316249 -0.0221964 0)
(-0.308014 -0.0315867 0)
(-0.297455 -0.0409894 0)
(-0.284592 -0.050154 0)
(-0.269498 -0.0588003 0)
(-0.252301 -0.0666256 0)
(-0.233194 -0.0733148 0)
(-0.212443 -0.078556 0)
(-0.19039 -0.0820591 0)
(-0.16745 -0.0835786 0)
(-0.144112 -0.0829378 0)
(-0.12092 -0.0800534 0)
(-0.0984549 -0.0749566 0)
(-0.0773021 -0.0678083 0)
(-0.0580188 -0.0589058 0)
(-0.0410922 -0.0486811 0)
(-0.0269025 -0.0376919 0)
(-0.0156911 -0.0266114 0)
(-0.00753412 -0.0162212 0)
(-0.00237457 -0.00741003 0)
(-6.71326e-05 -0.00121655 0)
(-6.79024e-06 -6.77924e-05 0)
(-0.000326764 0.000473126 0)
(-0.00104635 0.00144095 0)
(-0.0021674 0.00263734 0)
(-0.00368044 0.00392276 0)
(-0.00556651 0.00520095 0)
(-0.00779771 0.00641165 0)
(-0.0103426 0.00752277 0)
(-0.0131696 0.00852351 0)
(-0.0162498 0.00941824 0)
(-0.0195589 0.0102216 0)
(-0.0230779 0.0109542 0)
(-0.0267944 0.0116401 0)
(-0.030702 0.0123038 0)
(-0.0348006 0.0129692 0)
(-0.0390957 0.0136585 0)
(-0.0435979 0.0143916 0)
(-0.0483222 0.015186 0)
(-0.0532875 0.0160567 0)
(-0.0585155 0.0170162 0)
(-0.0640305 0.0180746 0)
(-0.0698587 0.0192402 0)
(-0.0760272 0.0205188 0)
(-0.0825635 0.0219141 0)
(-0.0894947 0.0234276 0)
(-0.0968466 0.0250583 0)
(-0.104643 0.026802 0)
(-0.112904 0.0286516 0)
(-0.121647 0.030596 0)
(-0.130881 0.0326201 0)
(-0.140611 0.0347035 0)
(-0.150832 0.0368208 0)
(-0.161531 0.0389406 0)
(-0.172681 0.0410252 0)
(-0.184244 0.0430301 0)
(-0.196171 0.0449045 0)
(-0.208394 0.0465907 0)
(-0.220832 0.0480251 0)
(-0.233388 0.0491385 0)
(-0.245949 0.0498573 0)
(-0.258387 0.0501051 0)
(-0.270562 0.0498041 0)
(-0.282318 0.0488775 0)
(-0.293494 0.0472519 0)
(-0.303916 0.0448597 0)
(-0.31341 0.0416423 0)
(-0.321796 0.0375527 0)
(-0.328899 0.032559 0)
(-0.334547 0.0266475 0)
(-0.338573 0.0198255 0)
(-0.340823 0.012125 0)
(-0.341155 0.0036056 0)
(-0.33944 -0.00564248 0)
(-0.335572 -0.0154961 0)
(-0.329462 -0.0257965 0)
(-0.321051 -0.0363464 0)
(-0.310309 -0.0469108 0)
(-0.297245 -0.0572173 0)
(-0.281912 -0.0669597 0)
(-0.264421 -0.0758049 0)
(-0.244943 -0.0834041 0)
(-0.223724 -0.0894077 0)
(-0.201087 -0.0934865 0)
(-0.17744 -0.0953567 0)
(-0.153266 -0.0948074 0)
(-0.129119 -0.0917296 0)
(-0.105599 -0.0861413 0)
(-0.0833207 -0.0782071 0)
(-0.062882 -0.0682474 0)
(-0.044816 -0.0567372 0)
(-0.0295525 -0.0442956 0)
(-0.017383 -0.0316702 0)
(-0.00843258 -0.0197224 0)
(-0.00269697 -0.00941523 0)
(-8.51823e-05 -0.00183987 0)
(-1.25596e-05 2.1944e-05 0)
(-0.000409134 0.00076339 0)
(-0.00126566 0.00194045 0)
(-0.0025692 0.00334451 0)
(-0.00429834 0.00482869 0)
(-0.00642587 0.00629194 0)
(-0.00891738 0.00767153 0)
(-0.0117366 0.00893484 0)
(-0.0148486 0.010072 0)
(-0.0182223 0.0110893 0)
(-0.0218318 0.0120043 0)
(-0.0256576 0.0128406 0)
(-0.029687 0.0136254 0)
(-0.0339138 0.0143865 0)
(-0.0383383 0.0151507 0)
(-0.0429664 0.015943 0)
(-0.0478094 0.0167858 0)
(-0.0528828 0.0176984 0)
(-0.0582061 0.0186976 0)
(-0.0638016 0.0197973 0)
(-0.0696941 0.0210088 0)
(-0.07591 0.0223407 0)
(-0.0824764 0.0237992 0)
(-0.0894206 0.0253882 0)
(-0.0967694 0.0271084 0)
(-0.104548 0.0289579 0)
(-0.112778 0.0309313 0)
(-0.121478 0.0330192 0)
(-0.130664 0.0352081 0)
(-0.140341 0.0374794 0)
(-0.150511 0.039809 0)
(-0.161165 0.0421667 0)
(-0.172283 0.0445158 0)
(-0.183836 0.0468124 0)
(-0.19578 0.0490057 0)
(-0.208058 0.0510375 0)
(-0.220597 0.0528427 0)
(-0.233312 0.0543499 0)
(-0.246098 0.0554823 0)
(-0.258841 0.056159 0)
(-0.271408 0.0562965 0)
(-0.283658 0.0558111 0)
(-0.295438 0.0546208 0)
(-0.306585 0.0526483 0)
(-0.316933 0.0498235 0)
(-0.326312 0.0460864 0)
(-0.334554 0.0413907 0)
(-0.341491 0.035706 0)
(-0.346962 0.0290216 0)
(-0.350812 0.0213491 0)
(-0.352895 0.012726 0)
(-0.353079 0.00321838 0)
(-0.351241 -0.00707564 0)
(-0.347276 -0.0180238 0)
(-0.341095 -0.0294563 0)
(-0.332631 -0.0411628 0)
(-0.321843 -0.0528922 0)
(-0.308725 -0.0643521 0)
(-0.293308 -0.0752124 0)
(-0.275679 -0.0851109 0)
(-0.255985 -0.0936648 0)
(-0.234444 -0.100486 0)
(-0.211361 -0.105204 0)
(-0.187126 -0.107492 0)
(-0.162219 -0.107101 0)
(-0.137197 -0.10389 0)
(-0.11268 -0.0978586 0)
(-0.0893142 -0.0891684 0)
(-0.0677394 -0.078159 0)
(-0.0485397 -0.0653457 0)
(-0.0321998 -0.0514077 0)
(-0.0190675 -0.037167 0)
(-0.00932118 -0.0235659 0)
(-0.00301182 -0.0116426 0)
(-0.000101633 -0.00254306 0)
(-1.84768e-05 0.000133191 0)
(-0.000494634 0.00110909 0)
(-0.00149375 0.00252164 0)
(-0.00298722 0.00415334 0)
(-0.00494082 0.00585122 0)
(-0.00731834 0.00751054 0)
(-0.0100782 0.00906708 0)
(-0.0131789 0.0104885 0)
(-0.0165816 0.0117664 0)
(-0.0202528 0.0129098 0)
(-0.0241651 0.0139392 0)
(-0.0282982 0.0148819 0)
(-0.032639 0.0157682 0)
(-0.0371814 0.0166294 0)
(-0.041926 0.0174955 0)
(-0.0468793 0.018394 0)
(-0.0520528 0.0193498 0)
(-0.0574628 0.0203844 0)
(-0.063129 0.0215161 0)
(-0.0690742 0.0227602 0)
(-0.0753233 0.0241288 0)
(-0.0819027 0.0256313 0)
(-0.0888393 0.0272741 0)
(-0.09616 0.0290606 0)
(-0.103891 0.0309911 0)
(-0.112055 0.0330624 0)
(-0.120674 0.0352673 0)
(-0.129763 0.0375944 0)
(-0.139336 0.0400272 0)
(-0.149394 0.0425436 0)
(-0.159937 0.0451151 0)
(-0.170949 0.0477068 0)
(-0.182409 0.0502762 0)
(-0.194279 0.0527734 0)
(-0.206512 0.0551407 0)
(-0.219046 0.0573128 0)
(-0.231802 0.0592172 0)
(-0.24469 0.0607751 0)
(-0.257604 0.0619026 0)
(-0.270424 0.0625118 0)
(-0.28302 0.0625132 0)
(-0.295249 0.061818 0)
(-0.30696 0.0603399 0)
(-0.317998 0.0579988 0)
(-0.328202 0.0547231 0)
(-0.337412 0.0504525 0)
(-0.345469 0.0451417 0)
(-0.352217 0.0387626 0)
(-0.357507 0.0313076 0)
(-0.361195 0.0227924 0)
(-0.363147 0.0132589 0)
(-0.363237 0.00277879 0)
(-0.361348 -0.00854353 0)
(-0.357376 -0.0205687 0)
(-0.351229 -0.0331183 0)
(-0.342833 -0.0459715 0)
(-0.332132 -0.0588635 0)
(-0.319099 -0.0714846 0)
(-0.303746 -0.0834825 0)
(-0.286129 -0.0944675 0)
(-0.266366 -0.104023 0)
(-0.244647 -0.111721 0)
(-0.22125 -0.117148 0)
(-0.196546 -0.119931 0)
(-0.171004 -0.119775 0)
(-0.145186 -0.116503 0)
(-0.119728 -0.110086 0)
(-0.0953094 -0.100679 0)
(-0.0726147 -0.0886357 0)
(-0.0522833 -0.074507 0)
(-0.0348607 -0.0590311 0)
(-0.0207567 -0.0431048 0)
(-0.0102078 -0.0277527 0)
(-0.00332297 -0.0140908 0)
(-0.000117109 -0.00332447 0)
(-2.45343e-05 0.000266692 0)
(-0.000582994 0.00151231 0)
(-0.00172983 0.00318763 0)
(-0.00341999 0.0050676 0)
(-0.00560561 0.00699438 0)
(-0.00824079 0.0088607 0)
(-0.0112762 0.0106018 0)
(-0.0146644 0.0121866 0)
(-0.0183628 0.013609 0)
(-0.0223347 0.0148811 0)
(-0.0265511 0.0160269 0)
(-0.0309907 0.0170775 0)