/*--------------------------------*- C++ -*----------------------------------*\
  =========                 |
  \\      /  F ield         | OpenFOAM: The Open Source CFD Toolbox
   \\    /   O peration     | Website:  https://openfoam.org
    \\  /    A nd           | Version:  12
     \\/     M anipulation  |
\*---------------------------------------------------------------------------*/
FoamFile
{
    format      ascii;
    class       volScalarField;
    location    "0.3";
    object      nut;
}
// * * * * * * * * * * * * * * * * * * * * * * * * * * * * * * * * * * * * * //

dimensions      [0 2 -1 0 0 0 0];

internalField   nonuniform List<scalar> 
900
(
1.50991e-21
1.01584e-20
2.21517e-20
3.57074e-20
4.98141e-20
6.37372e-20
7.69041e-20
8.8867e-20
9.9287e-20
1.07924e-19
1.14624e-19
1.19311e-19
1.21954e-19
1.22645e-19
1.21484e-19
1.18584e-19
1.141e-19
1.08206e-19
1.0109e-19
9.29414e-20
8.39525e-20
7.43136e-20
6.42144e-20
5.38477e-20
4.34179e-20
3.3152e-20
2.33184e-20
1.426e-20
6.47767e-21
1.11022e-21
4.55102e-20
1.49563e-18
3.65613e-18
6.02852e-18
8.47191e-18
1.08728e-17
1.31382e-17
1.51936e-17
1.69823e-17
1.84638e-17
1.96125e-17
2.04156e-17
2.08675e-17
2.09851e-17
2.07854e-17
2.02879e-17
1.95189e-17
1.85085e-17
1.72888e-17
1.58924e-17
1.43519e-17
1.26998e-17
1.09681e-17
9.18928e-18
7.39749e-18
5.63022e-18
3.93053e-18
2.34951e-18
9.52222e-19
2.89341e-20
9.56499e-20
7.84022e-18
2.4287e-17
4.25419e-17
6.10344e-17
7.90161e-17
9.58776e-17
1.11117e-16
1.24345e-16
1.35281e-16
1.43749e-16
1.49662e-16
1.52978e-16
1.53836e-16
1.52361e-16
1.48696e-16
1.43035e-16
1.35602e-16
1.26628e-16
1.16354e-16
1.05015e-16
9.28438e-17
8.0069e-17
6.69186e-17
5.36281e-17
4.0448e-17
2.76515e-17
1.55613e-17
4.98093e-18
6.06803e-20
1.54115e-19
1.79471e-17
6.99935e-17
1.33366e-16
1.9765e-16
2.59562e-16
3.17161e-16
3.68936e-16
4.13708e-16
4.50629e-16
4.79168e-16
4.99079e-16
5.10227e-16
5.13121e-16
5.08194e-16
4.95916e-16
4.76949e-16
4.52034e-16
4.21946e-16
3.87472e-16
3.49387e-16
3.08443e-16
2.65368e-16
2.20879e-16
1.75696e-16
1.30574e-16
8.63898e-17
4.47012e-17
1.13695e-17
9.74279e-20
2.17894e-19
2.95469e-17
1.36344e-16
2.82952e-16
4.35639e-16
5.82434e-16
7.18143e-16
8.3944e-16
9.43887e-16
1.02976e-15
1.09601e-15
1.14219e-15
1.16804e-15
1.17482e-15
1.16356e-15
1.13533e-15
1.09168e-15
1.03428e-15
9.64919e-16
8.85358e-16
7.97334e-16
7.02511e-16
6.02478e-16
4.98767e-16
3.92924e-16
2.8666e-16
1.82509e-16
8.66929e-17
1.86358e-17
1.37084e-19
2.84424e-19
4.15569e-17
2.1447e-16
4.79087e-16
7.66062e-16
1.04395e-15
1.30012e-15
1.52803e-15
1.72348e-15
1.88367e-15
2.00699e-15
2.09287e-15
2.14094e-15
2.15368e-15
2.13307e-15
2.08107e-15
2.00053e-15
1.89454e-15
1.76631e-15
1.61906e-15
1.45588e-15
1.27973e-15
1.09341e-15
8.99586e-16
7.01072e-16
5.0144e-16
3.07267e-16
1.35562e-16
2.60501e-17
1.77855e-19
3.5154e-19
5.34975e-17
2.97108e-16
7.03542e-16
1.16393e-15
1.61549e-15
2.03206e-15
2.40153e-15
2.71724e-15
2.97522e-15
3.17337e-15
3.3112e-15
3.3883e-15
3.40889e-15
3.37619e-15
3.29335e-15
3.16488e-15
2.99567e-15
2.79077e-15
2.55519e-15
2.29378e-15
2.01107e-15
1.71138e-15
1.39893e-15
1.07841e-15
7.56657e-16
4.47879e-16
1.86393e-16
3.32765e-17
2.18223e-19
4.17332e-19
6.50644e-17
3.79412e-16
9.39251e-16
1.59912e-15
2.2566e-15
2.86479e-15
3.40327e-15
3.86207e-15
4.23593e-15
4.52243e-15
4.72137e-15
4.8325e-15
4.86218e-15
4.81517e-15
4.69598e-15
4.51107e-15
4.26741e-15
3.97216e-15
3.63241e-15
3.25497e-15
2.84627e-15
2.41241e-15
1.95952e-15
1.49499e-15
1.03084e-15
5.92482e-16
2.35879e-16
4.01034e-17
2.5687e-19
4.80072e-19
7.60017e-17
4.58133e-16
1.17248e-15
2.04324e-15
2.92427e-15
3.74282e-15
4.46708e-15
5.08262e-15
5.58279e-15
5.96515e-15
6.23009e-15
6.37768e-15
6.41677e-15
6.35381e-15
6.19477e-15
5.94825e-15
5.62341e-15
5.22965e-15
4.77629e-15
4.27228e-15
3.72611e-15
3.14593e-15
2.54024e-15
1.92001e-15
1.30413e-15
7.31726e-16
2.81845e-16
4.63603e-17
2.92644e-19
5.38183e-19
8.60722e-17
5.30894e-16
1.39262e-15
2.47184e-15
3.57897e-15
4.61225e-15
5.5263e-15
6.30155e-15
6.9299e-15
7.40901e-15
7.74017e-15
7.92389e-15
7.97175e-15
7.89185e-15
7.69173e-15
7.38207e-15
6.97425e-15
6.47991e-15
5.91063e-15
5.27758e-15
4.59143e-15
3.8626e-15
3.10233e-15
2.32585e-15
1.56008e-15
8.58729e-16
3.22783e-16
5.18992e-17
3.24544e-19
5.90236e-19
9.50538e-17
5.95804e-16
1.59139e-15
2.86478e-15
4.18619e-15
5.42448e-15
6.5198e-15
7.44705e-15
8.19672e-15
8.76683e-15
9.15971e-15
9.37653e-15
9.4316e-15
9.33451e-15
9.09432e-15
8.7237e-15
8.23608e-15
7.64522e-15
6.96487e-15
6.20841e-15
5.38874e-15
4.51866e-15
3.6124e-15
2.68975e-15
1.7859e-15
9.68528e-16
3.57597e-16
5.65929e-17
3.5172e-19
6.34953e-19
1.02743e-16
6.51276e-16
1.76221e-15
3.20569e-15
4.71701e-15
6.13774e-15
7.39412e-15
8.45575e-15
9.31194e-15
9.96124e-15
1.04072e-14
1.06518e-14
1.07118e-14
1.05981e-14
1.03211e-14
9.8952e-15
9.33564e-15
8.65806e-15
7.8782e-15
7.01148e-15
6.073e-15
5.07795e-15
4.04354e-15
2.99398e-15
1.97211e-15
1.0576e-15
3.85477e-16
6.03368e-17
3.73485e-19
6.71225e-19
1.0896e-16
6.95941e-16
1.89983e-15
3.48146e-15
5.14785e-15
6.71755e-15
8.10476e-15
9.27465e-15
1.02158e-14
1.09275e-14
1.14145e-14
1.16797e-14
1.1742e-14
1.16131e-14
1.13047e-14
1.08324e-14
1.0213e-14
9.46355e-15
8.60156e-15
7.64429e-15
6.60881e-15
5.51257e-15
4.37548e-15
3.22563e-15
2.11202e-15
1.12355e-15
4.05849e-16
6.3052e-17
3.89319e-19
6.98123e-19
1.13552e-16
7.28658e-16
2.00006e-15
3.68186e-15
5.46031e-15
7.1368e-15
8.61667e-15
9.86204e-15
1.08613e-14
1.16148e-14
1.21284e-14
1.2406e-14
1.24678e-14
1.23261e-14
1.19934e-14
1.14864e-14
1.08227e-14
1.00205e-14
9.09861e-15
8.07573e-15
6.97064e-15
5.80266e-15
4.59403e-15
3.3758e-15
2.20116e-15
1.16477e-15
4.18312e-16
6.46812e-17
3.98858e-19
7.14919e-19
1.16396e-16
7.48525e-16
2.05974e-15
3.79932e-15
5.64092e-15
7.37584e-15
8.90457e-15
1.01881e-14
1.12153e-14
1.19875e-14
1.25119e-14
1.27929e-14
1.28518e-14
1.27005e-14
1.23524e-14
1.18242e-14
1.11342e-14
1.03012e-14
9.34475e-15
8.28475e-15
7.14131e-15
5.93533e-15
4.69054e-15
3.43952e-15
2.2373e-15
1.18058e-15
4.22745e-16
6.52066e-17
4.01961e-19
7.21098e-19
1.17404e-16
7.54887e-16
2.07665e-15
3.82885e-15
5.68115e-15
7.42256e-15
8.95331e-15
1.02352e-14
1.12585e-14
1.20256e-14
1.25443e-14
1.28202e-14
1.28738e-14
1.27171e-14
1.23636e-14
1.18298e-14
1.11337e-14
1.02943e-14
9.33158e-15
8.26578e-15
7.11772e-15
5.90912e-15
4.66454e-15
3.417e-15
2.22095e-15
1.17134e-15
4.19274e-16
6.46405e-17
3.98668e-19
7.16402e-19
1.16533e-16
7.47469e-16
2.05005e-15
3.76908e-15
5.57898e-15
7.27448e-15
8.76013e-15
1.00007e-14
1.09884e-14
1.17267e-14
1.22238e-14
1.2486e-14
1.25326e-14
1.2375e-14
1.20264e-14
1.15027e-14
1.08213e-14
1.00005e-14
9.05985e-15
8.01964e-15
6.9008e-15
5.72523e-15
4.51744e-15
3.30946e-15
2.15294e-15
1.13752e-15
4.0807e-16
6.30094e-17
3.89141e-19
7.0074e-19
1.13761e-16
7.26038e-16
1.97927e-15
3.61915e-15
5.33404e-15
6.93247e-15
8.32786e-15
9.48976e-15
1.04125e-14
1.11006e-14
1.15622e-14
1.18039e-14
1.1843e-14
1.169e-14
1.13571e-14
1.08594e-14
1.02128e-14
9.43469e-15
8.54372e-15
7.55942e-15
6.50219e-15
5.39343e-15
4.25675e-15
3.12205e-15
2.03616e-15
1.08047e-15
3.89532e-16
6.03715e-17
3.73719e-19
6.74209e-19
1.09091e-16
6.90678e-16
1.86522e-15
3.38249e-15
4.95411e-15
6.40967e-15
7.67506e-15
8.72577e-15
9.55853e-15
1.01782e-14
1.05925e-14
1.08083e-14
1.08398e-14
1.06965e-14
1.03895e-14
9.9322e-15
9.33895e-15
8.62562e-15
7.80934e-15
6.90834e-15
5.9418e-15
4.92993e-15
3.89469e-15
2.86289e-15
1.87512e-15
1.00204e-15
3.6422e-16
5.68084e-17
3.52892e-19
6.37295e-19
1.02604e-16
6.4202e-16
1.71059e-15
3.0666e-15
4.45375e-15
5.72858e-15
6.83191e-15
7.74576e-15
8.46893e-15
9.0063e-15
9.36469e-15
9.55062e-15
9.57494e-15
9.44631e-15
9.17398e-15
8.76941e-15
8.24516e-15
7.61512e-15
6.89445e-15
6.09952e-15
5.2477e-15
4.35734e-15
3.44811e-15
2.54315e-15
1.67591e-15
9.04648e-16
3.32826e-16
5.24221e-17
3.27277e-19
5.90693e-19
9.44042e-17
5.80945e-16
1.51934e-15
2.68244e-15
3.85388e-15
4.92105e-15
5.84058e-15
6.60072e-15
7.20182e-15
7.64829e-15
7.94565e-15
8.09958e-15
8.11781e-15
8.00795e-15
7.77687e-15
7.4343e-15
6.99064e-15
6.45751e-15
5.84779e-15
5.17552e-15
4.45575e-15
3.70443e-15
2.93851e-15
2.17708e-15
1.4463e-15
7.91347e-16
2.96166e-16
4.73309e-17
2.97604e-19
5.35357e-19
8.46389e-17
5.08762e-16
1.29732e-15
2.24566e-15
3.18329e-15
4.02948e-15
4.75582e-15
5.3557e-15
5.8303e-15
6.18312e-15
6.41821e-15
6.53984e-15
6.5533e-15
6.46497e-15
6.2791e-15
6.00377e-15
5.64715e-15
5.21848e-15
4.72811e-15
4.18749e-15
3.60903e-15
3.00588e-15
2.3919e-15
1.78216e-15
1.19603e-15
6.65918e-16
2.55182e-16
4.16651e-17
2.64689e-19
4.72519e-19
7.35006e-17
4.27246e-16
1.05294e-15
1.77758e-15
2.47924e-15
3.10679e-15
3.64412e-15
4.08822e-15
4.4403e-15
4.70271e-15
4.87802e-15
4.96902e-15
4.97901e-15
4.91304e-15
4.77314e-15
4.56569e-15
4.29671e-15
3.97307e-15
3.6026e-15
3.19404e-15
2.75693e-15
2.30147e-15
1.83838e-15
1.37916e-15
9.36995e-16
5.33146e-16
2.10973e-16
3.5562e-17
2.29418e-19
4.0371e-19
6.12289e-17
3.38923e-16
7.97978e-16
1.306e-15
1.7874e-15
2.2149e-15
2.58091e-15
2.88436e-15
3.12592e-15
3.30677e-15
3.42823e-15
3.4918e-15
3.49933e-15
3.45446e-15
3.35776e-15
3.21382e-15
3.02678e-15
2.80135e-15
2.54297e-15
2.25781e-15
1.95262e-15
1.6347e-15
1.31173e-15
9.91698e-16
6.83408e-16
3.99204e-16
1.64903e-16
2.91616e-17
1.92723e-19
3.30803e-19
4.81207e-17
2.4754e-16
5.48646e-16
8.6523e-16
1.15958e-15
1.42025e-15
1.64415e-15
1.83078e-15
1.9803e-15
2.09302e-15
2.16935e-15
2.2099e-15
2.21554e-15
2.18857e-15
2.12891e-15
2.03942e-15
1.92269e-15
1.78163e-15
1.61964e-15
1.44062e-15
1.24887e-15
1.04906e-15
8.46159e-16
6.45275e-16
4.51707e-16
2.71971e-16
1.18818e-16
2.26047e-17
1.55578e-19
2.56098e-19
3.45681e-17
1.58933e-16
3.26082e-16
4.93301e-16
6.47026e-16
7.835e-16
9.01634e-16
1.00096e-15
1.08122e-15
1.14226e-15
1.18407e-15
1.20677e-15
1.21067e-15
1.19702e-15
1.16558e-15
1.11783e-15
1.0552e-15
9.79234e-16
8.91771e-16
7.94919e-16
6.91033e-16
5.82689e-16
4.72641e-16
3.6375e-16
2.58899e-16
1.61134e-16
7.54328e-17
1.60482e-17
1.19e-19
1.82479e-19
2.11892e-17
8.21398e-17
1.53865e-16
2.23208e-16
2.87014e-16
3.44258e-16
3.94374e-16
4.36955e-16
4.71698e-16
4.98392e-16
5.16917e-16
5.27251e-16
5.29462e-16
5.24077e-16
5.10962e-16
4.90678e-16
4.63875e-16
4.31211e-16
3.9348e-16
3.51593e-16
3.06577e-16
2.59563e-16
2.11769e-16
1.64477e-16
1.1899e-16
7.65856e-17
3.87435e-17
9.73966e-18
8.40995e-20
1.13644e-19
9.31844e-18
2.85108e-17
4.87834e-17
6.83278e-17
8.65856e-17
1.03209e-16
1.17941e-16
1.30585e-16
1.40998e-16
1.49077e-16
1.54759e-16
1.5802e-16
1.58863e-16
1.5744e-16
1.53716e-16
1.47819e-16
1.39961e-16
1.30334e-16
1.19172e-16
1.06746e-16
9.33623e-17
7.93589e-17
6.51039e-17
5.09894e-17
3.74231e-17
2.48118e-17
1.35437e-17
4.24096e-18
5.21921e-20
5.43015e-20
1.77488e-18
4.24786e-18
6.82424e-18
9.36707e-18
1.17854e-17
1.40147e-17
1.60083e-17
1.77321e-17
1.91614e-17
2.02789e-17
2.10737e-17
2.15405e-17
2.16788e-17
2.15087e-17
2.10269e-17
2.02449e-17
1.91942e-17
1.79007e-17
1.6396e-17
1.47167e-17
1.29041e-17
1.10042e-17
9.06716e-18
7.14705e-18
5.30098e-18
3.58866e-18
2.07104e-18
8.0915e-19
2.4867e-20
1.81729e-21
1.19356e-20
2.54185e-20
3.99801e-20
5.45808e-20
6.85821e-20
8.15563e-20
9.3202e-20
1.03303e-19
1.11704e-19
1.18296e-19
1.23011e-19
1.25813e-19
1.26696e-19
1.25781e-19
1.2305e-19
1.18553e-19
1.12483e-19
1.04991e-19
9.62596e-20
8.65007e-20
7.59559e-20
6.4893e-20
5.3605e-20
4.2408e-20
3.16388e-20
2.16551e-20
1.28422e-20
5.65026e-21
1.11022e-21
)
;

boundaryField
{
    movingWall
    {
        type            nutkWallFunction;
        Cmu             0.09;
        kappa           0.41;
        E               9.8;
        value           uniform 0;
    }
    fixedWalls
    {
        type            nutkWallFunction;
        Cmu             0.09;
        kappa           0.41;
        E               9.8;
        value           uniform 0;
    }
    frontAndBack
    {
        type            empty;
    }
}


// ************************************************************************* //
