/*--------------------------------*- C++ -*----------------------------------*\
  =========                 |
  \\      /  F ield         | OpenFOAM: The Open Source CFD Toolbox
   \\    /   O peration     | Website:  https://openfoam.org
    \\  /    A nd           | Version:  12
     \\/     M anipulation  |
\*---------------------------------------------------------------------------*/
FoamFile
{
    format      ascii;
    class       volVectorField;
    location    "0.3";
    object      U;
}
// * * * * * * * * * * * * * * * * * * * * * * * * * * * * * * * * * * * * * //

dimensions      [0 1 -1 0 0 0 0];

internalField   nonuniform List<vector> 
900
(
(0.000363237 -0.000155499 0)
(-3.9308e-05 8.38962e-05 0)
(-0.00225437 0.000246927 0)
(-0.0056785 0.000332331 0)
(-0.00968758 0.000360441 0)
(-0.0137992 0.00034974 0)
(-0.0176862 0.000316657 0)
(-0.0211601 0.000273096 0)
(-0.0241372 0.000227086 0)
(-0.0266052 0.000183461 0)
(-0.0285939 0.000144651 0)
(-0.0301536 0.000111371 0)
(-0.0313384 8.31786e-05 0)
(-0.0321944 5.88016e-05 0)
(-0.0327534 3.65786e-05 0)
(-0.0330263 1.46459e-05 0)
(-0.0330039 -9.57626e-06 0)
(-0.0326498 -3.78799e-05 0)
(-0.0319084 -7.25661e-05 0)
(-0.0307055 -0.000115119 0)
(-0.0289578 -0.000166142 0)
(-0.026588 -0.000224609 0)
(-0.0235467 -0.000287063 0)
(-0.019842 -0.000346752 0)
(-0.0155764 -0.000392912 0)
(-0.0109849 -0.000410537 0)
(-0.00646831 -0.000380559 0)
(-0.00259843 -0.000283457 0)
(-8.8122e-05 -9.95087e-05 0)
(0.000393254 0.00016746 0)
(0.000359682 -0.000151015 0)
(-0.00181021 0.00143838 0)
(-0.00815613 0.00291103 0)
(-0.0174165 0.00379302 0)
(-0.0281514 0.00413421 0)
(-0.0391819 0.00407148 0)
(-0.049667 0.00375 0)
(-0.0590992 0.00329028 0)
(-0.0672359 0.00278058 0)
(-0.0740217 0.00227841 0)
(-0.0795171 0.00181576 0)
(-0.0838407 0.00140508 0)
(-0.0871256 0.00104477 0)
(-0.0894878 0.000723468 0)
(-0.0910077 0.000423404 0)
(-0.0917098 0.000124877 0)
(-0.0915718 -0.000197674 0)
(-0.0904989 -0.000565714 0)
(-0.0883489 -0.000999522 0)
(-0.0849346 -0.00151226 0)
(-0.0800513 -0.00210521 0)
(-0.0735152 -0.00276104 0)
(-0.0652213 -0.00343634 0)
(-0.0552182 -0.00405451 0)
(-0.0437976 -0.00450185 0)
(-0.0315818 -0.00463046 0)
(-0.019588 -0.0042736 0)
(-0.00920688 -0.00328759 0)
(-0.00208358 -0.00163703 0)
(0.000381797 0.000142584 0)
(7.86342e-05 0.000463341 0)
(-0.00443447 0.00435139 0)
(-0.0147456 0.00791283 0)
(-0.0291268 0.0101111 0)
(-0.0455853 0.0109905 0)
(-0.062454 0.0108491 0)
(-0.0785074 0.0100324 0)
(-0.0929861 0.00884155 0)
(-0.105514 0.00750418 0)
(-0.115993 0.00617228 0)
(-0.1245 0.00493277 0)
(-0.131202 0.00382151 0)
(-0.136291 0.00283697 0)
(-0.139935 0.00195151 0)
(-0.142253 0.00111969 0)
(-0.143281 0.000290331 0)
(-0.142983 -0.000600439 0)
(-0.141221 -0.00160892 0)
(-0.137788 -0.00278491 0)
(-0.132411 -0.00415961 0)
(-0.124797 -0.00573236 0)
(-0.114687 -0.00745385 0)
(-0.101946 -0.00920785 0)
(-0.0866621 -0.010795 0)
(-0.0692824 -0.0119259 0)
(-0.0507261 -0.0122337 0)
(-0.0324628 -0.011322 0)
(-0.0164515 -0.00887891 0)
(-0.00496708 -0.00490006 0)
(7.23636e-05 -0.000558882 0)
(-0.000268929 0.00184275 0)
(-0.00733616 0.00892845 0)
(-0.0214734 0.0151874 0)
(-0.0404641 0.0190819 0)
(-0.0618769 0.0206468 0)
(-0.0836967 0.0203747 0)
(-0.104422 0.018866 0)
(-0.123111 0.0166593 0)
(-0.139293 0.0141691 0)
(-0.152841 0.0116762 0)
(-0.163847 0.00934385 0)
(-0.172518 0.00724105 0)
(-0.179093 0.00536746 0)
(-0.183784 0.00367401 0)
(-0.186735 0.00207913 0)
(-0.187998 0.000484987 0)
(-0.18752 -0.00121876 0)
(-0.185139 -0.00313793 0)
(-0.180593 -0.00536103 0)
(-0.173549 -0.00794232 0)
(-0.163646 -0.0108768 0)
(-0.15057 -0.0140703 0)
(-0.134155 -0.0173074 0)
(-0.114518 -0.0202236 0)
(-0.0922099 -0.0222962 0)
(-0.0683573 -0.0228726 0)
(-0.0447476 -0.0212641 0)
(-0.0237403 -0.0169546 0)
(-0.00810627 -0.00998073 0)
(-0.000302428 -0.00209513 0)
(-0.000608461 0.00402678 0)
(-0.0102318 0.0151247 0)
(-0.0280273 0.0245127 0)
(-0.0512123 0.030321 0)
(-0.0769497 0.0326175 0)
(-0.102963 0.0321247 0)
(-0.127559 0.0297382 0)
(-0.149682 0.0262734 0)
(-0.168809 0.0223642 0)
(-0.184807 0.0184442 0)
(-0.197794 0.0147668 0)
(-0.208014 0.0114406 0)
(-0.215747 0.00846668 0)
(-0.22124 0.00577021 0)
(-0.224663 0.00322645 0)
(-0.226078 0.000683094 0)
(-0.225425 -0.00202803 0)
(-0.222521 -0.00506905 0)
(-0.217069 -0.008575 0)
(-0.208686 -0.0126272 0)
(-0.19696 -0.0172156 0)
(-0.181525 -0.0221936 0)
(-0.162183 -0.0272297 0)
(-0.139049 -0.0317673 0)
(-0.112723 -0.0350122 0)
(-0.0844562 -0.0359798 0)
(-0.056247 -0.0336424 0)
(-0.0307521 -0.0272393 0)
(-0.0111982 -0.016805 0)
(-0.000662163 -0.00449568 0)
(-0.00091918 0.00698392 0)
(-0.012995 0.0228682 0)
(-0.0342472 0.0357263 0)
(-0.0612518 0.0435582 0)
(-0.0907619 0.0465483 0)
(-0.120291 0.0456995 0)
(-0.148022 0.0422411 0)
(-0.172845 0.0372957 0)
(-0.194232 0.0317399 0)
(-0.212071 0.0261744 0)
(-0.226518 0.0209508 0)
(-0.237861 0.0162198 0)
(-0.246418 0.0119821 0)
(-0.252469 0.00813321 0)
(-0.256206 0.00449941 0)
(-0.257702 0.000867293 0)
(-0.256895 -0.00299607 0)
(-0.253588 -0.0073156 0)
(-0.247458 -0.0122788 0)
(-0.238087 -0.0179983 0)
(-0.225017 -0.024461 0)
(-0.207832 -0.0314658 0)
(-0.186286 -0.0385576 0)
(-0.160459 -0.0449718 0)
(-0.130944 -0.049618 0)
(-0.0990396 -0.051144 0)
(-0.0668742 -0.048137 0)
(-0.0373386 -0.0395336 0)
(-0.0141166 -0.0252759 0)
(-0.000986223 -0.00771565 0)
(-0.00119856 0.0106611 0)
(-0.0155809 0.0320711 0)
(-0.0400656 0.0486868 0)
(-0.0705294 0.058575 0)
(-0.1033 0.0621494 0)
(-0.135712 0.0607624 0)
(-0.165881 0.0560203 0)
(-0.192699 0.0493806 0)
(-0.215676 0.0419777 0)
(-0.234755 0.0345873 0)
(-0.250146 0.0276608 0)
(-0.262186 0.0213894 0)
(-0.271234 0.01577 0)
(-0.277602 0.0106637 0)
(-0.281501 0.00584296 0)
(-0.283016 0.00102806 0)
(-0.282088 -0.00408397 0)
(-0.278512 -0.00978613 0)
(-0.271949 -0.0163237 0)
(-0.261952 -0.023846 0)
(-0.248024 -0.0323417 0)
(-0.229695 -0.0415589 0)
(-0.206651 -0.0509193 0)
(-0.1789 -0.0594451 0)
(-0.146975 -0.0657332 0)
(-0.11215 -0.0680329 0)
(-0.0766147 -0.0644939 0)
(-0.0434544 -0.0536699 0)
(-0.0168263 -0.0352868 0)
(-0.00127402 -0.0116907 0)
(-0.00145157 0.015004 0)
(-0.0179898 0.0426366 0)
(-0.0454733 0.0632501 0)
(-0.0790372 0.0751606 0)
(-0.114568 0.0791453 0)
(-0.149248 0.0769919 0)
(-0.181176 0.0707347 0)
(-0.209297 0.0621916 0)
(-0.233206 0.0527653 0)
(-0.25293 0.0434067 0)
(-0.268753 0.0346636 0)
(-0.281069 0.0267616 0)
(-0.290281 0.0196884 0)
(-0.296728 0.0132652 0)
(-0.300644 0.00720596 0)
(-0.302125 0.00116089 0)
(-0.301118 -0.00524709 0)
(-0.297417 -0.0123833 0)
(-0.290673 -0.0205559 0)
(-0.280421 -0.0299574 0)
(-0.266123 -0.0405865 0)
(-0.247249 -0.0521496 0)
(-0.223402 -0.0639539 0)
(-0.194479 -0.0748113 0)
(-0.160897 -0.0829981 0)
(-0.123841 -0.0863351 0)
(-0.0854993 -0.0824743 0)
(-0.0491167 -0.0694845 0)
(-0.0193417 -0.0467277 0)
(-0.0015331 -0.0163591 0)
(-0.00168683 0.0199654 0)
(-0.0202479 0.0544682 0)
(-0.0504977 0.0792681 0)
(-0.086797 0.0931011 0)
(-0.124581 0.0972589 0)
(-0.160912 0.0940665 0)
(-0.193916 0.0860436 0)
(-0.222651 0.0753934 0)
(-0.246837 0.0637914 0)
(-0.266618 0.0523581 0)
(-0.282369 0.0417277 0)
(-0.294548 0.032151 0)
(-0.303603 0.0235978 0)
(-0.309902 0.0158441 0)
(-0.313697 0.00854066 0)
(-0.315097 0.00126487 0)
(-0.314059 -0.00643732 0)
(-0.310381 -0.015007 0)
(-0.303711 -0.0248197 0)
(-0.29357 -0.0361185 0)
(-0.279386 -0.0489241 0)
(-0.260565 -0.0629161 0)
(-0.236602 -0.0773025 0)
(-0.207254 -0.0906975 0)
(-0.172766 -0.101055 0)
(-0.134169 -0.105741 0)
(-0.0935842 -0.10184 0)
(-0.0543794 -0.0868152 0)
(-0.0217043 -0.0594951 0)
(-0.00177483 -0.021671 0)
(-0.00191501 0.0255096 0)
(-0.0223973 0.0674774 0)
(-0.055189 0.0965914 0)
(-0.093847 0.112176 0)
(-0.133357 0.116205 0)
(-0.170696 0.111658 0)
(-0.20408 0.101602 0)
(-0.23273 0.0886494 0)
(-0.256539 0.0747461 0)
(-0.275795 0.0611698 0)
(-0.290977 0.0486258 0)
(-0.302618 0.0373763 0)
(-0.311207 0.0273635 0)
(-0.31714 0.018311 0)
(-0.320685 0.0098028 0)
(-0.321963 0.00134139 0)
(-0.320942 -0.00760528 0)
(-0.317432 -0.0175562 0)
(-0.311087 -0.0289589 0)
(-0.30142 -0.0421171 0)
(-0.287826 -0.0570859 0)
(-0.269644 -0.0735381 0)
(-0.246253 -0.0906064 0)
(-0.217231 -0.106728 0)
(-0.182604 -0.119542 0)
(-0.143177 -0.125934 0)
(-0.100935 -0.122348 0)
(-0.0593158 -0.105502 0)
(-0.0239705 -0.0734991 0)
(-0.00201251 -0.0275923 0)
(-0.00214841 0.031616 0)
(-0.024491 0.0815874 0)
(-0.0596112 0.115069 0)
(-0.100232 0.132153 0)
(-0.140901 0.135684 0)
(-0.178569 0.129425 0)
(-0.211605 0.117057 0)
(-0.239457 0.101619 0)
(-0.26223 0.0853204 0)
(-0.280384 0.0695744 0)
(-0.294517 0.0551367 0)
(-0.305232 0.0422633 0)
(-0.31306 0.0308578 0)
(-0.318422 0.0205825 0)
(-0.321597 0.010952 0)
(-0.322719 0.00139357 0)
(-0.321765 -0.00870224 0)
(-0.318564 -0.0199324 0)
(-0.312782 -0.0328232 0)
(-0.303933 -0.0477467 0)
(-0.29139 -0.0648084 0)
(-0.274424 -0.0836985 0)
(-0.252288 -0.103505 0)
(-0.224358 -0.122518 0)
(-0.190387 -0.138081 0)
(-0.150884 -0.146582 0)
(-0.107611 -0.143744 0)
(-0.0640072 -0.125387 0)
(-0.0262056 -0.0886666 0)
(-0.00226081 -0.0341081 0)
(-0.00240138 0.0382817 0)
(-0.0265913 0.096736 0)
(-0.0638359 0.134549 0)
(-0.105993 0.152783 0)
(-0.147202 0.155372 0)
(-0.184464 0.147004 0)
(-0.216384 0.132041 0)
(-0.242701 0.113957 0)
(-0.263777 0.095206 0)
(-0.280262 0.07731 0)
(-0.29288 0.0610473 0)
(-0.302304 0.0466467 0)
(-0.309102 0.0339564 0)
(-0.313704 0.0225774 0)
(-0.316398 0.0119496 0)
(-0.317327 0.00142478 0)
(-0.316487 -0.0096824 0)
(-0.313724 -0.0220465 0)
(-0.308726 -0.0362725 0)
(-0.301019 -0.0528107 0)
(-0.289964 -0.0718363 0)
(-0.274776 -0.0930839 0)
(-0.254574 -0.115634 0)
(-0.228516 -0.137673 0)
(-0.196038 -0.156275 0)
(-0.157272 -0.167327 0)
(-0.113659 -0.165755 0)
(-0.0685353 -0.146309 0)
(-0.0284813 -0.104942 0)
(-0.00253621 -0.0412243 0)
(-0.00269146 0.0455244 0)
(-0.02877 0.112876 0)
(-0.0679379 0.15487 0)
(-0.111159 0.173791 0)
(-0.152215 0.174916 0)
(-0.188266 0.164008 0)
(-0.218253 0.146169 0)
(-0.242274 0.12531 0)
(-0.260988 0.104097 0)
(-0.275252 0.0841223 0)
(-0.285912 0.0661548 0)
(-0.293705 0.0503719 0)
(-0.29922 0.0365545 0)
(-0.302891 0.0242286 0)
(-0.305008 0.0127631 0)
(-0.305719 0.00143838 0)
(-0.305034 -0.0105035 0)
(-0.302824 -0.0238127 0)
(-0.298807 -0.0391745 0)
(-0.292536 -0.0571249 0)
(-0.283377 -0.0779258 0)
(-0.2705 -0.101388 0)
(-0.252904 -0.126627 0)
(-0.229514 -0.151778 0)
(-0.199411 -0.173696 0)
(-0.162272 -0.187774 0)
(-0.119094 -0.188075 0)
(-0.0729756 -0.168095 0)
(-0.0308758 -0.122284 0)
(-0.00285813 -0.0489701 0)
(-0.00304094 0.053386 0)
(-0.0311112 0.129973 0)
(-0.0719909 0.175857 0)
(-0.115733 0.194868 0)
(-0.155848 0.193919 0)
(-0.189797 0.180013 0)
(-0.216977 0.159037 0)
(-0.237919 0.135318 0)
(-0.253612 0.11169 0)
(-0.265124 0.0897682 0)
(-0.273416 0.0702706 0)
(-0.279269 0.0532982 0)
(-0.283281 0.0385491 0)
(-0.285877 0.0254714 0)
(-0.287335 0.0133629 0)
(-0.287803 0.00143726 0)
(-0.287305 -0.01113 0)
(-0.285742 -0.0251592 0)
(-0.282875 -0.0414144 0)
(-0.278297 -0.0605227 0)
(-0.271398 -0.08285 0)
(-0.26133 -0.108314 0)
(-0.246989 -0.136118 0)
(-0.227073 -0.164408 0)
(-0.200279 -0.189884 0)
(-0.165748 -0.207484 0)
(-0.123891 -0.210356 0)
(-0.0773918 -0.190554 0)
(-0.0334753 -0.140667 0)
(-0.00325059 -0.0574004 0)
(-0.00347916 0.0619379 0)
(-0.0337128 0.148006 0)
(-0.0760606 0.197311 0)
(-0.119679 0.215656 0)
(-0.157941 0.211938 0)
(-0.188797 0.194558 0)
(-0.212236 0.170219 0)
(-0.229298 0.14362 0)
(-0.241325 0.117694 0)
(-0.249591 0.0940207 0)
(-0.255148 0.0732248 0)
(-0.258799 0.0553027 0)
(-0.261126 0.0398569 0)
(-0.262528 0.0262545 0)
(-0.263262 0.0137251 0)
(-0.263465 0.00142285 0)
(-0.263178 -0.0115337 0)
(-0.262335 -0.0260272 0)
(-0.260747 -0.0428957 0)
(-0.25807 -0.0628602 0)
(-0.253744 -0.0864043 0)
(-0.246931 -0.113585 0)
(-0.236459 -0.143745 0)
(-0.22082 -0.175119 0)
(-0.198315 -0.204343 0)
(-0.167473 -0.225963 0)
(-0.127965 -0.232195 0)
(-0.0818272 -0.21346 0)
(-0.0363758 -0.160069 0)
(-0.0037446 -0.0666005 0)
(-0.00404565 0.0712876 0)
(-0.0366901 0.166959 0)
(-0.0801941 0.21899 0)
(-0.1229 0.235731 0)
(-0.158238 0.228464 0)
(-0.184896 0.207142 0)
(-0.203605 0.179274 0)
(-0.215983 0.149854 0)
(-0.223733 0.121831 0)
(-0.228308 0.0966756 0)
(-0.230819 0.0748719 0)
(-0.232059 0.0562857 0)
(-0.232566 0.0404127 0)
(-0.232692 0.0265383 0)
(-0.232655 0.0138308 0)
(-0.23258 0.00139521 0)
(-0.232516 -0.0116954 0)
(-0.232437 -0.0263743 0)
(-0.232218 -0.0435454 0)
(-0.231592 -0.0640216 0)
(-0.230081 -0.0884145 0)
(-0.226901 -0.116948 0)
(-0.220855 -0.149161 0)
(-0.210273 -0.183463 0)
(-0.193072 -0.216536 0)
(-0.167111 -0.242648 0)
(-0.131152 -0.253106 0)
(-0.0862925 -0.236531 0)
(-0.0396852 -0.180468 0)
(-0.00438126 -0.0766911 0)
(-0.00479432 0.0815871 0)
(-0.0401769 0.18681 0)
(-0.0844018 0.240591 0)
(-0.125203 0.254582 0)
(-0.156356 0.242916 0)
(-0.177586 0.217219 0)
(-0.190533 0.185747 0)
(-0.197441 0.153674 0)
(-0.200358 0.123851 0)
(-0.200871 0.0975604 0)
(-0.200102 0.0750984 0)
(-0.19879 0.056175 0)
(-0.197396 0.0401724 0)
(-0.196201 0.0262981 0)
(-0.195372 0.0136686 0)
(-0.19501 0.00135324 0)
(-0.195173 -0.0116054 0)
(-0.195873 -0.0261764 0)
(-0.197061 -0.0433172 0)
(-0.198571 -0.0639256 0)
(-0.200036 -0.0887449 0)
(-0.200773 -0.118189 0)
(-0.199627 -0.152044 0)
(-0.19483 -0.18899 0)
(-0.18396 -0.225895 0)
(-0.164178 -0.256904 0)
(-0.133169 -0.272509 0)
(-0.0907452 -0.259406 0)
(-0.0435228 -0.201823 0)
(-0.00521591 -0.087836 0)
(-0.00579914 0.0930437 0)
(-0.044324 0.207517 0)
(-0.0886256 0.261708 0)
(-0.126256 0.271586 0)
(-0.151733 0.254628 0)
(-0.166186 0.224203 0)
(-0.17232 0.189184 0)
(-0.173026 0.154756 0)
(-0.170641 0.12354 0)
(-0.166821 0.096545 0)
(-0.162632 0.0738298 0)
(-0.158707 0.0549317 0)
(-0.155395 0.039118 0)
(-0.152883 0.0255262 0)
(-0.151268 0.0132353 0)
(-0.15062 0.00129508 0)
(-0.151 -0.0112643 0)
(-0.152465 -0.02543 0)
(-0.155046 -0.042196 0)
(-0.158697 -0.0625319 0)
(-0.1632 -0.0873085 0)
(-0.168025 -0.117144 0)
(-0.172135 -0.152116 0)
(-0.173759 -0.191272 0)
(-0.170221 -0.231826 0)
(-0.158004 -0.268014 0)
(-0.133575 -0.289699 0)
(-0.0950567 -0.281603 0)
(-0.0480144 -0.224059 0)
(-0.00632311 -0.10025 0)
(-0.00716016 0.105932 0)
(-0.0492823 0.228983 0)
(-0.092696 0.281798 0)
(-0.12552 0.285978 0)
(-0.143569 0.262845 0)
(-0.149794 0.227478 0)
(-0.148093 0.189148 0)
(-0.141963 0.152823 0)
(-0.13394 0.120743 0)
(-0.125648 0.0935539 0)
(-0.118015 0.0710405 0)
(-0.111512 0.0525567 0)
(-0.106341 0.0372606 0)
(-0.102564 0.0242347 0)
(-0.100202 0.0125374 0)
(-0.0992786 0.00121868 0)
(-0.099857 -0.0106836 0)
(-0.102038 -0.0241536 0)
(-0.105942 -0.0402008 0)
(-0.111657 -0.059847 0)
(-0.119145 -0.0840768 0)
(-0.128087 -0.113713 0)
(-0.13765 -0.149161 0)
(-0.146186 -0.18992 0)
(-0.150899 -0.233727 0)
(-0.147683 -0.275186 0)
(-0.131705 -0.303819 0)
(-0.0989589 -0.302479 0)
(-0.0532777 -0.247021 0)
(-0.00780233 -0.11421 0)
(-0.00900908 0.120607 0)
(-0.0551751 0.251005 0)
(-0.0962427 0.300118 0)
(-0.12216 0.296816 0)
(-0.130749 0.266717 0)
(-0.127244 0.226424 0)
(-0.116781 0.185247 0)
(-0.103351 0.147669 0)
(-0.089537 0.115379 0)
(-0.0767991 0.0885814 0)
(-0.0658392 0.0667626 0)
(-0.0569058 0.0490957 0)
(-0.0500127 0.0346449 0)
(-0.0450838 0.0224573 0)
(-0.0420433 0.0115926 0)
(-0.040869 0.00112248 0)
(-0.0416189 -0.00988517 0)
(-0.0444363 -0.0223884 0)
(-0.0495323 -0.0373873 0)
(-0.0571421 -0.0559299 0)
(-0.0674345 -0.0790905 0)
(-0.0803543 -0.107883 0)
(-0.0953694 -0.14305 0)
(-0.111095 -0.184618 0)
(-0.124812 -0.231022 0)
(-0.13202 -0.277563 0)
(-0.126574 -0.313836 0)
(-0.10196 -0.321161 0)
(-0.0593888 -0.270427 0)
(-0.00978273 -0.130059 0)
(-0.01151 0.137502 0)
(-0.0620447 0.273208 0)
(-0.0985832 0.315646 0)
(-0.11489 0.302954 0)
(-0.111744 0.265327 0)
(-0.0970513 0.220448 0)
(-0.0771038 0.177179 0)
(-0.0561644 0.139193 0)
(-0.0366487 0.107466 0)
(-0.0196999 0.0817062 0)
(-0.00569298 0.0610959 0)
(0.0054031 0.0446455 0)
(0.0137911 0.0313513 0)
(0.0197027 0.0202511 0)
(0.0233149 0.0104304 0)
(0.024703 0.00100619 0)
(0.0238162 -0.00890077 0)
(0.0204729 -0.0201982 0)
(0.014373 -0.0338493 0)
(0.00513079 -0.0508966 0)
(-0.00764662 -0.0724694 0)
(-0.024213 -0.0997397 0)
(-0.0444272 -0.133775 0)
(-0.0673323 -0.175167 0)
(-0.0905326 -0.223204 0)
(-0.10944 -0.27423 0)
(-0.116762 -0.318572 0)
(-0.103221 -0.336471 0)
(-0.066312 -0.293779 0)
(-0.0124235 -0.148211 0)
(-0.0148499 0.157126 0)
(-0.0697204 0.294901 0)
(-0.0985065 0.32699 0)
(-0.101792 0.303029 0)
(-0.0844959 0.257725 0)
(-0.0573683 0.209053 0)
(-0.0275675 0.164784 0)
(0.000728998 0.127437 0)
(0.0255447 0.0971481 0)
(0.0462254 0.0731072 0)
(0.0628176 0.0542151 0)
(0.0756777 0.039357 0)
(0.0852438 0.0274976 0)
(0.0919089 0.0176969 0)
(0.095952 0.00909302 0)
(0.097502 0.000871484 0)
(0.0965183 -0.0077712 0)
(0.0927872 -0.0176687 0)
(0.0859269 -0.0297186 0)
(0.0754076 -0.0449224 0)
(0.0606083 -0.0644197 0)
(0.040939 -0.0894897 0)
(0.0160726 -0.121478 0)
(-0.0136255 -0.161535 0)
(-0.0463755 -0.209908 0)
(-0.0779141 -0.264325 0)
(-0.100316 -0.316609 0)
(-0.101297 -0.346856 0)
(-0.0737644 -0.316225 0)
(-0.0159003 -0.169129 0)
(-0.0191918 0.180004 0)
(-0.0776137 0.314914 0)
(-0.0938888 0.332234 0)
(-0.0800749 0.295481 0)
(-0.0463044 0.24303 0)
(-0.00596165 0.191934 0)
(0.0335119 0.148117 0)
(0.0685268 0.112637 0)
(0.0978617 0.0847235 0)
(0.121519 0.0630767 0)
(0.140041 0.0463759 0)
(0.154134 0.0334371 0)
(0.164475 0.023239 0)
(0.171608 0.0148989 0)
(0.175909 0.00763465 0)
(0.177555 0.000722495 0)
(0.176518 -0.00654479 0)
(0.17256 -0.0149051 0)
(0.165233 -0.0251632 0)
(0.153878 -0.0382416 0)
(0.137662 -0.0552392 0)
(0.115656 -0.0774734 0)
(0.0870191 -0.106487 0)
(0.0513833 -0.143918 0)
(0.00960355 -0.190999 0)
(-0.0349231 -0.247132 0)
(-0.0743935 -0.306416 0)
(-0.0939255 -0.350326 0)
(-0.0809671 -0.336379 0)
(-0.0203504 -0.193257 0)
(-0.0245116 0.206519 0)
(-0.0842229 0.331287 0)
(-0.081339 0.328903 0)
(-0.0457653 0.278645 0)
(0.00627811 0.220577 0)
(0.059773 0.169105 0)
(0.107948 0.127537 0)
(0.148427 0.0952719 0)
(0.181062 0.0706647 0)
(0.206644 0.0520288 0)
(0.226247 0.0379158 0)
(0.240921 0.0271462 0)
(0.251553 0.0187647 0)
(0.258823 0.0119821 0)
(0.263181 0.0061205 0)
(0.264846 0.000565997 0)
(0.263801 -0.00527565 0)
(0.259795 -0.0120293 0)
(0.252332 -0.0203827 0)
(0.240659 -0.0311439 0)
(0.223762 -0.0453171 0)
(0.200407 -0.0641761 0)
(0.169239 -0.0893446 0)
(0.129073 -0.122813 0)
(0.0795621 -0.166699 0)
(0.0226101 -0.222212 0)
(-0.0351459 -0.286482 0)
(-0.0775204 -0.344324 0)
(-0.0861373 -0.352008 0)
(-0.0256816 -0.220828 0)
(-0.0301445 0.236643 0)
(-0.0861883 0.340857 0)
(-0.0550185 0.313845 0)
(0.00665807 0.250988 0)
(0.0774907 0.190171 0)
(0.142722 0.14108 0)
(0.197567 0.103805 0)
(0.241523 0.0761024 0)
(0.275769 0.0556346 0)
(0.301934 0.0404993 0)
(0.321595 0.0292485 0)
(0.336091 0.0207915 0)
(0.346475 0.0142923 0)
(0.353515 0.0090876 0)
(0.357712 0.00462417 0)
(0.35931 0.000411154 0)
(0.358303 -0.00402161 0)
(0.354438 -0.00917488 0)
(0.347199 -0.0156018 0)
(0.335778 -0.0239658 0)
(0.319045 -0.0351263 0)
(0.29553 -0.0502275 0)
(0.263429 -0.0708345 0)
(0.22075 -0.0990828 0)
(0.165772 -0.137729 0)
(0.0983048 -0.189672 0)
(0.0225027 -0.255567 0)
(-0.0464784 -0.325777 0)
(-0.0856718 -0.359589 0)
(-0.0310825 -0.251594 0)
(-0.033828 0.269793 0)
(-0.0767681 0.338671 0)
(-0.00602289 0.283362 0)
(0.0845263 0.211541 0)
(0.172254 0.152447 0)
(0.245847 0.109068 0)
(0.30402 0.0781661 0)
(0.348671 0.0562001 0)
(0.382379 0.0404821 0)
(0.407531 0.029132 0)
(0.42609 0.0208482 0)
(0.439582 0.0147132 0)
(0.449144 0.0100565 0)
(0.455574 0.00636557 0)
(0.459386 0.0032237 0)
(0.460829 0.000268749 0)
(0.459905 -0.00284198 0)
(0.456374 -0.00648174 0)
(0.449728 -0.0110601 0)
(0.439164 -0.017077 0)
(0.423513 -0.0252073 0)
(0.401185 -0.0363875 0)
(0.370072 -0.051978 0)
(0.327516 -0.0740035 0)
(0.270449 -0.10546 0)
(0.196205 -0.150464 0)
(0.105038 -0.213145 0)
(0.00775545 -0.291294 0)
(-0.072498 -0.354284 0)
(-0.0340197 -0.284641 0)
(-0.029301 0.303687 0)
(-0.042625 0.317657 0)
(0.0789781 0.234122 0)
(0.197075 0.160794 0)
(0.295817 0.109407 0)
(0.371805 0.0752195 0)
(0.428505 0.0524293 0)
(0.470302 0.0369503 0)
(0.500948 0.0262225 0)
(0.523319 0.0186543 0)
(0.539551 0.0132285 0)
(0.551197 0.00926754 0)
(0.559366 0.00629743 0)
(0.564818 0.00396678 0)
(0.568029 0.00199678 0)
(0.569233 0.000149666 0)
(0.568436 -0.00179626 0)
(0.565427 -0.00409007 0)
(0.559738 -0.00700249 0)
(0.550635 -0.0108653 0)
(0.537013 -0.0161479 0)
(0.517313 -0.0235242 0)
(0.489351 -0.0340248 0)
(0.450105 -0.0493022 0)
(0.395497 -0.0720847 0)
(0.32048 -0.106852 0)
(0.220423 -0.160213 0)
(0.0975563 -0.238102 0)
(-0.0335449 -0.328899 0)
(-0.0278557 -0.31718 0)
(0.00190332 0.325843 0)
(0.0419191 0.267798 0)
(0.219259 0.165808 0)
(0.354857 0.102616 0)
(0.452916 0.0652915 0)
(0.522342 0.0429388 0)
(0.571394 0.0290549 0)
(0.606222 0.0200597 0)
(0.631081 0.0140221 0)
(0.648869 0.00985916 0)
(0.661577 0.00692628 0)
(0.670584 0.00481547 0)
(0.676841 0.00325175 0)
(0.680984 0.00203696 0)
(0.683408 0.00101702 0)
(0.684301 6.07299e-05 0)
(0.683675 -0.00094233 0)
(0.681364 -0.00214016 0)
(0.676969 -0.00367703 0)
(0.669898 -0.00573281 0)
(0.659222 -0.00857695 0)
(0.643597 -0.0126061 0)
(0.621055 -0.0184554 0)
(0.588684 -0.0272125 0)
(0.542103 -0.0408562 0)
(0.474787 -0.0631389 0)
(0.37754 -0.101091 0)
(0.240167 -0.166716 0)
(0.0554351 -0.2741 0)
(0.00616295 -0.335949 0)
(0.118928 0.288972 0)
(0.227589 0.178381 0)
(0.440447 0.0867757 0)
(0.567448 0.0468355 0)
(0.646084 0.0273521 0)
(0.697352 0.0170217 0)
(0.731766 0.0111186 0)
(0.755374 0.00749596 0)
(0.771823 0.00514943 0)
(0.783382 0.00357154 0)
(0.791524 0.00248107 0)
(0.797229 0.00170874 0)
(0.801155 0.00114457 0)
(0.803735 0.000711404 0)
(0.805233 0.000350514 0)
(0.805768 1.07807e-05 0)
(0.805358 -0.000343057 0)
(0.803889 -0.000774408 0)
(0.801081 -0.00133484 0)
(0.796544 -0.0020925 0)
(0.78964 -0.00315404 0)
(0.77943 -0.00468112 0)
(0.764493 -0.00694412 0)
(0.742615 -0.0104374 0)
(0.710188 -0.0161523 0)
(0.661092 -0.0262473 0)
(0.584413 -0.045634 0)
(0.45839 -0.0861937 0)
(0.242213 -0.180091 0)
(0.127095 -0.293553 0)
(0.49993 0.115021 0)
(0.615794 0.046612 0)
(0.770228 0.0116628 0)
(0.838278 0.0052119 0)
(0.87308 0.00272857 0)
(0.893793 0.00152355 0)
(0.906953 0.000921901 0)
(0.915662 0.000588544 0)
(0.921583 0.000386871 0)
(0.925667 0.000258353 0)
(0.928499 0.000173526 0)
(0.930459 0.000115927 0)
(0.931792 7.54952e-05 0)
(0.93266 4.54635e-05 0)
(0.933158 2.12083e-05 0)
(0.933327 -2.17156e-06 0)
(0.933174 -2.68595e-05 0)
(0.932656 -5.83018e-05 0)
(0.931665 -0.000100911 0)
(0.930057 -0.000160578 0)
(0.92759 -0.000246685 0)
(0.923903 -0.000374996 0)
(0.918435 -0.00057319 0)
(0.910274 -0.000896675 0)
(0.897814 -0.0014744 0)
(0.878007 -0.0026295 0)
(0.844328 -0.00505534 0)
(0.777725 -0.0113226 0)
(0.62305 -0.0461637 0)
(0.505666 -0.11508 0)
)
;

boundaryField
{
    movingWall
    {
        type            fixedValue;
        value           uniform (1 0 0);
    }
    fixedWalls
    {
        type            noSlip;
    }
    frontAndBack
    {
        type            empty;
    }
}


// ************************************************************************* //
