/*--------------------------------*- C++ -*----------------------------------*\
  =========                 |
  \\      /  F ield         | OpenFOAM: The Open Source CFD Toolbox
   \\    /   O peration     | Website:  https://openfoam.org
    \\  /    A nd           | Version:  12
     \\/     M anipulation  |
\*---------------------------------------------------------------------------*/
FoamFile
{
    format      ascii;
    class       surfaceScalarField;
    location    "1.5";
    object      phi;
}
// * * * * * * * * * * * * * * * * * * * * * * * * * * * * * * * * * * * * * //

dimensions      [0 3 -1 0 0 0 0];

internalField   nonuniform List<scalar> 
11100
(
2.94449e-10
-2.92573e-10
7.41225e-10
-4.46927e-10
1.06104e-09
-3.20033e-10
1.10061e-09
-3.97648e-11
7.93322e-10
3.07124e-10
1.20412e-10
6.72794e-10
-9.0997e-10
1.0303e-09
-2.27488e-09
1.36485e-09
-3.94375e-09
1.66882e-09
-5.88274e-09
1.93895e-09
-8.0573e-09
2.17453e-09
-1.04337e-08
2.37636e-09
-1.29798e-08
2.5461e-09
-1.56656e-08
2.68579e-09
-1.84633e-08
2.79761e-09
-2.1347e-08
2.88372e-09
-2.42931e-08
2.94607e-09
-2.72795e-08
2.98643e-09
-3.02858e-08
3.00624e-09
-3.32925e-08
3.00669e-09
-3.62812e-08
2.98867e-09
-3.9234e-08
2.95279e-09
-4.21334e-08
2.89944e-09
-4.49623e-08
2.8288e-09
-4.77032e-08
2.7409e-09
-5.03388e-08
2.63564e-09
-5.28517e-08
2.51288e-09
-5.52242e-08
2.37247e-09
-5.74385e-08
2.21427e-09
-5.94767e-08
2.03824e-09
-6.13212e-08
1.84449e-09
-6.29545e-08
1.63329e-09
-6.43596e-08
1.4051e-09
-6.55203e-08
1.16066e-09
-6.64212e-08
9.0095e-10
-6.70485e-08
6.27232e-10
-6.73896e-08
3.41139e-10
-6.74347e-08
4.50409e-11
-6.7175e-08
-2.597e-10
-6.66051e-08
-5.69892e-10
-6.57223e-08
-8.8283e-10
-6.45269e-08
-1.19539e-09
-6.30227e-08
-1.50421e-09
-6.12169e-08
-1.80573e-09
-5.91207e-08
-2.09626e-09
-5.67486e-08
-2.37203e-09
-5.41194e-08
-2.62925e-09
-5.12552e-08
-2.86418e-09
-4.8182e-08
-3.07323e-09
-4.4929e-08
-3.25301e-09
-4.15286e-08
-3.40041e-09
-3.80159e-08
-3.51268e-09
-3.44284e-08
-3.58752e-09
-3.08053e-08
-3.62309e-09
-2.71872e-08
-3.61812e-09
-2.36153e-08
-3.57194e-09
-2.01308e-08
-3.48448e-09
-1.67744e-08
-3.35634e-09
-1.35857e-08
-3.18878e-09
-1.06019e-08
-2.98371e-09
-7.85823e-09
-2.74372e-09
-5.3862e-09
-2.47204e-09
-3.21362e-09
-2.17258e-09
-1.36368e-09
-1.84994e-09
1.45794e-10
-1.50948e-09
1.30327e-09
-1.15748e-09
2.1046e-09
-8.01328e-10
2.55465e-09
-4.50054e-10
2.66968e-09
-1.15029e-10
2.48083e-09
1.88849e-10
2.03956e-09
4.41262e-10
1.42568e-09
6.13881e-10
7.59354e-10
6.66327e-10
2.16579e-10
5.42773e-10
2.16578e-10
4.51363e-10
-7.4391e-10
1.00447e-09
-1.00014e-09
1.14562e-09
-4.6137e-10
5.83946e-10
5.21709e-10
-8.30684e-10
1.72159e-09
-3.1542e-09
2.99618e-09
-6.38148e-09
4.25749e-09
-1.04693e-08
5.4526e-09
-1.53519e-08
6.55139e-09
-2.09514e-08
7.53836e-09
-2.71843e-08
8.40743e-09
-3.39664e-08
9.15837e-09
-4.12149e-08
9.79457e-09
-4.88506e-08
1.03214e-08
-5.67983e-08
1.07453e-08
-6.49874e-08
1.10728e-08
-7.33514e-08
1.13101e-08
-8.18282e-08
1.14631e-08
-9.03586e-08
1.15367e-08
-9.88867e-08
1.15348e-08
-1.07359e-07
1.14606e-08
-1.15722e-07
1.13165e-08
-1.23927e-07
1.11039e-08
-1.31922e-07
1.08237e-08
-1.39657e-07
1.04763e-08
-1.47083e-07
1.00616e-08
-1.5415e-07
9.57951e-09
-1.60807e-07
9.02976e-09
-1.67005e-07
8.41235e-09
-1.72695e-07
7.72759e-09
-1.77826e-07
6.97627e-09
-1.82353e-07
6.15983e-09
-1.86228e-07
5.28049e-09
-1.89409e-07
4.34137e-09
-1.91855e-07
3.34656e-09
-1.93529e-07
2.30113e-09
-1.94399e-07
1.21141e-09
-1.94439e-07
8.55365e-11
-1.9363e-07
-1.06904e-09
-1.91958e-07
-2.24214e-09
-1.89418e-07
-3.42309e-09
-1.86013e-07
-4.60025e-09
-1.81756e-07
-5.7612e-09
-1.76669e-07
-6.89285e-09
-1.70783e-07
-7.98167e-09
-1.64141e-07
-9.01386e-09
-1.56795e-07
-9.97564e-09
-1.48806e-07
-1.08535e-08
-1.40245e-07
-1.16343e-08
-1.31192e-07
-1.23059e-08
-1.21735e-07
-1.28571e-08
-1.1197e-07
-1.32781e-08
-1.01997e-07
-1.35605e-08
-9.19219e-08
-1.36979e-08
-8.18543e-08
-1.36857e-08
-7.19045e-08
-1.35217e-08
-6.21832e-08
-1.32058e-08
-5.27991e-08
-1.27404e-08
-4.38576e-08
-1.21303e-08
-3.54586e-08
-1.13827e-08
-2.76949e-08
-1.05075e-08
-2.06501e-08
-9.51682e-09
-1.43971e-08
-8.42561e-09
-8.99567e-09
-7.25137e-09
-4.49061e-09
-6.01454e-09
-9.09125e-10
-4.73897e-09
1.74221e-09
-3.45267e-09
3.48125e-09
-2.18909e-09
4.35537e-09
-9.89158e-10
4.44844e-09
9.57782e-11
3.88997e-09
9.99735e-10
2.86705e-09
1.6368e-09
1.63803e-09
1.89534e-09
5.41307e-10
1.63949e-09
7.57884e-10
3.28201e-10
-1.07197e-09
4.72744e-10
-1.14469e-09
-1.2199e-10
1.33251e-10
-1.7888e-09
2.18837e-09
-4.71113e-09
4.64377e-09
-8.96396e-09
7.24889e-09
-1.45457e-08
9.83914e-09
-2.14029e-08
1.23097e-08
-2.94484e-08
1.45968e-08
-3.8575e-08
1.6665e-08
-4.86648e-08
1.84971e-08
-5.95954e-08
2.0089e-08
-7.12448e-08
2.14439e-08
-8.34937e-08
2.25704e-08
-9.62276e-08
2.34792e-08
-1.09337e-07
2.41822e-08
-1.22718e-07
2.46913e-08
-1.36272e-07
2.50172e-08
-1.49905e-07
2.51697e-08
-1.63527e-07
2.51567e-08
-1.77051e-07
2.49846e-08
-1.90393e-07
2.46581e-08
-2.0347e-07
2.41806e-08
-2.162e-07
2.35542e-08
-2.28504e-07
2.27799e-08
-2.403e-07
2.18582e-08
-2.5151e-07
2.07893e-08
-2.62054e-07
1.95734e-08
-2.71852e-07
1.8211e-08
-2.80828e-07
1.67036e-08
-2.88906e-07
1.50535e-08
-2.9601e-07
1.32644e-08
-3.02072e-07
1.13418e-08
-3.07023e-07
9.29303e-09
-3.10804e-07
7.1273e-09
-3.13359e-07
4.8562e-09
-3.14641e-07
2.49365e-09
-3.14612e-07
5.61272e-11
-3.13243e-07
-2.43828e-09
-3.10516e-07
-4.96866e-09
-3.06427e-07
-7.51214e-09
-3.00983e-07
-1.00439e-08
-2.94207e-07
-1.25377e-08
-2.86134e-07
-1.49659e-08
-2.76816e-07
-1.72999e-08
-2.66319e-07
-1.95108e-08
-2.54725e-07
-2.15697e-08
-2.4213e-07
-2.34484e-08
-2.28644e-07
-2.51196e-08
-2.14392e-07
-2.65579e-08
-1.99509e-07
-2.77401e-08
-1.84142e-07
-2.86455e-08
-1.68445e-07
-2.92573e-08
-1.52581e-07
-2.95618e-08
-1.36717e-07
-2.955e-08
-1.21021e-07
-2.92173e-08
-1.05663e-07
-2.85637e-08
-9.08094e-08
-2.75945e-08
-7.66197e-08
-2.632e-08
-6.32464e-08
-2.4756e-08
-5.08306e-08
-2.29233e-08
-3.9499e-08
-2.08484e-08
-2.93614e-08
-1.85632e-08
-2.05073e-08
-1.61054e-08
-1.3003e-08
-1.35189e-08
-6.88722e-09
-1.08547e-08
-2.16758e-09
-8.17231e-09
1.18498e-09
-5.54165e-09
3.24216e-09
-3.04635e-09
4.12595e-09
-7.88011e-10
4.01776e-09
1.10792e-09
3.16888e-09
2.48568e-09
1.91115e-09
3.15307e-09
6.68893e-10
2.88175e-09
1.42678e-09
4.7763e-11
-1.11961e-09
-5.22456e-10
-5.74446e-10
-2.21181e-09
1.82253e-09
-5.33492e-09
5.31136e-09
-1.00685e-08
9.37727e-09
-1.64843e-08
1.36645e-08
-2.45745e-08
1.79293e-08
-3.42747e-08
2.20098e-08
-4.5481e-08
2.58031e-08
-5.80642e-08
2.92481e-08
-7.188e-08
3.2313e-08
-8.67771e-08
3.4986e-08
-1.02602e-07
3.72689e-08
-1.19204e-07
3.91717e-08
-1.36434e-07
4.07093e-08
-1.5415e-07
4.18989e-08
-1.72217e-07
4.27579e-08
-1.90503e-07
4.33029e-08
-2.08882e-07
4.35488e-08
-2.27233e-07
4.35082e-08
-2.4544e-07
4.31913e-08
-2.63388e-07
4.26059e-08
-2.80965e-07
4.17577e-08
-2.98061e-07
4.06504e-08
-3.14568e-07
3.92863e-08
-3.30376e-07
3.76669e-08
-3.4538e-07
3.57933e-08
-3.59474e-07
3.36665e-08
-3.72551e-07
3.12886e-08
-3.8451e-07
2.86627e-08
-3.95251e-07
2.5794e-08
-4.04676e-07
2.26899e-08
-4.12695e-07
1.93604e-08
-4.19221e-07
1.58188e-08
-4.24175e-07
1.20819e-08
-4.27489e-07
8.1698e-09
-4.29102e-07
4.10683e-09
-4.28967e-07
-7.89967e-11
-4.27049e-07
-4.35608e-09
-4.23329e-07
-8.68902e-09
-4.17802e-07
-1.3039e-08
-4.10482e-07
-1.73642e-08
-4.01399e-07
-2.16203e-08
-3.90604e-07
-2.57608e-08
-3.78166e-07
-2.97381e-08
-3.64173e-07
-3.35038e-08
-3.48733e-07
-3.70097e-08
-3.31973e-07
-4.02087e-08
-3.14037e-07
-4.30556e-08
-2.95086e-07
-4.55081e-08
-2.75299e-07
-4.75276e-08
-2.54864e-07
-4.90804e-08
-2.33983e-07
-5.01379e-08
-2.12867e-07
-5.06782e-08
-1.91731e-07
-5.06861e-08
-1.70794e-07
-5.01541e-08
-1.50275e-07
-4.90829e-08
-1.30388e-07
-4.74813e-08
-1.11341e-07
-4.53671e-08
-9.333e-08
-4.27669e-08
-7.65371e-08
-3.97162e-08
-6.11257e-08
-3.62599e-08
-4.72369e-08
-3.2452e-08
-3.49856e-08
-2.83566e-08
-2.44566e-08
-2.40479e-08
-1.56994e-08
-1.96119e-08
-8.724e-09
-1.51477e-08
-3.49497e-09
-1.07707e-08
7.45347e-11
-6.61586e-09
2.12994e-09
-2.84342e-09
2.88294e-09
3.54921e-10
2.62021e-09
2.7484e-09
1.71294e-09
4.06034e-09
6.33067e-10
3.96162e-09
2.05984e-09
-3.09959e-10
-8.0953e-10
-1.77484e-09
8.90487e-10
-4.78946e-09
4.8371e-09
-9.60944e-09
1.01312e-08
-1.63759e-08
1.61437e-08
-2.51371e-08
2.24256e-08
-3.58676e-08
2.86597e-08
-4.84861e-08
3.46283e-08
-6.28715e-08
4.01884e-08
-7.88748e-08
4.52513e-08
-9.63302e-08
4.97683e-08
-1.15062e-07
5.37181e-08
-1.34892e-07
5.70989e-08
-1.55642e-07
5.99213e-08
-1.77136e-07
6.22033e-08
-1.99204e-07
6.39669e-08
-2.21681e-07
6.52351e-08
-2.44409e-07
6.60303e-08
-2.67233e-07
6.63727e-08
-2.90004e-07
6.62798e-08
-3.12579e-07
6.57659e-08
-3.34815e-07
6.48423e-08
-3.56575e-07
6.35172e-08
-3.77721e-07
6.17967e-08
-3.98119e-07
5.96846e-08
-4.17636e-07
5.71839e-08
-4.3614e-07
5.42971e-08
-4.53501e-07
5.1027e-08
-4.6959e-07
4.73777e-08
-4.84283e-07
4.33554e-08
-4.97457e-07
3.89689e-08
-5.08998e-07
3.42306e-08
-5.18795e-07
2.91568e-08
-5.26744e-07
2.37684e-08
-5.32754e-07
1.80916e-08
-5.36742e-07
1.21577e-08
-5.38638e-07
6.00335e-09
-5.38388e-07
-3.2884e-10
-5.35953e-07
-6.79113e-09
-5.31312e-07
-1.33304e-08
-5.24462e-07
-1.98888e-08
-5.15423e-07
-2.6404e-08
-5.04233e-07
-3.28101e-08
-4.90955e-07
-3.90385e-08
-4.75675e-07
-4.50186e-08
-4.58499e-07
-5.06791e-08
-4.3956e-07
-5.5949e-08
-4.1901e-07
-6.0759e-08
-3.97023e-07
-6.50428e-08
-3.73793e-07
-6.87381e-08
-3.49532e-07
-7.17884e-08
-3.24468e-07
-7.4144e-08
-2.98843e-07
-7.57635e-08
-2.72907e-07
-7.66144e-08
-2.46918e-07
-7.66747e-08
-2.21138e-07
-7.59336e-08
-1.95829e-07
-7.43921e-08
-1.71247e-07
-7.20636e-08
-1.4764e-07
-6.89746e-08
-1.25242e-07
-6.51646e-08
-1.04271e-07
-6.06867e-08
-8.49236e-08
-5.56076e-08
-6.73677e-08
-5.0008e-08
-5.17416e-08
-4.39827e-08
-3.81475e-08
-3.76421e-08
-2.66466e-08
-3.11128e-08
-1.72543e-08
-2.454e-08
-9.93454e-09
-1.80904e-08
-4.59409e-09
-1.19563e-08
-1.0765e-09
-6.36101e-09
8.44371e-10
-1.56595e-09
1.47123e-09
2.12155e-09
1.19179e-09
4.33977e-09
4.9388e-10
4.65953e-09
2.55372e-09
-7.02608e-10
-1.06815e-10
-3.1605e-09
3.34843e-09
-7.6404e-09
9.31696e-09
-1.43144e-08
1.68052e-08
-2.32672e-08
2.50964e-08
-3.45074e-08
3.36657e-08
-4.79803e-08
4.21325e-08
-6.35813e-08
5.02292e-08
-8.11681e-08
5.77751e-08
-1.00572e-07
6.46552e-08
-1.21607e-07
7.08031e-08
-1.44076e-07
7.61875e-08
-1.67779e-07
8.08021e-08
-1.92515e-07
8.46571e-08
-2.18085e-07
8.77732e-08
-2.44295e-07
9.01764e-08
-2.70955e-07
9.18952e-08
-2.97882e-07
9.29571e-08
-3.24897e-07
9.33879e-08
-3.51827e-07
9.32098e-08
-3.78502e-07
9.24415e-08
-4.04758e-07
9.10978e-08
-4.30431e-07
8.919e-08
-4.5536e-07
8.67263e-08
-4.79389e-07
8.3713e-08
-5.02359e-07
8.01547e-08
-5.24119e-07
7.60562e-08
-5.44514e-07
7.14225e-08
-5.63397e-07
6.62609e-08
-5.80623e-07
6.05812e-08
-5.96051e-07
5.43972e-08
-6.09549e-07
4.77276e-08
-6.20988e-07
4.05963e-08
-6.30254e-07
3.30338e-08
-6.37239e-07
2.50772e-08
-6.41852e-07
1.67708e-08
-6.44015e-07
8.16633e-09
-6.43667e-07
-6.7699e-10
-6.40765e-07
-9.69273e-09
-6.35288e-07
-1.88074e-08
-6.27236e-07
-2.79413e-08
-6.16631e-07
-3.70087e-08
-6.03522e-07
-4.59193e-08
-5.87982e-07
-5.45791e-08
-5.70108e-07
-6.28918e-08
-5.50028e-07
-7.07599e-08
-5.2789e-07
-7.8087e-08
-5.0387e-07
-8.47784e-08
-4.78169e-07
-9.0744e-08
-4.51008e-07
-9.5899e-08
-4.2263e-07
-1.00167e-07
-3.93294e-07
-1.03479e-07
-3.63277e-07
-1.05781e-07
-3.32865e-07
-1.07026e-07
-3.02353e-07
-1.07187e-07
-2.7204e-07
-1.06247e-07
-2.42224e-07
-1.04208e-07
-2.13199e-07
-1.01088e-07
-1.85249e-07
-9.69245e-08
-1.58643e-07
-9.17705e-08
-1.33631e-07
-8.5699e-08
-1.10437e-07
-7.88013e-08
-8.92574e-08
-7.11879e-08
-7.02514e-08
-6.29887e-08
-5.35396e-08
-5.43539e-08
-3.91968e-08
-4.54556e-08
-2.72474e-08
-3.64894e-08
-1.76605e-08
-2.76774e-08
-1.03441e-08
-1.92727e-08
-5.14061e-09
-1.15645e-08
-1.82172e-09
-4.88484e-09
-8.30203e-11
3.82843e-10
4.62184e-10
3.79457e-09
2.92936e-10
4.82877e-09
2.84666e-09
-1.10725e-09
1.00055e-09
-4.60509e-09
6.84631e-09
-1.06272e-08
1.53391e-08
-1.92497e-08
2.54275e-08
-3.0487e-08
3.63336e-08
-4.42959e-08
4.74745e-08
-6.05829e-08
5.84194e-08
-7.92128e-08
6.88591e-08
-1.00018e-07
7.85807e-08
-1.22809e-07
8.74456e-08
-1.47377e-07
9.53715e-08
-1.73508e-07
1.02318e-07
-2.00979e-07
1.08274e-07
-2.29571e-07
1.13249e-07
-2.59063e-07
1.17266e-07
-2.89241e-07
1.20355e-07
-3.19895e-07
1.22549e-07
-3.50818e-07
1.23881e-07
-3.81812e-07
1.24381e-07
-4.1268e-07
1.24078e-07
-4.43232e-07
1.22993e-07
-4.7328e-07
1.21146e-07
-5.0264e-07
1.1855e-07
-5.3113e-07
1.15216e-07
-5.58571e-07
1.11154e-07
-5.84786e-07
1.0637e-07
-6.09601e-07
1.00871e-07
-6.32845e-07
9.46662e-08
-6.5435e-07
8.77657e-08
-6.73953e-07
8.01845e-08
-6.91498e-07
7.19422e-08
-7.06835e-07
6.3065e-08
-7.19825e-07
5.35858e-08
-7.30337e-07
4.3546e-08
-7.38255e-07
3.29954e-08
-7.43477e-07
2.19931e-08
-7.45919e-07
1.06077e-08
-7.45513e-07
-1.08288e-09
-7.42214e-07
-1.29913e-08
-7.36e-07
-2.50216e-08
-7.26872e-07
-3.70696e-08
-7.14857e-07
-4.90239e-08
-7.00009e-07
-6.07672e-08
-6.8241e-07
-7.21778e-08
-6.62171e-07
-8.31307e-08
-6.39431e-07
-9.35e-08
-6.14357e-07
-1.03161e-07
-5.87144e-07
-1.11991e-07
-5.58014e-07
-1.19874e-07
-5.27212e-07
-1.26701e-07
-4.95008e-07
-1.32371e-07
-4.61689e-07
-1.36799e-07
-4.2756e-07
-1.39909e-07
-3.92941e-07
-1.41646e-07
-3.58158e-07
-1.4197e-07
-3.23543e-07
-1.40861e-07
-2.89429e-07
-1.38322e-07
-2.56143e-07
-1.34375e-07
-2.24e-07
-1.29067e-07
-1.93303e-07
-1.22468e-07
-1.64331e-07
-1.14671e-07
-1.37336e-07
-1.05796e-07
-1.1254e-07
-9.59839e-08
-9.01256e-08
-8.54032e-08
-7.02322e-08
-7.42473e-08
-5.29511e-08
-6.27367e-08
-3.83199e-08
-5.11206e-08
-2.63177e-08
-3.96796e-08
-1.68608e-08
-2.87296e-08
-9.79859e-09
-1.86267e-08
-4.90985e-09
-9.77359e-09
-1.89949e-09
-2.62752e-09
-3.95138e-10
2.29021e-09
5.73695e-11
4.37626e-09
2.90403e-09
-1.51165e-09
2.51229e-09
-6.06462e-09
1.13993e-08
-1.36632e-08
2.29377e-08
-2.42825e-08
3.60467e-08
-3.78588e-08
4.99099e-08
-5.4289e-08
6.39046e-08
-7.34329e-08
7.75632e-08
-9.51188e-08
9.0545e-08
-1.1915e-07
1.02612e-07
-1.45311e-07
1.13606e-07
-1.73373e-07
1.23434e-07
-2.031e-07
1.32045e-07
-2.34253e-07
1.39426e-07
-2.66592e-07
1.45588e-07
-2.9988e-07
1.50553e-07
-3.33882e-07
1.54357e-07
-3.68371e-07
1.57037e-07
-4.03121e-07
1.58631e-07
-4.37914e-07
1.59175e-07
-4.72536e-07
1.587e-07
-5.06776e-07
1.57233e-07
-5.40428e-07
1.54797e-07
-5.73287e-07
1.51409e-07
-6.05154e-07
1.47083e-07
-6.35831e-07
1.4183e-07
-6.65121e-07
1.3566e-07
-6.92834e-07
1.28584e-07
-7.1878e-07
1.20612e-07
-7.42775e-07
1.11761e-07
-7.64641e-07
1.0205e-07
-7.84206e-07
9.15073e-08
-8.01307e-07
8.01658e-08
-8.1579e-07
6.80695e-08
-8.27516e-07
5.52716e-08
-8.36357e-07
4.18363e-08
-8.42203e-07
2.78388e-08
-8.44961e-07
1.33663e-08
-8.44561e-07
-1.48288e-09
-8.40954e-07
-1.65988e-08
-8.34115e-07
-3.18609e-08
-8.24045e-07
-4.71387e-08
-8.10776e-07
-6.22931e-08
-7.94366e-07
-7.71776e-08
-7.74903e-07
-9.16403e-08
-7.52508e-07
-1.05526e-07
-7.27332e-07
-1.18677e-07
-6.99554e-07
-1.30938e-07
-6.69387e-07
-1.42159e-07
-6.37069e-07
-1.52192e-07
-6.02869e-07
-1.60902e-07
-5.67076e-07
-1.68164e-07
-5.30003e-07
-1.73871e-07
-4.91984e-07
-1.77929e-07
-4.53362e-07
-1.80267e-07
-4.14496e-07
-1.80836e-07
-3.75748e-07
-1.7961e-07
-3.3748e-07
-1.7659e-07
-3.00051e-07
-1.71804e-07
-2.63809e-07
-1.6531e-07
-2.29084e-07
-1.57193e-07
-1.96186e-07
-1.47569e-07
-1.65396e-07
-1.36586e-07
-1.36961e-07
-1.24419e-07
-1.11088e-07
-1.11276e-07
-8.79383e-08
-9.73972e-08
-6.7622e-08
-8.30529e-08
-5.01941e-08
-6.85485e-08
-3.56489e-08
-5.42248e-08
-2.39167e-08
-4.04618e-08
-1.48605e-08
-2.76829e-08
-8.27363e-09
-1.63605e-08
-3.87848e-09
-7.02268e-09
-1.32588e-09
-2.6239e-10
-1.95648e-10
3.24604e-09
2.70838e-09
-1.90936e-09
4.42173e-09
-7.51352e-09
1.70035e-08
-1.66943e-08
3.21185e-08
-2.93256e-08
4.8678e-08
-4.52622e-08
6.58463e-08
-6.43354e-08
8.29777e-08
-8.63532e-08
9.95809e-08
-1.11103e-07
1.15294e-07
-1.38354e-07
1.29863e-07
-1.67863e-07
1.43116e-07
-1.99379e-07
1.5495e-07
-2.32645e-07
1.65311e-07
-2.67403e-07
1.74185e-07
-3.03397e-07
1.81581e-07
-3.4037e-07
1.87527e-07
-3.78075e-07
1.92061e-07
-4.16264e-07
1.95227e-07
-4.54699e-07
1.97065e-07
-4.93142e-07
1.97618e-07
-5.31363e-07
1.96921e-07
-5.69134e-07
1.95005e-07
-6.06233e-07
1.91896e-07
-6.42438e-07
1.87615e-07
-6.77533e-07
1.82178e-07
-7.11303e-07
1.756e-07
-7.43536e-07
1.67894e-07
-7.74024e-07
1.59072e-07
-8.02564e-07
1.49151e-07
-8.28955e-07
1.38152e-07
-8.53006e-07
1.26101e-07
-8.74531e-07
1.13032e-07
-8.93354e-07
9.89889e-08
-9.0931e-07
8.40262e-08
-9.22249e-07
6.82104e-08
-9.32034e-07
5.1621e-08
-9.38546e-07
3.43508e-08
-9.41686e-07
1.65065e-08
-9.41378e-07
-1.79134e-09
-9.37568e-07
-2.04089e-08
-9.30229e-07
-3.91995e-08
-9.19363e-07
-5.80046e-08
-9.05001e-07
-7.66556e-08
-8.87203e-07
-9.4975e-08
-8.66065e-07
-1.12779e-07
-8.41711e-07
-1.29879e-07
-8.14302e-07
-1.46086e-07
-7.84029e-07
-1.61211e-07
-7.51117e-07
-1.75071e-07
-7.15821e-07
-1.87488e-07
-6.78423e-07
-1.98299e-07
-6.39236e-07
-2.07352e-07
-5.98594e-07
-2.14513e-07
-5.56852e-07
-2.19671e-07
-5.14381e-07
-2.22737e-07
-4.71566e-07
-2.23651e-07
-4.28797e-07
-2.22379e-07
-3.86466e-07
-2.1892e-07
-3.44962e-07
-2.13308e-07
-3.04662e-07
-2.0561e-07
-2.65928e-07
-1.95927e-07
-2.29099e-07
-1.84398e-07
-1.94486e-07
-1.712e-07
-1.62361e-07
-1.56543e-07
-1.32959e-07
-1.40678e-07
-1.06466e-07
-1.23891e-07
-8.30142e-08
-1.06505e-07
-6.26798e-08
-8.88829e-08
-4.5477e-08
-7.14276e-08
-3.13552e-08
-5.45837e-08
-2.01963e-08
-3.88418e-08
-1.18141e-08
-2.47427e-08
-5.95396e-09
-1.28828e-08
-2.29537e-09
-3.92099e-09
-4.55785e-10
1.40645e-09
2.25259e-09
-2.29719e-09
6.71898e-09
-8.93712e-09
2.36435e-08
-1.9687e-08
4.28684e-08
-3.43222e-08
6.33131e-08
-5.26147e-08
8.41388e-08
-7.4328e-08
1.04691e-07
-9.92146e-08
1.24468e-07
-1.27017e-07
1.43097e-07
-1.57468e-07
1.60314e-07
-1.90295e-07
1.75943e-07
-2.25222e-07
1.89876e-07
-2.6197e-07
2.02059e-07
-3.00264e-07
2.12478e-07
-3.39828e-07
2.21145e-07
-3.80392e-07
2.28092e-07
-4.21693e-07
2.33362e-07
-4.63469e-07
2.37002e-07
-5.05465e-07
2.39061e-07
-5.47431e-07
2.39584e-07
-5.89122e-07
2.38611e-07
-6.30295e-07
2.36178e-07
-6.70713e-07
2.32314e-07
-7.1014e-07
2.27042e-07
-7.48344e-07
2.20382e-07
-7.85096e-07
2.12353e-07
-8.20171e-07
2.02968e-07
-8.53346e-07
1.92247e-07
-8.84402e-07
1.80208e-07
-9.13129e-07
1.66879e-07
-9.3932e-07
1.52292e-07
-9.62777e-07
1.36489e-07
-9.83313e-07
1.19525e-07
-1.00075e-06
1.01466e-07
-1.01493e-06
8.2392e-08
-1.02571e-06
6.23989e-08
-1.03296e-06
4.15981e-08
-1.03657e-06
2.01168e-08
-1.03646e-06
-1.90142e-09
-1.03257e-06
-2.42974e-08
-1.02487e-06
-4.6897e-08
-1.01337e-06
-6.95126e-08
-9.98077e-07
-9.19443e-08
-9.7907e-07
-1.13982e-07
-9.5644e-07
-1.35409e-07
-9.30318e-07
-1.56001e-07
-9.00868e-07
-1.75535e-07
-8.68292e-07
-1.93788e-07
-8.32822e-07
-2.1054e-07
-7.94727e-07
-2.25584e-07
-7.54305e-07
-2.38721e-07
-7.11883e-07
-2.49773e-07
-6.67816e-07
-2.5858e-07
-6.2248e-07
-2.65007e-07
-5.76269e-07
-2.68948e-07
-5.29594e-07
-2.70326e-07
-4.82872e-07
-2.69101e-07
-4.36523e-07
-2.65269e-07
-3.90967e-07
-2.58865e-07
-3.4661e-07
-2.49966e-07
-3.03847e-07
-2.3869e-07
-2.63046e-07
-2.25199e-07
-2.24549e-07
-2.09697e-07
-1.8866e-07
-1.92433e-07
-1.5564e-07
-1.73698e-07
-1.25703e-07
-1.53827e-07
-9.90087e-08
-1.33199e-07
-7.56584e-08
-1.12233e-07
-5.56901e-08
-9.13959e-08
-3.90766e-08
-7.11972e-08
-2.57235e-08
-5.21949e-08
-1.5469e-08
-3.49972e-08
-8.08546e-09
-2.02663e-08
-3.28313e-09
-8.72332e-09
-7.17304e-10
-1.15938e-09
1.53529e-09
-2.67367e-09
9.39273e-09
-1.03271e-08
3.12969e-08
-2.26206e-08
5.51618e-08
-3.92346e-08
7.99271e-08
-5.98598e-08
1.04764e-07
-8.41906e-08
1.29022e-07
-1.11922e-07
1.52199e-07
-1.4275e-07
1.73924e-07
-1.76369e-07
1.93933e-07
-2.12474e-07
2.12048e-07
-2.50762e-07
2.28165e-07
-2.90934e-07
2.42231e-07
-3.32694e-07
2.54238e-07
-3.75751e-07
2.64202e-07
-4.1982e-07
2.72161e-07
-4.64622e-07
2.78164e-07
-5.09884e-07
2.82264e-07
-5.55337e-07
2.84514e-07
-6.00718e-07
2.84965e-07
-6.4577e-07
2.83663e-07
-6.90237e-07
2.80645e-07
-7.33869e-07
2.75946e-07
-7.76418e-07
2.69591e-07
-8.17639e-07
2.61604e-07
-8.57291e-07
2.52004e-07
-8.95134e-07
2.40812e-07
-9.30934e-07
2.28047e-07
-9.64462e-07
2.13736e-07
-9.95492e-07
1.97909e-07
-1.02381e-06
1.80607e-07
-1.0492e-06
1.61881e-07
-1.07147e-06
1.41795e-07
-1.09043e-06
1.20427e-07
-1.10591e-06
9.78734e-08
-1.11776e-06
7.42456e-08
-1.12583e-06
4.96742e-08
-1.13002e-06
2.43078e-08
-1.13024e-06
-1.68605e-09
-1.12642e-06
-2.81222e-08
-1.11851e-06
-5.47983e-08
-1.10653e-06
-8.14963e-08
-1.09049e-06
-1.07984e-07
-1.07046e-06
-1.34018e-07
-1.04652e-06
-1.59345e-07
-1.01881e-06
-1.83706e-07
-9.8751e-07
-2.0684e-07
-9.52809e-07
-2.28488e-07
-9.14955e-07
-2.48395e-07
-8.74223e-07
-2.66316e-07
-8.30924e-07
-2.8202e-07
-7.854e-07
-2.95297e-07
-7.38023e-07
-3.05958e-07
-6.89188e-07
-3.13842e-07
-6.39312e-07
-3.18823e-07
-5.8883e-07
-3.20808e-07
-5.38185e-07
-3.19746e-07
-4.87827e-07
-3.15627e-07
-4.38204e-07
-3.08488e-07
-3.89756e-07
-2.98414e-07
-3.42909e-07
-2.85537e-07
-2.98064e-07
-2.70043e-07
-2.55596e-07
-2.52165e-07
-2.15842e-07
-2.32187e-07
-1.79095e-07
-2.10445e-07
-1.45601e-07
-1.87322e-07
-1.15549e-07
-1.63251e-07
-8.90695e-08
-1.38713e-07
-6.62287e-08
-1.14237e-07
-4.70269e-08
-9.0399e-08
-3.1397e-08
-6.78248e-08
-1.92048e-08
-4.71894e-08
-1.02514e-08
-2.92197e-08
-4.2788e-09
-1.4696e-08
-9.77546e-10
-4.46063e-09
5.57739e-10
-3.03817e-09
1.2431e-08
-1.16787e-08
3.99374e-08
-2.5482e-08
6.89651e-08
-4.40381e-08
9.84832e-08
-6.69581e-08
1.27684e-07
-9.38681e-08
1.55932e-07
-1.24406e-07
1.82737e-07
-1.58217e-07
2.07736e-07
-1.94959e-07
2.30674e-07
-2.34291e-07
2.51381e-07
-2.75885e-07
2.69759e-07
-3.19419e-07
2.85765e-07
-3.64576e-07
2.99395e-07
-4.1105e-07
3.10676e-07
-4.58543e-07
3.19653e-07
-5.0676e-07
3.26381e-07
-5.55417e-07
3.30921e-07
-6.04234e-07
3.33331e-07
-6.52937e-07
3.33669e-07
-7.01258e-07
3.31983e-07
-7.48929e-07
3.28317e-07
-7.9569e-07
3.22707e-07
-8.41283e-07
3.15183e-07
-8.8545e-07
3.05771e-07
-9.2794e-07
2.94494e-07
-9.68503e-07
2.81375e-07
-1.00689e-06
2.66437e-07
-1.04287e-06
2.49712e-07
-1.0762e-06
2.31237e-07
-1.10665e-06
2.11057e-07
-1.134e-06
1.89235e-07
-1.15805e-06
1.65843e-07
-1.1786e-06
1.40974e-07
-1.19546e-06
1.14736e-07
-1.20847e-06
8.72603e-08
-1.2175e-06
5.86952e-08
-1.2224e-06
2.92117e-08
-1.22309e-06
-9.98729e-10
-1.21949e-06
-3.17241e-08
-1.21155e-06
-6.27333e-08
-1.19927e-06
-9.37768e-08
-1.18266e-06
-1.24589e-07
-1.16179e-06
-1.54893e-07
-1.13674e-06
-1.84397e-07
-1.10764e-06
-2.12806e-07
-1.07466e-06
-2.39819e-07
-1.03801e-06
-2.65139e-07
-9.9793e-07
-2.88472e-07
-9.5471e-07
-3.09536e-07
-9.08667e-07
-3.28063e-07
-8.60155e-07
-3.43809e-07
-8.09561e-07
-3.56552e-07
-7.57298e-07
-3.66105e-07
-7.03805e-07
-3.72316e-07
-6.4954e-07
-3.75074e-07
-5.94973e-07
-3.74313e-07
-5.40582e-07
-3.70017e-07
-4.86848e-07
-3.62222e-07
-4.34244e-07
-3.51018e-07
-3.83229e-07
-3.36553e-07
-3.34241e-07
-3.19031e-07
-2.8769e-07
-2.98716e-07
-2.43949e-07
-2.75928e-07
-2.03348e-07
-2.51046e-07
-1.66167e-07
-2.24503e-07
-1.3263e-07
-1.96788e-07
-1.029e-07
-1.68443e-07
-7.70754e-08
-1.40061e-07
-5.5188e-08
-1.12286e-07
-3.72006e-08
-8.58122e-08
-2.3009e-08
-6.13811e-08
-1.24443e-08
-3.97843e-08
-5.27913e-09
-2.18612e-08
-1.23591e-09
-8.50385e-09
-6.78174e-10
-3.39045e-09
1.58214e-08
-1.29891e-08
4.95361e-08
-2.82627e-08
8.42387e-08
-4.87154e-08
1.18936e-07
-7.38813e-08
1.5285e-07
-1.0332e-07
1.8537e-07
-1.3661e-07
2.16027e-07
-1.73352e-07
2.44478e-07
-2.13159e-07
2.7048e-07
-2.55659e-07
2.93881e-07
-3.00495e-07
3.14595e-07
-3.47322e-07
3.32591e-07
-3.95805e-07
3.47878e-07
-4.45621e-07
3.60492e-07
-4.96457e-07
3.70489e-07
-5.48008e-07
3.77932e-07
-5.99977e-07
3.8289e-07
-6.52075e-07
3.85429e-07
-7.04018e-07
3.85612e-07
-7.55528e-07
3.83492e-07
-8.06328e-07
3.79118e-07
-8.5615e-07
3.72528e-07
-9.04724e-07
3.63757e-07
-9.51786e-07
3.52833e-07
-9.97073e-07
3.39782e-07
-1.04033e-06
3.24629e-07
-1.08129e-06
3.07403e-07
-1.11972e-06
2.88138e-07
-1.15536e-06
2.66878e-07
-1.18798e-06
2.43676e-07
-1.21734e-06
2.18601e-07
-1.24324e-06
1.91738e-07
-1.26546e-06
1.63191e-07
-1.28381e-06
1.33084e-07
-1.29811e-06
1.01563e-07
-1.30821e-06
6.87978e-08
-1.31398e-06
3.49798e-08
-1.3153e-06
3.25394e-10
-1.3121e-06
-3.49268e-08
-1.30432e-06
-7.05161e-08
-1.29193e-06
-1.06162e-07
-1.27496e-06
-1.41564e-07
-1.25344e-06
-1.76409e-07
-1.22747e-06
-2.10369e-07
-1.19717e-06
-2.43109e-07
-1.1627e-06
-2.74288e-07
-1.12427e-06
-3.03568e-07
-1.08213e-06
-3.30613e-07
-1.03656e-06
-3.55102e-07
-9.87898e-07
-3.76728e-07
-9.36499e-07
-3.95207e-07
-8.82766e-07
-4.10285e-07
-8.27129e-07
-4.21742e-07
-7.70047e-07
-4.29398e-07
-7.12001e-07
-4.3312e-07
-6.53489e-07
-4.32825e-07
-5.9502e-07
-4.28486e-07
-5.37105e-07
-4.20136e-07
-4.80254e-07
-4.07869e-07
-4.24962e-07
-3.91844e-07
-3.71707e-07
-3.72286e-07
-3.20937e-07
-3.49485e-07
-2.73067e-07
-3.23799e-07
-2.28464e-07
-2.95648e-07
-1.8745e-07
-2.65517e-07
-1.50286e-07
-2.33952e-07
-1.17173e-07
-2.01556e-07
-8.82459e-08
-1.68989e-07
-6.35695e-08
-1.36963e-07
-4.31403e-08
-1.06241e-07
-2.68855e-08
-7.76359e-08
-1.46668e-08
-5.2003e-08
-6.28592e-09
-3.0242e-08
-1.49323e-09
-1.32965e-08
-2.17141e-09
-3.73038e-09
1.95519e-08
-1.42564e-08
6.00621e-08
-3.09567e-08
1.00939e-07
-5.32536e-08
1.41233e-07
-8.06078e-08
1.80204e-07
-1.12513e-07
2.17275e-07
-1.48493e-07
2.52008e-07
-1.88099e-07
2.84083e-07
-2.30904e-07
3.13285e-07
-2.76502e-07
3.3948e-07
-3.24509e-07
3.62602e-07
-3.74556e-07
3.82638e-07
-4.26288e-07
3.99611e-07
-4.79369e-07
4.13573e-07
-5.33469e-07
4.24589e-07
-5.88274e-07
4.32737e-07
-6.43477e-07
4.38093e-07
-6.98778e-07
4.40731e-07
-7.53886e-07
4.4072e-07
-8.08514e-07
4.3812e-07
-8.62379e-07
4.32983e-07
-9.15204e-07
4.25353e-07
-9.66712e-07
4.15265e-07
-1.01663e-06
4.02752e-07
-1.06469e-06
3.87841e-07
-1.11062e-06
3.70561e-07
-1.15416e-06
3.50945e-07
-1.19506e-06
3.29031e-07
-1.23305e-06
3.04867e-07
-1.26788e-06
2.78515e-07
-1.29933e-06
2.5005e-07
-1.32716e-06
2.19568e-07
-1.35116e-06
1.87186e-07
-1.37111e-06
1.5304e-07
-1.38684e-06
1.17295e-07
-1.39818e-06
8.01372e-08
-1.40499e-06
4.17818e-08
-1.40713e-06
2.46845e-09
-1.40452e-06
-3.75375e-08
-1.39709e-06
-7.79459e-08
-1.38481e-06
-1.18444e-07
-1.36767e-06
-1.58698e-07
-1.34572e-06
-1.98357e-07
-1.31904e-06
-2.37055e-07
-1.28773e-06
-2.74416e-07
-1.25196e-06
-3.10057e-07
-1.21193e-06
-3.43597e-07
-1.16789e-06
-3.74658e-07
-1.12012e-06
-4.02874e-07
-1.06895e-06
-4.27895e-07
-1.01476e-06
-4.49397e-07
-9.57957e-07
-4.67087e-07
-8.98989e-07
-4.8071e-07
-8.38334e-07
-4.90053e-07
-7.76495e-07
-4.94958e-07
-7.13999e-07
-4.95321e-07
-6.51386e-07
-4.911e-07
-5.89201e-07
-4.82321e-07
-5.27991e-07
-4.6908e-07
-4.68292e-07
-4.51543e-07
-4.10624e-07
-4.29954e-07
-3.5548e-07
-4.0463e-07
-3.03316e-07
-3.75963e-07
-2.54546e-07
-3.44417e-07
-2.09535e-07
-3.10528e-07
-1.68587e-07
-2.749e-07
-1.31945e-07
-2.38198e-07
-9.97822e-08
-2.01151e-07
-7.22033e-08
-1.64542e-07
-4.92392e-08
-1.29205e-07
-3.08505e-08
-9.60246e-08
-1.69291e-08
-6.59243e-08
-7.30456e-09
-3.98666e-08
-1.75127e-09
-1.88498e-08
-3.92268e-09
-4.05782e-09
2.36097e-08
-1.54791e-08
7.14834e-08
-3.3559e-08
1.19019e-07
-5.76426e-08
1.65316e-07
-8.71199e-08
2.09681e-07
-1.21422e-07
2.51577e-07
-1.60019e-07
2.90604e-07
-2.02413e-07
3.26477e-07
-2.48138e-07
3.5901e-07
-2.96756e-07
3.88098e-07
-3.47853e-07
4.13699e-07
-4.01039e-07
4.35823e-07
-4.5594e-07
4.54512e-07
-5.12203e-07
4.69835e-07
-5.69487e-07
4.81874e-07
-6.27466e-07
4.90716e-07
-6.85824e-07
4.96451e-07
-7.44254e-07
4.99161e-07
-8.02458e-07
4.98923e-07
-8.6014e-07
4.95802e-07
-9.17013e-07
4.89856e-07
-9.72792e-07
4.81132e-07
-1.0272e-06
4.69668e-07
-1.07994e-06
4.555e-07
-1.13076e-06
4.38657e-07
-1.17937e-06
4.19172e-07
-1.22551e-06
3.9708e-07
-1.2689e-06
3.72423e-07
-1.30928e-06
3.45254e-07
-1.34641e-06
3.1564e-07
-1.38003e-06
2.83666e-07
-1.40989e-06
2.49436e-07
-1.43579e-06
2.13077e-07
-1.45749e-06
1.74743e-07
-1.4748e-06
1.34609e-07
-1.48755e-06
9.28848e-08
-1.49557e-06
4.98033e-08
-1.49873e-06
5.6285e-09
-1.49692e-06
-3.93478e-08
-1.49006e-06
-8.48064e-08
-1.4781e-06
-1.30403e-07
-1.46103e-06
-1.75768e-07
-1.43887e-06
-2.20515e-07
-1.41169e-06
-2.64237e-07
-1.37959e-06
-3.06517e-07
-1.34272e-06
-3.46928e-07
-1.30127e-06
-3.85044e-07
-1.25549e-06
-4.2044e-07
-1.20566e-06
-4.52704e-07
-1.15212e-06
-4.81441e-07
-1.09523e-06
-5.06281e-07
-1.03543e-06
-5.26889e-07
-9.73172e-07
-5.42969e-07
-9.08953e-07
-5.54273e-07
-8.43302e-07
-5.6061e-07
-7.76771e-07
-5.61851e-07
-7.09935e-07
-5.57937e-07
-6.43375e-07
-5.48881e-07
-5.77679e-07
-5.34776e-07
-5.13426e-07
-5.15796e-07
-4.51182e-07
-4.92198e-07
-3.91486e-07
-4.64326e-07
-3.34846e-07
-4.32603e-07
-2.81724e-07
-3.97539e-07
-2.32533e-07
-3.5972e-07
-1.87626e-07
-3.19807e-07
-1.47291e-07
-2.78533e-07
-1.11747e-07
-2.36695e-07
-8.11377e-08
-1.95151e-07
-5.55335e-08
-1.5481e-07
-3.4929e-08
-1.16629e-07
-1.9247e-08
-8.16063e-08
-8.34299e-09
-5.07706e-08
-2.01244e-09
-2.51804e-08
-5.93512e-09
-4.37258e-09
2.79823e-08
-1.66555e-08
8.37663e-08
-3.60652e-08
1.38429e-07
-6.1873e-08
1.91124e-07
-9.3402e-08
2.4121e-07
-1.30023e-07
2.88199e-07
-1.71154e-07
3.31735e-07
-2.16251e-07
3.71574e-07
-2.6481e-07
4.07569e-07
-3.1636e-07
4.39647e-07
-3.7046e-07
4.67799e-07
-4.26696e-07
4.92059e-07
-4.84678e-07
5.12494e-07
-5.44037e-07
5.29194e-07
-6.0442e-07
5.42257e-07
-6.65492e-07
5.51788e-07
-7.26927e-07
5.57886e-07
-7.88413e-07
5.60646e-07
-8.49643e-07
5.60153e-07
-9.10319e-07
5.56478e-07
-9.70147e-07
5.49685e-07
-1.02884e-06
5.39823e-07
-1.0861e-06
5.26935e-07
-1.14166e-06
5.11058e-07
-1.19523e-06
4.92226e-07
-1.24653e-06
4.70471e-07
-1.29528e-06
4.45833e-07
-1.34122e-06
4.18355e-07
-1.38406e-06
3.88097e-07
-1.42355e-06
3.5513e-07
-1.45943e-06
3.19545e-07
-1.49145e-06
2.81457e-07
-1.51937e-06
2.41001e-07
-1.54297e-06
1.98344e-07
-1.56204e-06
1.53677e-07
-1.57638e-06
1.07226e-07
-1.58582e-06
5.9244e-08
-1.59021e-06
1.00179e-08
-1.58943e-06
-4.01349e-08
-1.58337e-06
-9.08669e-08
-1.57197e-06
-1.41802e-07
-1.5552e-06
-1.92537e-07
-1.53307e-06
-2.42645e-07
-1.50562e-06
-2.91683e-07
-1.47295e-06
-3.39187e-07
-1.43519e-06
-3.84687e-07
-1.39253e-06