/*--------------------------------*- C++ -*----------------------------------*\
  =========                 |
  \\      /  F ield         | OpenFOAM: The Open Source CFD Toolbox
   \\    /   O peration     | Website:  https://openfoam.org
    \\  /    A nd           | Version:  12
     \\/     M anipulation  |
\*---------------------------------------------------------------------------*/
FoamFile
{
    format      ascii;
    class       volVectorField;
    location    "1.5";
    object      U;
}
// * * * * * * * * * * * * * * * * * * * * * * * * * * * * * * * * * * * * * //

dimensions      [0 1 -1 0 0 0 0];

internalField   nonuniform List<vector> 
5625
(
(8.90405e-06 -8.80436e-06 0)
(4.06185e-05 -1.26802e-05 0)
(7.09506e-05 -1.09707e-05 0)
(8.61413e-05 -6.69676e-06 0)
(7.696e-05 -1.70136e-06 0)
(4.03764e-05 3.33499e-06 0)
(-2.36993e-05 8.06806e-06 0)
(-0.000113927 1.23344e-05 0)
(-0.000228204 1.60782e-05 0)
(-0.000364058 1.93008e-05 0)
(-0.000518888 2.20307e-05 0)
(-0.00069011 2.43088e-05 0)
(-0.000875242 2.61799e-05 0)
(-0.00107195 2.76883e-05 0)
(-0.00127805 2.88753e-05 0)
(-0.00149155 2.97781e-05 0)
(-0.00171058 3.04287e-05 0)
(-0.00193344 3.08537e-05 0)
(-0.00215853 3.10743e-05 0)
(-0.00238436 3.11068e-05 0)
(-0.00260952 3.09625e-05 0)
(-0.00283266 3.06486e-05 0)
(-0.00305244 3.01683e-05 0)
(-0.00326756 2.95218e-05 0)
(-0.00347674 2.87071e-05 0)
(-0.00367868 2.77199e-05 0)
(-0.00387207 2.65551e-05 0)
(-0.00405559 2.52072e-05 0)
(-0.00422792 2.36707e-05 0)
(-0.00438771 2.1941e-05 0)
(-0.00453362 2.00152e-05 0)
(-0.00466434 1.7892e-05 0)
(-0.00477858 1.5573e-05 0)
(-0.00487507 1.30627e-05 0)
(-0.00495263 1.0368e-05 0)
(-0.00501017 7.49981e-06 0)
(-0.00504668 4.47453e-06 0)
(-0.00506131 1.32075e-06 0)
(-0.00505338 -1.95714e-06 0)
(-0.00502233 -5.31526e-06 0)
(-0.00496787 -8.72782e-06 0)
(-0.00488989 -1.21585e-05 0)
(-0.00478855 -1.55683e-05 0)
(-0.00466426 -1.89154e-05 0)
(-0.0045177 -2.21561e-05 0)
(-0.00434984 -2.52449e-05 0)
(-0.00416192 -2.81359e-05 0)
(-0.00395549 -3.07836e-05 0)
(-0.00373235 -3.31435e-05 0)
(-0.00349457 -3.51736e-05 0)
(-0.00324447 -3.6835e-05 0)
(-0.00298459 -3.80931e-05 0)
(-0.00271765 -3.89184e-05 0)
(-0.00244656 -3.92873e-05 0)
(-0.00217429 -3.91829e-05 0)
(-0.00190394 -3.85953e-05 0)
(-0.00163861 -3.75222e-05 0)
(-0.00138137 -3.5969e-05 0)
(-0.00113526 -3.39485e-05 0)
(-0.000903157 -3.14812e-05 0)
(-0.000687798 -2.85948e-05 0)
(-0.000491691 -2.53239e-05 0)
(-0.000317078 -2.17098e-05 0)
(-0.000165883 -1.78005e-05 0)
(-3.96592e-05 -1.36515e-05 0)
(6.04737e-05 -9.32819e-06 0)
(0.000133903 -4.90731e-06 0)
(0.000180625 -4.88304e-07 0)
(0.000201386 3.7941e-06 0)
(0.000197897 7.74245e-06 0)
(0.000173145 1.10573e-05 0)
(0.000131872 1.32888e-05 0)
(8.1657e-05 1.37239e-05 0)
(3.48122e-05 1.09635e-05 0)
(4.39434e-06 4.39135e-06 0)
(1.28615e-05 -4.05929e-05 0)
(6.03124e-05 -5.98789e-05 0)
(9.08087e-05 -4.00444e-05 0)
(7.88525e-05 1.06467e-06 0)
(6.68405e-06 5.20064e-05 0)
(-0.000133021 0.000105988 0)
(-0.000341596 0.000159036 0)
(-0.000616873 0.000208904 0)
(-0.000954541 0.000254397 0)
(-0.00134906 0.000294963 0)
(-0.00179429 0.000330448 0)
(-0.00228386 0.000360931 0)
(-0.00281147 0.000386624 0)
(-0.00337104 0.00040781 0)
(-0.00395675 0.000424799 0)
(-0.00456314 0.000437898 0)
(-0.00518507 0.000447395 0)
(-0.00581772 0.000453544 0)
(-0.00645656 0.00045656 0)
(-0.00709727 0.000456619 0)
(-0.00773576 0.000453853 0)
(-0.00836805 0.000448356 0)
(-0.0089903 0.000440187 0)
(-0.00959871 0.000429377 0)
(-0.0101895 0.000415931 0)
(-0.010759 0.000399841 0)
(-0.0113034 0.000381088 0)
(-0.011819 0.000359653 0)
(-0.012302 0.000335522 0)
(-0.0127487 0.000308693 0)
(-0.0131553 0.000279186 0)
(-0.0135184 0.000247046 0)
(-0.0138343 0.00021235 0)
(-0.0140996 0.000175212 0)
(-0.0143113 0.000135784 0)
(-0.0144664 9.42587e-05 0)
(-0.0145624 5.08837e-05 0)
(-0.0145969 6.02916e-06 0)
(-0.0145684 -4.01025e-05 0)
(-0.0144755 -8.70401e-05 0)
(-0.0143175 -0.000134364 0)
(-0.0140944 -0.000181605 0)
(-0.0138068 -0.000228257 0)
(-0.0134559 -0.000273786 0)
(-0.0130437 -0.000317638 0)
(-0.0125731 -0.000359246 0)
(-0.0120475 -0.000398043 0)
(-0.0114712 -0.00043347 0)
(-0.0108492 -0.000464989 0)
(-0.0101871 -0.000492091 0)
(-0.00949131 -0.000514314 0)
(-0.00876868 -0.000531248 0)
(-0.0080266 -0.000542546 0)
(-0.00727285 -0.000547938 0)
(-0.0065155 -0.000547235 0)
(-0.00576283 -0.000540336 0)
(-0.00502316 -0.000527234 0)
(-0.00430475 -0.000508022 0)
(-0.00361567 -0.000482888 0)
(-0.00296364 -0.000452125 0)
(-0.00235593 -0.000416124 0)
(-0.00179918 -0.000375375 0)
(-0.00129931 -0.000330473 0)
(-0.000861316 -0.000282116 0)
(-0.000489171 -0.000231121 0)
(-0.000185622 -0.000178443 0)
(4.8002e-05 -0.00012521 0)
(0.000212045 -7.27909e-05 0)
(0.000308854 -2.28951e-05 0)
(0.000343216 2.22632e-05 0)
(0.000322925 5.97281e-05 0)
(0.000259534 8.54674e-05 0)
(0.000169835 9.39949e-05 0)
(7.84919e-05 7.85341e-05 0)
(1.08824e-05 3.47198e-05 0)
(1.12701e-05 -7.14565e-05 0)
(4.09556e-05 -9.06911e-05 0)
(3.0106e-05 -2.9391e-05 0)
(-5.01067e-05 7.75452e-05 0)
(-0.000219812 0.000207392 0)
(-0.000488243 0.000345522 0)
(-0.000857576 0.000482625 0)
(-0.00132534 0.000612962 0)
(-0.00188598 0.000733172 0)
(-0.00253201 0.000841462 0)
(-0.00325483 0.000937061 0)
(-0.00404535 0.00101985 0)
(-0.00489432 0.00109013 0)
(-0.00579267 0.00114843 0)
(-0.0067316 0.00119539 0)
(-0.0077027 0.00123171 0)
(-0.00869798 0.00125804 0)
(-0.00970985 0.00127498 0)
(-0.0107311 0.00128308 0)
(-0.0117548 0.00128276 0)
(-0.0127743 0.00127437 0)
(-0.0137834 0.00125815 0)
(-0.0147756 0.00123429 0)
(-0.0157449 0.00120287 0)
(-0.0166851 0.00116394 0)
(-0.0175904 0.00111752 0)
(-0.0184546 0.00106359 0)
(-0.0192718 0.00100215 0)
(-0.0200361 0.000933196 0)
(-0.0207416 0.000856783 0)
(-0.0213825 0.000773012 0)
(-0.0219531 0.000682054 0)
(-0.0224481 0.000584166 0)
(-0.0228623 0.000479705 0)
(-0.0231908 0.000369133 0)
(-0.0234294 0.000253026 0)
(-0.023574 0.000132094 0)
(-0.0236216 7.18398e-06 0)
(-0.0235696 -0.000120784 0)
(-0.0234162 -0.000250735 0)
(-0.0231606 -0.000381484 0)
(-0.0228028 -0.000511747 0)
(-0.022344 -0.000640155 0)
(-0.0217864 -0.000765269 0)
(-0.0211331 -0.000885602 0)
(-0.0203886 -0.000999641 0)
(-0.0195586 -0.00110587 0)
(-0.0186496 -0.00120282 0)
(-0.0176694 -0.00128905 0)
(-0.0166268 -0.00136322 0)
(-0.0155317 -0.00142412 0)
(-0.0143945 -0.00147066 0)
(-0.0132267 -0.00150194 0)
(-0.0120401 -0.00151726 0)
(-0.0108472 -0.00151613 0)
(-0.00966055 -0.0014983 0)
(-0.00849295 -0.00146376 0)
(-0.00735698 -0.00141279 0)
(-0.00626495 -0.00134591 0)
(-0.00522863 -0.00126394 0)
(-0.00425906 -0.00116795 0)
(-0.00336634 -0.0010593 0)
(-0.0025594 -0.000939643 0)
(-0.00184577 -0.00081092 0)
(-0.00123136 -0.000675398 0)
(-0.000720167 -0.000535721 0)
(-0.000314027 -0.000394985 0)
(-1.22325e-05 -0.000256872 0)
(0.000188874 -0.000125842 0)
(0.00029641 -7.42346e-06 0)
(0.000321537 9.14063e-05 0)
(0.000280146 0.000161757 0)
(0.000194192 0.000192399 0)
(9.46441e-05 0.000169949 0)
(1.36262e-05 8.14509e-05 0)
(7.12753e-06 -8.74129e-05 0)
(-3.63324e-07 -7.89639e-05 0)
(-7.84531e-05 5.09757e-05 0)
(-0.000254538 0.000251831 0)
(-0.000546916 0.00048977 0)
(-0.000964477 0.0007419 0)
(-0.00150916 0.000992875 0)
(-0.0021779 0.00123272 0)
(-0.00296407 0.00145526 0)
(-0.00385871 0.00165691 0)
(-0.00485143 0.00183593 0)
(-0.00593099 0.00199174 0)
(-0.00708591 0.00212458 0)
(-0.00830468 0.00223515 0)
(-0.00957606 0.00232444 0)
(-0.0108892 0.00239354 0)
(-0.0122335 0.00244354 0)
(-0.0135991 0.00247548 0)
(-0.0149764 0.00249025 0)
(-0.016356 0.00248863 0)
(-0.0177291 0.00247123 0)
(-0.019087 0.00243852 0)
(-0.0204212 0.00239081 0)
(-0.0217235 0.00232832 0)
(-0.0229856 0.00225117 0)
(-0.0241995 0.00215942 0)
(-0.0253569 0.00205311 0)
(-0.02645 0.00193227 0)
(-0.0274709 0.00179699 0)
(-0.0284116 0.00164742 0)
(-0.0292647 0.00148382 0)
(-0.0300227 0.00130658 0)
(-0.0306785 0.00111626 0)
(-0.0312254 0.000913596 0)
(-0.0316573 0.000699518 0)
(-0.0319686 0.00047518 0)
(-0.0321543 0.000241962 0)
(-0.0322105 1.48015e-06 0)
(-0.032134 -0.000244457 0)
(-0.0319228 -0.000493804 0)
(-0.0315759 -0.000744312 0)
(-0.0310938 -0.000993555 0)
(-0.0304779 -0.00123895 0)
(-0.0297314 -0.0014778 0)
(-0.0288587 -0.00170732 0)
(-0.0278657 -0.00192468 0)
(-0.0267597 -0.00212707 0)
(-0.0255497 -0.00231173 0)
(-0.0242457 -0.002476 0)
(-0.0228594 -0.00261742 0)
(-0.0214033 -0.00273372 0)
(-0.0198913 -0.00282292 0)
(-0.0183382 -0.00288334 0)
(-0.0167593 -0.00291368 0)
(-0.0151708 -0.00291307 0)
(-0.013589 -0.00288105 0)
(-0.0120304 -0.00281765 0)
(-0.0105112 -0.00272338 0)
(-0.00904747 -0.00259926 0)
(-0.00765427 -0.00244684 0)
(-0.00634592 -0.00226818 0)
(-0.00513542 -0.00206587 0)
(-0.00403427 -0.00184305 0)
(-0.00305216 -0.00160343 0)
(-0.00219664 -0.00135132 0)
(-0.00147283 -0.00109174 0)
(-0.000883078 -0.000830486 0)
(-0.000426522 -0.000574374 0)
(-9.86986e-05 -0.000331468 0)
(0.000108967 -0.000111462 0)
(0.000209678 7.38538e-05 0)
(0.000221813 0.000210055 0)
(0.000170118 0.000279613 0)
(8.86608e-05 0.000261655 0)
(1.33688e-05 0.000132245 0)
(2.14637e-06 -7.86631e-05 0)
(-5.31274e-05 -5.24857e-06 0)
(-0.000214406 0.000223941 0)
(-0.000504704 0.000546047 0)
(-0.000937568 0.00091765 0)
(-0.0015197 0.00130828 0)
(-0.00225167 0.00169675 0)
(-0.00312918 0.00206873 0)
(-0.00414436 0.00241499 0)
(-0.00528688 0.00272993 0)
(-0.00654477 0.00301053 0)
(-0.00790511 0.0032556 0)
(-0.00935453 0.00346513 0)
(-0.0108796 0.00363994 0)
(-0.0124669 0.00378126 0)
(-0.0141036 0.00389058 0)
(-0.0157771 0.00396942 0)
(-0.0174752 0.00401924 0)
(-0.0191862 0.00404136 0)
(-0.0208988 0.0040369 0)
(-0.0226019 0.00400678 0)
(-0.0242849 0.00395172 0)
(-0.0259374 0.00387221 0)
(-0.0275489 0.00376863 0)
(-0.0291093 0.00364121 0)
(-0.0306086 0.00349008 0)
(-0.0320368 0.00331539 0)
(-0.0333841 0.00311725 0)
(-0.0346409 0.00289589 0)
(-0.0357975 0.00265164 0)
(-0.0368447 0.00238501 0)
(-0.0377737 0.00209669 0)
(-0.0385758 0.00178767 0)
(-0.0392431 0.00145918 0)
(-0.0397682 0.00111281 0)
(-0.0401445 0.000750433 0)
(-0.0403663 0.000374307 0)
(-0.040429 -1.29751e-05 0)
(-0.0403288 -0.000408486 0)
(-0.0400637 -0.000808961 0)
(-0.0396326 -0.00121083 0)
(-0.0390362 -0.00161025 0)
(-0.0382766 -0.00200314 0)
(-0.0373577 -0.00238526 0)
(-0.036285 -0.00275222 0)
(-0.0350657 -0.0030996 0)
(-0.0337087 -0.003423 0)
(-0.0322248 -0.0037181 0)
(-0.0306262 -0.00398078 0)
(-0.0289268 -0.00420717 0)
(-0.0271418 -0.00439376 0)
(-0.0252878 -0.00453744 0)
(-0.0233823 -0.00463564 0)
(-0.021444 -0.00468634 0)
(-0.019492 -0.00468817 0)
(-0.0175458 -0.00464044 0)
(-0.0156252 -0.00454323 0)
(-0.0137496 -0.00439735 0)
(-0.011938 -0.00420444 0)
(-0.0102085 -0.00396695 0)
(-0.00857838 -0.00368815 0)
(-0.00706304 -0.00337216 0)
(-0.00567628 -0.00302397 0)
(-0.00442971 -0.00264946 0)
(-0.00333241 -0.00225546 0)
(-0.00239061 -0.00184984 0)
(-0.00160728 -0.00144167 0)
(-0.00098176 -0.00104143 0)
(-0.000509296 -0.000661307 0)
(-0.000180642 -0.000315623 0)
(1.83942e-05 -2.13268e-05 0)
(0.000107386 0.00020141 0)
(0.00011228 0.000328611 0)
(6.79092e-05 0.000331705 0)
(1.15835e-05 0.000175933 0)
(-3.07761e-06 -4.11676e-05 0)
(-0.000111341 0.000140523 0)
(-0.000365062 0.000503016 0)
(-0.00078116 0.00097478 0)
(-0.00136652 0.00150483 0)
(-0.00212424 0.00205629 0)
(-0.0030525 0.00260279 0)
(-0.0041451 0.00312597 0)
(-0.00539257 0.00361361 0)
(-0.00678306 0.00405805 0)
(-0.00830309 0.00445494 0)
(-0.00993822 0.00480231 0)
(-0.0116734 0.00509988 0)
(-0.0134936 0.00534842 0)
(-0.0153838 0.00554939 0)
(-0.0173291 0.00570462 0)
(-0.0193152 0.00581602 0)
(-0.0213281 0.00588549 0)
(-0.0233542 0.00591475 0)
(-0.0253804 0.00590528 0)
(-0.0273937 0.00585833 0)
(-0.0293817 0.00577486 0)
(-0.031332 0.00565562 0)
(-0.0332326 0.00550112 0)
(-0.0350715 0.00531175 0)
(-0.0368368 0.00508778 0)
(-0.0385171 0.00482946 0)
(-0.0401007 0.00453708 0)
(-0.0415764 0.00421106 0)
(-0.0429331 0.00385197 0)
(-0.0441602 0.00346065 0)
(-0.0452473 0.00303823 0)
(-0.0461847 0.0025862 0)
(-0.0469632 0.00210645 0)
(-0.0475745 0.00160132 0)
(-0.048011 0.00107362 0)
(-0.0482664 0.000526622 0)
(-0.0483354 -3.59001e-05 0)
(-0.0482142 -0.000609706 0)
(-0.0479002 -0.0011901 0)
(-0.0473926 -0.00177196 0)
(-0.0466923 -0.00234979 0)
(-0.0458019 -0.00291779 0)
(-0.0447259 -0.0034699 0)
(-0.0434708 -0.00399993 0)
(-0.0420449 -0.0045016 0)
(-0.0404587 -0.00496867 0)
(-0.0387243 -0.00539505 0)
(-0.0368558 -0.00577492 0)
(-0.0348692 -0.00610282 0)
(-0.0327818 -0.00637379 0)
(-0.0306125 -0.00658346 0)
(-0.0283815 -0.00672819 0)
(-0.02611 -0.00680515 0)
(-0.0238198 -0.00681241 0)
(-0.0215333 -0.006749 0)
(-0.0192729 -0.00661503 0)
(-0.017061 -0.00641169 0)
(-0.0149193 -0.00614131 0)
(-0.0128686 -0.00580737 0)
(-0.0109285 -0.00541456 0)
(-0.00911684 -0.00496875 0)
(-0.0074495 -0.00447707 0)
(-0.00593989 -0.00394787 0)
(-0.00459864 -0.00339087 0)
(-0.00343313 -0.00281718 0)
(-0.00244721 -0.00223953 0)
(-0.00164072 -0.00167242 0)
(-0.00100914 -0.00113251 0)
(-0.000543214 -0.000638984 0)
(-0.00022858 -0.000214095 0)
(-4.54402e-05 0.000116227 0)
(3.21674e-05 0.000321676 0)
(3.8043e-05 0.000366386 0)
(9.00857e-06 0.000206288 0)
(-8.25796e-06 2.6546e-05 0)
(-0.000171617 0.000363284 0)
(-0.000522579 0.000895839 0)
(-0.00107117 0.00154711 0)
(-0.00181649 0.00226057 0)
(-0.00275705 0.00299433 0)
(-0.0038878 0.00371773 0)
(-0.00520004 0.00440894 0)
(-0.00668224 0.00505309 0)
(-0.00832083 0.0056406 0)
(-0.0101008 0.00616583 0)
(-0.012006 0.00662608 0)
(-0.0140203 0.00702069 0)
(-0.0161267 0.00735039 0)
(-0.018309 0.00761682 0)
(-0.0205506 0.00782208 0)
(-0.0228357 0.00796849 0)
(-0.0251486 0.00805832 0)
(-0.0274742 0.0080937 0)
(-0.0297976 0.00807646 0)
(-0.0321044 0.00800818 0)
(-0.0343804 0.0078901 0)
(-0.0366116 0.00772318 0)
(-0.0387844 0.00750814 0)
(-0.0408851 0.00724552 0)
(-0.0429005 0.00693577 0)
(-0.0448174 0.00657932 0)
(-0.0466227 0.00617665 0)
(-0.0483039 0.00572844 0)
(-0.0498484 0.00523558 0)
(-0.0512444 0.00469933 0)
(-0.0524802 0.00412132 0)
(-0.0535449 0.00350368 0)
(-0.0544285 0.00284907 0)
(-0.0551217 0.00216072 0)
(-0.0556162 0.00144248 0)
(-0.055905 0.00069883 0)
(-0.0559824 -6.5124e-05 0)
(-0.0558441 -0.000843655 0)
(-0.0554876 -0.00163045 0)
(-0.054912 -0.00241864 0)
(-0.0541183 -0.00320089 0)
(-0.0531097 -0.00396946 0)
(-0.0518911 -0.0047163 0)
(-0.0504699 -0.00543315 0)
(-0.0488553 -0.0061117 0)
(-0.0470589 -0.00674367 0)
(-0.0450942 -0.00732099 0)
(-0.042977 -0.00783595 0)
(-0.0407247 -0.00828132 0)
(-0.0383568 -0.00865051 0)
(-0.0358941 -0.00893777 0)
(-0.033359 -0.00913824 0)
(-0.030775 -0.00924818 0)
(-0.0281662 -0.009265 0)
(-0.0255576 -0.00918744 0)
(-0.0229741 -0.00901562 0)
(-0.0204406 -0.0087511 0)
(-0.0179813 -0.00839697 0)
(-0.0156193 -0.00795787 0)
(-0.0133767 -0.00744002 0)
(-0.0112735 -0.00685124 0)
(-0.00932759 -0.00620098 0)
(-0.00755416 -0.00550037 0)
(-0.00596544 -0.00476224 0)
(-0.00457017 -0.00400126 0)
(-0.00337327 -0.00323406 0)
(-0.00237547 -0.00247945 0)
(-0.00157291 -0.00175873 0)
(-0.000956889 -0.0010961 0)
(-0.000513535 -0.000519118 0)
(-0.000223572 -5.93636e-05 0)
(-6.19306e-05 0.000246849 0)
(2.90848e-06 0.000357114 0)
(6.08305e-06 0.00021991 0)
(-1.32649e-05 0.000124768 0)
(-0.000232086 0.000665059 0)
(-0.000682188 0.00140625 0)
(-0.00136649 0.0022681 0)
(-0.0022758 0.0031904 0)
(-0.00340336 0.00412763 0)
(-0.00474031 0.00504585 0)
(-0.00627489 0.00592049 0)
(-0.00799317 0.00673448 0)
(-0.00987954 0.00747664 0)
(-0.0119173 0.00814023 0)
(-0.0140888 0.00872189 0)
(-0.0163763 0.00922063 0)
(-0.0187618 0.00963717 0)
(-0.0212272 0.00997328 0)
(-0.0237549 0.0102314 0)
(-0.0263275 0.010414 0)
(-0.0289281 0.010524 0)
(-0.0315401 0.0105638 0)
(-0.0341471 0.0105355 0)
(-0.0367333 0.0104411 0)
(-0.0392831 0.0102821 0)
(-0.0417811 0.0100596 0)
(-0.044212 0.00977464 0)
(-0.0465611 0.00942792 0)
(-0.0488135 0.00902007 0)
(-0.0509547 0.00855173 0)
(-0.0529704 0.00802366 0)
(-0.0548465 0.00743682 0)
(-0.0565696 0.0067925 0)
(-0.0581264 0.00609244 0)
(-0.0595043 0.00533887 0)
(-0.0606915 0.00453466 0)
(-0.0616768 0.00368332 0)
(-0.0624503 0.0027891 0)
(-0.0630029 0.00185702 0)
(-0.0633271 0.000892886 0)
(-0.0634167 -9.67154e-05 0)
(-0.0632671 -0.00110442 0)
(-0.0628755 -0.00212215 0)
(-0.0622412 -0.00314112 0)
(-0.0613651 -0.00415199 0)
(-0.0602508 -0.0051449 0)
(-0.0589036 -0.00610963 0)
(-0.0573314 -0.00703569 0)
(-0.0555444 -0.00791254 0)
(-0.0535549 -0.00872968 0)
(-0.0513777 -0.0094769 0)
(-0.0490298 -0.0101444 0)
(-0.0465302 -0.010723 0)
(-0.0438998 -0.0112044 0)
(-0.0411613 -0.0115813 0)
(-0.038339 -0.0118474 0)
(-0.0354584 -0.011998 0)
(-0.032546 -0.0120298 0)
(-0.0296287 -0.0119411 0)
(-0.0267338 -0.0117321 0)
(-0.0238886 -0.0114046 0)
(-0.0211195 -0.0109626 0)
(-0.0184523 -0.0104119 0)
(-0.0159109 -0.0097604 0)
(-0.0135176 -0.00901792 0)
(-0.0112925 -0.00819644 0)
(-0.00925244 -0.00731002 0)
(-0.00741151 -0.00637485 0)
(-0.00577996 -0.00540932 0)
(-0.00436407 -0.00443418 0)
(-0.00316575 -0.00347272 0)
(-0.00218225 -0.00255101 0)
(-0.00140588 -0.00169828 0)
(-0.000823774 -0.00094737 0)
(-0.000417768 -0.000335291 0)
(-0.000164328 9.60639e-05 0)
(-3.50044e-05 0.000298581 0)
(3.06983e-06 0.000214988 0)
(-1.80528e-05 0.000253161 0)
(-0.000291737 0.0010461 0)
(-0.000841031 0.00203554 0)
(-0.00166189 0.00313993 0)
(-0.00273662 0.00429699 0)
(-0.0040529 0.00545885 0)
(-0.00559759 0.00658932 0)
(-0.00735552 0.00766187 0)
(-0.00930999 0.00865782 0)
(-0.0114431 0.00956479 0)
(-0.0137364 0.0103752 0)
(-0.0161705 0.0110852 0)
(-0.0187263 0.0116937 0)
(-0.0213843 0.0122013 0)
(-0.0241253 0.01261 0)
(-0.0269303 0.0129225 0)
(-0.0297809 0.0131418 0)
(-0.0326588 0.0132709 0)
(-0.0355461 0.0133127 0)
(-0.0384253 0.0132698 0)
(-0.0412792 0.0131442 0)
(-0.044091 0.0129379 0)
(-0.046844 0.0126522 0)
(-0.0495218 0.0122882 0)
(-0.0521082 0.011847 0)
(-0.0545873 0.0113294 0)
(-0.0569432 0.0107363 0)
(-0.0591605 0.0100686 0)
(-0.0612241 0.00932779 0)
(-0.0631192 0.00851554 0)
(-0.0648316 0.00763414 0)
(-0.0663479 0.00668651 0)
(-0.0676551 0.0056763 0)
(-0.0687413 0.00460798 0)
(-0.0695958 0.00348692 0)
(-0.070209 0.00231941 0)
(-0.0705726 0.00111269 0)
(-0.07068 -0.000125058 0)
(-0.0705263 -0.00138471 0)
(-0.0701084 -0.00265628 0)
(-0.0694255 -0.00392896 0)
(-0.0684785 -0.00519122 0)
(-0.0672711 -0.00643096 0)
(-0.0658089 -0.00763562 0)
(-0.0641003 -0.00879235 0)
(-0.0621559 -0.00988818 0)
(-0.0599889 -0.0109103 0)
(-0.057615 -0.0118461 0)
(-0.0550521 -0.0126835 0)
(-0.0523206 -0.0134114 0)
(-0.0494426 -0.0140195 0)
(-0.0464426 -0.0144986 0)
(-0.0433464 -0.0148412 0)
(-0.0401813 -0.0150414 0)
(-0.0369759 -0.0150949 0)
(-0.0337592 -0.0149997 0)
(-0.0305606 -0.0147558 0)
(-0.0274096 -0.0143655 0)
(-0.024335 -0.0138334 0)
(-0.0213647 -0.0131666 0)
(-0.018525 -0.0123747 0)
(-0.0158405 -0.0114697 0)
(-0.013333 -0.0104662 0)
(-0.0110218 -0.00938134 0)
(-0.00892277 -0.00823472 0)
(-0.00704783 -0.00704869 0)
(-0.00540498 -0.00584822 0)
(-0.00399765 -0.0046612 0)
(-0.00282453 -0.00351853 0)
(-0.00187933 -0.00245449 0)
(-0.00115065 -0.0015071 0)
(-0.000621837 -0.000718577 0)
(-0.000271334 -0.000135964 0)
(-7.4165e-05 0.000187689 0)
(1.08067e-07 0.000190685 0)
(-2.26185e-05 0.000411063 0)
(-0.00035004 0.00150557 0)
(-0.000997414 0.00278329 0)
(-0.00195401 0.00416274 0)
(-0.00319374 0.00558084 0)
(-0.00469853 0.0069886 0)
(-0.00645073 0.00834853 0)
(-0.00843148 0.00963293 0)
(-0.0106211 0.0108222 0)
(-0.0129992 0.0119031 0)
(-0.0155451 0.0128677 0)
(-0.0182382 0.0137119 0)
(-0.0210574 0.0144344 0)
(-0.0239821 0.0150362 0)
(-0.026992 0.0155194 0)
(-0.0300669 0.0158871 0)
(-0.0331871 0.0161425 0)
(-0.0363333 0.0162892 0)
(-0.0394865 0.0163303 0)
(-0.0426282 0.0162687 0)
(-0.0457401 0.0161069 0)
(-0.0488042 0.0158469 0)
(-0.0518027 0.0154905 0)
(-0.0547182 0.0150389 0)
(-0.0575334 0.0144934 0)
(-0.0602311 0.0138551 0)
(-0.0627946 0.013125 0)
(-0.0652073 0.0123046 0)
(-0.0674531 0.0113956 0)
(-0.0695162 0.0104002 0)
(-0.0713816 0.00932122 0)
(-0.0730348 0.0081624 0)
(-0.074462 0.00692823 0)
(-0.0756507 0.00562421 0)
(-0.0765892 0.00425688 0)
(-0.0772674 0.00283389 0)
(-0.0776763 0.00136399 0)
(-0.0778088 -0.000142916 0)
(-0.0776597 -0.00167587 0)
(-0.0772255 -0.00322287 0)
(-0.0765051 -0.00477095 0)
(-0.0754993 -0.00630631 0)
(-0.0742117 -0.00781446 0)
(-0.0726482 -0.00928037 0)
(-0.0708172 -0.0106887 0)
(-0.0687299 -0.0120239 0)
(-0.0663999 -0.0132705 0)
(-0.0638434 -0.0144137 0)
(-0.0610795 -0.0154389 0)
(-0.0581292 -0.0163326 0)
(-0.0550162 -0.0170825 0)
(-0.051766 -0.0176776 0)
(-0.0484062 -0.0181087 0)
(-0.0449657 -0.0183686 0)
(-0.0414747 -0.0184521 0)
(-0.0379645 -0.0183565 0)
(-0.0344665 -0.0180817 0)
(-0.0310123 -0.0176303 0)
(-0.0276331 -0.0170077 0)
(-0.0243589 -0.016222 0)
(-0.0212186 -0.0152847 0)
(-0.0182389 -0.01421 0)
(-0.0154441 -0.0130151 0)
(-0.0128555 -0.0117203 0)
(-0.0104911 -0.0103489 0)
(-0.00836498 -0.00892708 0)
(-0.00648699 -0.00748432 0)
(-0.0048624 -0.00605311 0)
(-0.0034917 -0.00466925 0)
(-0.00237034 -0.00337207 0)
(-0.00148869 -0.00220465 0)
(-0.000831934 -0.00121423 0)
(-0.000380732 -0.000452637 0)
(-0.000113701 2.27621e-05 0)
(-2.73778e-06 0.000146745 0)
(-2.69747e-05 0.000597655 0)
(-0.00040673 0.002042 0)
(-0.00115034 0.00364795 0)
(-0.00224074 0.00533515 0)
(-0.00364367 0.00704083 0)
(-0.00533527 0.00871582 0)
(-0.00729328 0.0103223 0)
(-0.00949499 0.0118322 0)
(-0.0119175 0.0132255 0)
(-0.0145378 0.0144889 0)
(-0.0173332 0.0156143 0)
(-0.0202811 0.0165975 0)
(-0.023359 0.0174377 0)
(-0.0265451 0.0181359 0)
(-0.0298176 0.0186948 0)
(-0.0331555 0.0191176 0)
(-0.0365379 0.0194082 0)
(-0.0399447 0.0195704 0)
(-0.0433559 0.0196077 0)
(-0.0467519 0.0195234 0)
(-0.0501136 0.0193203 0)
(-0.053422 0.0190006 0)
(-0.0566584 0.0185663 0)
(-0.0598044 0.0180189 0)
(-0.0628416 0.0173599 0)
(-0.0657521 0.0165907 0)
(-0.0685181 0.0157125 0)
(-0.0711221 0.0147272 0)
(-0.0735472 0.0136368 0)
(-0.0757766 0.0124442 0)
(-0.0777944 0.0111528 0)
(-0.0795853 0.00976702 0)
(-0.0811348 0.00829233 0)
(-0.0824295 0.00673529 0)
(-0.083457 0.00510369 0)
(-0.0842064 0.00340657 0)
(-0.0846683 0.0016543 0)
(-0.084835 -0.0001415 0)
(-0.0847006 -0.00196791 0)
(-0.0842612 -0.00381084 0)
(-0.0835154 -0.00565508 0)
(-0.0824637 -0.00748446 0)
(-0.0811094 -0.00928199 0)
(-0.0794583 -0.0110301 0)
(-0.077519 -0.0127106 0)
(-0.0753027 -0.0143055 0)
(-0.0728233 -0.0157967 0)
(-0.0700976 -0.0171664 0)
(-0.0671451 -0.0183978 0)
(-0.0639879 -0.0194747 0)
(-0.0606503 -0.0203827 0)
(-0.0571594 -0.0211087 0)
(-0.0535438 -0.0216417 0)
(-0.0498342 -0.0219729 0)
(-0.0460626 -0.0220962 0)
(-0.042262 -0.022008 0)
(-0.0384659 -0.0217081 0)
(-0.0347083 -0.021199 0)
(-0.0310226 -0.0204868 0)
(-0.0274413 -0.0195811 0)
(-0.0239955 -0.0184948 0)
(-0.0207147 -0.0172443 0)
(-0.0176254 -0.0158497 0)
(-0.0147515 -0.0143343 0)
(-0.0121134 -0.0127252 0)
(-0.00972741 -0.0110528 0)
(-0.00760561 -0.00935075 0)
(-0.00575544 -0.00765642 0)
(-0.00417944 -0.00601052 0)
(-0.00287514 -0.0044574 0)
(-0.0018349 -0.00304521 0)
(-0.00104599 -0.00182604 0)
(-0.000491367 -0.000856224 0)
(-0.000153196 -0.00019707 0)
(-5.44736e-06 8.32059e-05 0)
(-3.1138e-05 0.00081205 0)
(-0.000461681 0.00265351 0)
(-0.00129922 0.00462725 0)
(-0.00252072 0.00665479 0)
(-0.00408401 0.00867458 0)
(-0.00595958 0.0106382 0)
(-0.00812051 0.0125083 0)
(-0.0105402 0.0142571 0)
(-0.0131923 0.015865 0)
(-0.0160513 0.0173189 0)
(-0.0190922 0.018611 0)
(-0.0222905 0.0197377 0)
(-0.0256222 0.0206984 0)
(-0.0290641 0.0214948 0)
(-0.0325934 0.0221298 0)
(-0.0361879 0.0226074 0)
(-0.039826 0.0229318 0)
(-0.0434865 0.0231072 0)
(-0.0471486 0.0231376 0)
(-0.050792 0.0230265 0)
(-0.0543967 0.022777 0)
(-0.0579428 0.0223918 0)
(-0.0614109 0.0218729 0)
(-0.0647816 0.0212221 0)
(-0.068036 0.0204412 0)
(-0.0711551 0.0195316 0)
(-0.0741205 0.0184951 0)
(-0.0769137 0.0173338 0)
(-0.0795169 0.0160502 0)
(-0.0819128 0.0146475 0)
(-0.0840845 0.01313 0)
(-0.0860158 0.0115029 0)
(-0.0876917 0.00977248 0)
(-0.0890978 0.00794649 0)
(-0.0902211 0.00603395 0)
(-0.0910499 0.00404537 0)
(-0.0915742 0.00199273 0)
(-0.0917854 -0.000110536 0)
(-0.0916772 -0.00224953 0)
(-0.0912451 -0.004408 0)
(-0.0904869 -0.00656843 0)
(-0.089403 -0.00871219 0)
(-0.0879961 -0.0108197 0)
(-0.0862717 -0.0128707 0)
(-0.0842382 -0.0148443 0)
(-0.0819068 -0.0167196 0)
(-0.0792914 -0.0184756 0)
(-0.0764092 -0.0200918 0)
(-0.0732799 -0.0215487 0)
(-0.0699262 -0.0228274 0)
(-0.0663735 -0.023911 0)
(-0.0626495 -0.0247842 0)
(-0.0587844 -0.0254339 0)
(-0.0548102 -0.0258499 0)
(-0.0507606 -0.0260244 0)
(-0.0466705 -0.0259533 0)
(-0.0425756 -0.0256354 0)
(-0.038512 -0.0250737 0)
(-0.0345156 -0.0242748 0)
(-0.0306215 -0.0232491 0)
(-0.0268634 -0.0220114 0)
(-0.0232733 -0.0205802 0)
(-0.0198808 -0.0189782 0)
(-0.0167122 -0.0172323 0)
(-0.0137907 -0.015373 0)
(-0.0111351 -0.0134349 0)
(-0.00876006 -0.0114562 0)
(-0.00667552 -0.00947921 0)
(-0.00488636 -0.00754948 0)
(-0.00339238 -0.00571651 0)
(-0.0021882 -0.00403343 0)
(-0.00126325 -0.00255717 0)
(-0.000602853 -0.00134845 0)
(-0.000192544 -0.000472318 0)
(-8.02649e-06 2.15657e-07 0)
(-3.51238e-05 0.00105333 0)
(-0.000514832 0.00333801 0)
(-0.00144369 0.00571839 0)
(-0.00279303 0.00811853 0)
(-0.0045131 0.0104788 0)
(-0.00656887 0.0127523 0)
(-0.00892885 0.0149029 0)
(-0.0115624 0.016904 0)
(-0.0144401 0.0187367 0)
(-0.0175334 0.0203888 0)
(-0.0208152 0.0218534 0)
(-0.0242589 0.0231275 0)
(-0.0278392 0.0242113 0)
(-0.0315314 0.0251071 0)
(-0.0353117 0.0258186 0)
(-0.0391568 0.0263503 0)
(-0.0430443 0.0267068 0)
(-0.0469523 0.026893 0)
(-0.0508591 0.0269133 0)
(-0.0547437 0.0267715 0)
(-0.0585855 0.026471 0)
(-0.0623639 0.0260148 0)
(-0.0660587 0.0254051 0)
(-0.06965 0.0246441 0)
(-0.073118 0.0237335 0)
(-0.0764431 0.0226752 0)
(-0.0796061 0.0214711 0)
(-0.0825879 0.0201237 0)
(-0.0853699 0.018636 0)
(-0.0879341 0.0170118 0)
(-0.0902627 0.0152559 0)
(-0.092339 0.0133743 0)
(-0.094147 0.0113744 0)
(-0.0956716 0.00926479 0)
(-0.0968991 0.00705595 0)
(-0.097817 0.0047598 0)
(-0.0984145 0.00238994 0)
(-0.0986822 -3.83279e-05 0)
(-0.098613 -0.00250812 0)
(-0.0982018 -0.005001 0)
(-0.0974455 -0.00749708 0)
(-0.096344 -0.00997521 0)
(-0.0948993 -0.0124131 0)
(-0.0931165 -0.0147878 0)
(-0.0910035 -0.0170755 0)
(-0.088571 -0.0192523 0)
(-0.0858331 -0.0212943 0)
(-0.0828068 -0.023178 0)
(-0.079512 -0.0248808 0)
(-0.0759719 -0.0263812 0)
(-0.0722123 -0.0276594 0)
(-0.0682621 -0.0286978 0)
(-0.0641524 -0.029481 0)
(-0.0599167 -0.0299968 0)
(-0.0555903 -0.030236 0)
(-0.0512099 -0.0301931 0)
(-0.0468136 -0.0298666 0)
(-0.0424396 -0.029259 0)
(-0.0381265 -0.0283775 0)
(-0.033912 -0.0272334 0)
(-0.0298328 -0.025843 0)
(-0.0259238 -0.024227 0)
(-0.0222174 -0.0224108 0)
(-0.0187432 -0.0204245 0)
(-0.0155271 -0.0183024 0)
(-0.0125911 -0.0160833 0)
(-0.00995252 -0.0138102 0)
(-0.0076241 -0.0115301 0)
(-0.00561336 -0.0092936 0)
(-0.00392262 -0.00715547 0)
(-0.00254893 -0.00517391 0)
(-0.00148395 -0.00341067 0)
(-0.000715357 -0.00193093 0)
(-0.000231851 -0.000803459 0)
(-1.04964e-05 -0.000102094 0)
(-3.89446e-05 0.00132058 0)
(-0.000566147 0.00409325 0)
(-0.00158349 0.00691824 0)
(-0.00305701 0.00972265 0)
(-0.00492969 0.0124494 0)
(-0.00716117 0.0150539 0)
(-0.0097155 0.0175019 0)
(-0.0125582 0.0197683 0)
(-0.0156563 0.021836 0)
(-0.0189789 0.0236939 0)
(-0.0224962 0.0253364 0)
(-0.02618 0.0267617 0)
(-0.0300032 0.0279709 0)
(-0.0339399 0.0289673 0)
(-0.0379652 0.0297552 0)
(-0.042055 0.0303401 0)
(-0.046186 0.0307272 0)
(-0.0503355 0.0309219 0)
(-0.0544812 0.030929 0)
(-0.0586017 0.0307529 0)
(-0.0626754 0.0303972 0)
(-0.0666815 0.029865 0)
(-0.0705991 0.029159 0)
(-0.0744077 0.0282815 0)
(-0.0780869 0.0272344 0)
(-0.0816166 0.0260198 0)
(-0.0849768 0.02464 0)
(-0.0881479 0.0230977 0)
(-0.0911107 0.0213964 0)
(-0.0938463 0.0195404 0)
(-0.0963365 0.0175351 0)
(-0.0985636 0.0153873 0)
(-0.100511 0.0131052 0)
(-0.102163 0.0106987 0)
(-0.103504 0.00817949 0)
(-0.104522 0.00556083 0)
(-0.105205 0.00285802 0)
(-0.105543 8.81598e-05 0)
(-0.105526 -0.00272985 0)
(-0.105151 -0.00557534 0)
(-0.104412 -0.00842607 0)
(-0.103308 -0.0112583 0)
(-0.101842 -0.0140471 0)
(-0.100016 -0.0167664 0)
(-0.0978388 -0.0193897 0)
(-0.0953201 -0.0218898 0)
(-0.0924734 -0.0242398 0)
(-0.0893156 -0.026413 0)
(-0.0858667 -0.0283835 0)
(-0.08215 -0.030127 0)
(-0.0781918 -0.0316207 0)
(-0.0740216 -0.0328441 0)
(-0.0696716 -0.0337794 0)
(-0.0651766 -0.0344121 0)
(-0.0605734 -0.0347313 0)
(-0.0559009 -0.03473 0)
(-0.0511991 -0.0344058 0)
(-0.0465089 -0.0337609 0)
(-0.0418715 -0.0328025 0)
(-0.0373275 -0.0315429 0)
(-0.0329168 -0.0299997 0)
(-0.0286774 -0.0281956 0)
(-0.0246452 -0.0261588 0)
(-0.0208528 -0.0239226 0)
(-0.0173298 -0.0215251 0)
(-0.0141011 -0.0190094 0)
(-0.0111876 -0.0164232 0)
(-0.00860476 -0.0138183 0)
(-0.00636318 -0.0112509 0)
(-0.0044679 -0.00878086 0)
(-0.00291852 -0.0064716 0)
(-0.00170906 -0.00438991 0)
(-0.000829442 -0.00260552 0)
(-0.000271363 -0.00119114 0)
(-1.28899e-05 -0.000223696 0)
(-4.26084e-05 0.00161286 0)
(-0.000615593 0.00491687 0)
(-0.00171843 0.00822339 0)
(-0.00331212 0.011463 0)
(-0.00533275 0.0145819 0)
(-0.00773484 0.0175381 0)
(-0.0104781 0.0203 0)
(-0.0135243 0.0228448 0)
(-0.0168372 0.0251574 0)
(-0.0203831 0.0272286 0)
(-0.02413 0.0290544 0)
(-0.0280477 0.0306345 0)
(-0.0321078 0.0319713 0)
(-0.036283 0.0330692 0)
(-0.0405473 0.0339337 0)
(-0.0448757 0.034571 0)
(-0.0492442 0.0349872 0)
(-0.0536294 0.0351882 0)
(-0.0580087 0.0351795 0)
(-0.0623599 0.0349657 0)
(-0.0666611 0.0345509 0)
(-0.0708909 0.0339385 0)
(-0.075028 0.0331314 0)
(-0.0790514 0.0321319 0)
(-0.0829403 0.0309424 0)
(-0.086674 0.0295651 0)
(-0.090232 0.0280025 0)
(-0.0935942 0.0262577 0)
(-0.0967407 0.0243345 0)
(-0.0996521 0.0222376 0)
(-0.102309 0.0199733 0)
(-0.104694 0.0175489 0)
(-0.10679 0.0149736 0)
(-0.108578 0.0122582 0)
(-0.110045 0.00941569 0)
(-0.111175 0.00646078 0)
(-0.111957 0.00341032 0)
(-0.112379 0.000283211 0)
(-0.112431 -0.00289964 0)
(-0.112107 -0.00611538 0)
(-0.111402 -0.00933935 0)
(-0.110313 -0.0125452 0)
(-0.108841 -0.0157053 0)
(-0.106989 -0.0187906 0)
(-0.104764 -0.0217715 0)
(-0.102174 -0.0246176 0)
(-0.0992333 -0.0272986 0)
(-0.0959573 -0.0297846 0)
(-0.0923661 -0.0320464 0)
(-0.0884828 -0.0340561 0)
(-0.0843342 -0.0357878 0)