/*--------------------------------*- C++ -*----------------------------------*\
  =========                 |
  \\      /  F ield         | OpenFOAM: The Open Source CFD Toolbox
   \\    /   O peration     | Website:  https://openfoam.org
    \\  /    A nd           | Version:  12
     \\/     M anipulation  |
\*---------------------------------------------------------------------------*/
FoamFile
{
    format      ascii;
    class       surfaceScalarField;
    location    "1.5";
    object      phi;
}
// * * * * * * * * * * * * * * * * * * * * * * * * * * * * * * * * * * * * * //

dimensions      [0 3 -1 0 0 0 0];

internalField   nonuniform List<scalar> 
760
(
1.04736e-09
-1.04775e-09
3.90804e-09
-2.86079e-09
7.90498e-09
-3.99711e-09
1.23246e-08
-4.41948e-09
1.66162e-08
-4.29146e-09
2.04061e-08
-3.78965e-09
2.34708e-08
-3.06447e-09
2.56975e-08
-2.22631e-09
2.70416e-08
-1.34382e-09
2.74923e-08
-4.50111e-10
2.70476e-08
4.45016e-10
2.57084e-08
1.33985e-09
2.34845e-08
2.22436e-09
2.04202e-08
3.06495e-09
1.66285e-08
3.79245e-09
1.23335e-08
4.29588e-09
7.91019e-09
4.42441e-09
3.91007e-09
4.00129e-09
1.0478e-09
2.86325e-09
1.04827e-09
2.67816e-09
-3.72613e-09
8.60134e-09
-8.78398e-09
1.61202e-08
-1.1516e-08
2.39897e-08
-1.22889e-08
3.13297e-08
-1.16314e-08
3.75982e-08
-1.0058e-08
4.25234e-08
-7.98957e-09
4.6018e-08
-5.72066e-09
4.80924e-08
-3.41803e-09
4.8784e-08
-1.14144e-09
4.81095e-08
1.11976e-09
4.60493e-08
3.40037e-09
4.25636e-08
5.71018e-09
3.76409e-08
7.98795e-09
3.13686e-08
1.0065e-08
2.402e-08
1.16449e-08
1.61397e-08
1.23053e-08
8.61058e-09
1.1531e-08
2.68053e-09
8.79384e-09
3.72915e-09
3.17908e-09
-6.90522e-09
9.57939e-09
-1.51843e-08
1.69363e-08
-1.88729e-08
2.38169e-08
-1.91695e-08
2.94548e-08
-1.72692e-08
3.35949e-08
-1.41981e-08
3.63319e-08
-1.07266e-08
3.79466e-08
-7.33539e-09
3.87602e-08
-4.23179e-09
3.90143e-08
-1.39562e-09
3.87959e-08
1.33805e-09
3.80122e-08
4.18396e-09
3.64169e-08
7.30518e-09
3.3687e-08
1.07177e-08
2.95405e-08
1.42112e-08
2.38855e-08
1.72996e-08
1.69817e-08
1.92087e-08
9.60181e-09
1.89106e-08
3.18494e-09
1.52106e-08
6.91418e-09
2.58802e-09
-9.49317e-09
6.55542e-09
-1.91517e-08
9.42098e-09
-2.17384e-08
1.00106e-08
-1.97592e-08
8.1792e-09
-1.54379e-08
4.5031e-09
-1.05222e-08
-2.49435e-11
-6.19883e-09
-4.28296e-09
-3.07765e-09
-7.27692e-09
-1.23811e-09
-8.32982e-09
-3.43108e-10
-7.20551e-09
2.13403e-10
-4.15066e-09
1.12868e-09
1.48932e-10
3.00517e-09
4.69214e-09
6.17398e-09
8.35727e-09
1.05453e-08
1.01555e-08
1.55005e-08
9.51892e-09
1.98441e-08
6.60514e-09
2.18231e-08
2.60155e-09
1.92134e-08
9.51561e-09
5.69068e-10
-1.00622e-08
-2.04725e-09
-1.65354e-08
-1.00705e-08
-1.37152e-08
-2.37094e-08
-6.12043e-09
-4.16699e-08
2.5224e-09
-6.16942e-08
9.50174e-09
-8.10852e-08
1.31919e-08
-9.7187e-08
1.30237e-08
-1.0779e-07
9.3646e-09
-1.11445e-07
3.31146e-09
-1.07654e-07
-3.57829e-09
-9.6934e-08
-9.59175e-09
-8.07515e-08
-1.31779e-08
-6.1326e-08
-1.32521e-08
-4.13179e-08
-9.46364e-09
-2.3418e-08
-2.4005e-09
-9.8692e-09
6.29383e-09
-1.94205e-09
1.38946e-08
5.99039e-10
1.66714e-08
1.01144e-08
-3.8162e-09
-6.24596e-09
-1.97257e-08
-6.26047e-10
-4.88583e-08
1.54173e-08
-8.9295e-08
3.43161e-08
-1.36986e-07
5.02135e-08
-1.86667e-07
5.91827e-08
-2.32706e-07
5.923e-08
-2.69861e-07
5.01794e-08
-2.93921e-07
3.34239e-08
-3.02168e-07
1.15583e-08
-2.93676e-07
-1.20707e-08
-2.69404e-07
-3.38641e-08
-2.32096e-07
-5.04856e-08
-1.85988e-07
-5.93606e-08
-1.36327e-07
-5.91248e-08
-8.87393e-08
-4.99885e-08
-4.84655e-08
-3.39805e-08
-1.95142e-08
-1.50572e-08
-3.7534e-09
9.10129e-10
6.36085e-09
-1.2169e-08
5.92305e-09
-5.22727e-08
3.94777e-08
-1.18804e-07
8.19488e-08
-2.05773e-07
1.21285e-07
-3.043e-07
1.4874e-07
-4.04086e-07
1.58969e-07
-4.94739e-07
1.49884e-07
-5.6692e-07
1.2236e-07
-6.13273e-07
7.97776e-08
-6.29119e-07
2.7404e-08
-6.12865e-07
-2.83235e-08
-5.66153e-07
-8.05759e-08
-4.93708e-07
-1.2293e-07
-4.0292e-07
-1.50149e-07
-3.03148e-07
-1.58896e-07
-2.04782e-07
-1.48354e-07
-1.18086e-07
-1.20676e-07
-5.1875e-08
-8.12675e-08
-1.20453e-08
-3.89193e-08
-5.68447e-09
-2.69395e-08
3.28625e-08
-1.08385e-07
1.20923e-07
-2.37433e-07
2.10997e-07
-4.00892e-07
2.84745e-07
-5.81876e-07
3.29724e-07
-7.62084e-07
3.39177e-07
-9.23767e-07
3.11568e-07
-1.05138e-06
2.49976e-07
-1.1329e-06
1.61291e-07
-1.16072e-06
5.52305e-08
-1.13229e-06
-5.67545e-08
-1.05023e-06
-1.62632e-07
-9.22197e-07
-2.50966e-07
-7.60271e-07
-3.12074e-07
-5.80041e-07
-3.39125e-07
-3.99267e-07
-3.29126e-07
-2.36218e-07
-2.83723e-07
-1.07688e-07
-2.09796e-07
-2.67134e-08
-1.19893e-07
-3.23978e-08
-5.16512e-08
8.45137e-08
-2.00292e-07
2.69564e-07
-4.29009e-07
4.39714e-07
-7.12535e-07
5.68271e-07
-1.02131e-06
6.38498e-07
-1.32486e-06
6.4273e-07
-1.5946e-06
5.81308e-07
-1.80605e-06
4.61428e-07
-1.94056e-06
2.95796e-07
-1.98646e-06
1.01134e-07
-1.93982e-06
-1.03398e-07
-1.80462e-06
-2.97827e-07
-1.59259e-06
-4.63e-07
-1.32245e-06
-5.82212e-07
-1.01877e-06
-6.4281e-07
-7.10181e-07
-6.3771e-07
-4.27167e-07
-5.66737e-07
-1.99184e-07
-4.37779e-07
-5.12716e-08
-2.67804e-07
-8.36693e-08
-9.11113e-08
1.75625e-07
-3.44265e-07
5.22718e-07
-7.25117e-07
8.20567e-07
-1.18903e-06
1.03219e-06
-1.68721e-06
1.13668e-06
-2.17152e-06
1.12703e-06
-2.59817e-06
1.00796e-06
-2.93056e-06
7.93815e-07
-3.14122e-06
5.06462e-07
-3.21319e-06
1.73097e-07
-3.14069e-06
-1.75898e-07
-2.92945e-06
-5.09068e-07
-2.59645e-06
-7.95996e-07
-2.16923e-06
-1.00943e-06
-1.68453e-06
-1.12751e-06
-1.1863e-06
-1.13595e-06
-7.22777e-07
-1.03026e-06
-3.42737e-07
-8.17819e-07
-9.05433e-08
-5.19998e-07
-1.74213e-07
-1.51552e-07
3.27177e-07
-5.60617e-07
9.31782e-07
-1.16389e-06
1.42384e-06
-1.88681e-06
1.75511e-06
-2.65259e-06
1.90246e-06
-3.38871e-06
1.86315e-06
-4.03147e-06
1.65072e-06
-4.52901e-06
1.29136e-06
-4.84323e-06
8.20673e-07
-4.95081e-06
2.80676e-07
-4.84382e-06
-2.82879e-07
-4.52992e-06
-8.22969e-07
-4.03222e-06
-1.2937e-06
-3.38883e-06
-1.65282e-06
-2.65181e-06
-1.86453e-06
-1.88521e-06
-1.90254e-06
-1.16195e-06
-1.75352e-06
-5.59034e-07
-1.42074e-06
-1.50853e-07
-9.2818e-07
-3.25065e-07
-2.40638e-07
5.67816e-07
-8.72814e-07
1.56396e-06
-1.78666e-06
2.33768e-06
-2.86291e-06
2.83136e-06
-3.98586e-06
3.0254e-06
-5.05153e-06
2.92883e-06
-5.97247e-06
2.57165e-06
-6.67999e-06
1.99888e-06
-7.12498e-06
1.26567e-06
-7.27792e-06
4.33622e-07
-7.12871e-06
-4.32091e-07
-6.68662e-06
-1.26506e-06
-5.98054e-06
-1.99978e-06
-5.05934e-06
-2.57403e-06
-3.99192e-06
-2.93195e-06
-2.86642e-06
-3.02804e-06
-1.78774e-06
-2.83221e-06
-8.72442e-07
-2.33603e-06
-2.40121e-07
-1.5605e-06
-5.65187e-07
-3.67379e-07
9.35195e-07
-1.30524e-06
2.50181e-06
-2.63032e-06
3.66277e-06
-4.15852e-06
4.35957e-06
-5.72303e-06
4.58991e-06
-7.18336e-06
4.38916e-06
-8.42833e-06
3.81662e-06
-9.37525e-06
2.9458e-06
-9.96759e-06
1.85801e-06
-1.01723e-05
6.38337e-07
-9.97797e-06
-6.26432e-07
-9.39418e-06
-1.84885e-06
-8.45252e-06
-2.94144e-06
-7.20875e-06
-3.81779e-06
-5.7456e-06
-4.39509e-06
-4.17531e-06
-4.59833e-06
-2.64016e-06
-4.36735e-06
-1.30911e-06
-3.66708e-06
-3.67916e-07
-2.5017e-06
-9.33102e-07
-5.42348e-07
1.47754e-06
-1.87943e-06
3.83889e-06
-3.71274e-06
5.49608e-06
-5.76698e-06
6.4138e-06
-7.8142e-06
6.63713e-06
-9.6799e-06
6.25486e-06
-1.1239e-05
5.37569e-06
-1.24072e-05
4.11402e-06
-1.31319e-05
2.58269e-06
-1.33841e-05
8.9058e-07
-1.31537e-05
-8.56811e-07
-1.24476e-05
-2.55496e-06
-1.12919e-05
-4.09712e-06
-9.73768e-06
-5.37205e-06
-7.86849e-06
-6.26428e-06
-5.81059e-06
-6.65623e-06
-3.74151e-06
-6.43644e-06
-1.89335e-06
-5.51524e-06
-5.45772e-07
-3.84927e-06
-1.47887e-06
-7.7971e-07
2.25725e-06
-2.60872e-06
5.6679e-06
-5.00518e-06
7.89254e-06
-7.57233e-06
8.98095e-06
-1.00233e-05
9.08806e-06
-1.21714e-05
8.403e-06
-1.39078e-05
7.11204e-06
-1.51761e-05
5.38233e-06
-1.5951e-05
3.35763e-06
-1.6223e-05
1.16254e-06
-1.59883e-05
-1.09147e-06
-1.52462e-05
-3.29706e-06
-1.4002e-05
-5.34132e-06
-1.22773e-05
-7.09679e-06
-1.01266e-05
-8.41491e-06
-7.65969e-06
-9.12317e-06
-5.06688e-06
-9.02925e-06
-2.6415e-06
-7.94063e-06
-7.89137e-07
-5.70164e-06
-2.26801e-06
-1.10169e-06
3.35894e-06
-3.48333e-06
8.04954e-06
-6.36853e-06
1.07777e-05
-9.21994e-06
1.18324e-05
-1.17339e-05
1.16021e-05
-1.3777e-05
1.0446e-05
-1.53198e-05
8.65489e-06
-1.63861e-05
6.44865e-06
-1.70154e-05
3.98693e-06
-1.72386e-05
1.38568e-06
-1.70654e-05
-1.26465e-06
-1.64811e-05
-3.8814e-06
-1.54499e-05
-6.37246e-06
-1.39282e-05
-8.61854e-06
-1.18887e-05
-1.04544e-05
-9.35877e-06
-1.16531e-05
-6.47333e-06
-1.19147e-05
-3.54357e-06
-1.08704e-05
-1.12096e-06
-8.12424e-06
-3.38897e-06
-1.52445e-06
4.88339e-06
-4.388e-06
1.09131e-05
-7.35023e-06
1.374e-05
-9.78914e-06
1.42713e-05
-1.15361e-05
1.33491e-05
-1.26536e-05
1.15635e-05
-1.32936e-05
9.29483e-06
-1.3619e-05
6.77414e-06
-1.37652e-05
4.13307e-06
-1.38189e-05
1.43937e-06
-1.38096e-05
-1.27397e-06
-1.37061e-05
-3.98483e-06
-1.34187e-05
-6.65983e-06
-1.28077e-05
-9.22962e-06
-1.17034e-05
-1.15587e-05
-9.94917e-06
-1.34073e-05
-7.48128e-06
-1.43826e-05
-4.47089e-06
-1.38808e-05
-1.55345e-06
-1.10417e-05
-4.94242e-06
-1.99001e-06
6.87339e-06
-4.75715e-06
1.36802e-05
-6.47115e-06
1.5454e-05
-6.87492e-06
1.4675e-05
-6.3082e-06
1.27823e-05
-5.20671e-06
1.0462e-05
-3.95709e-06
8.04522e-06
-2.85888e-06
5.67593e-06
-2.11849e-06
3.39268e-06
-1.85601e-06
1.17689e-06
-2.1126e-06
-1.01738e-06
-2.85289e-06
-3.24454e-06
-3.9607e-06
-5.55202e-06
-5.23026e-06
-7.96006e-06
-6.35772e-06
-1.04312e-05
-6.94613e-06
-1.28189e-05
-6.54792e-06
-1.47808e-05
-4.81716e-06
-1.56115e-05
-2.01751e-06
-1.38413e-05
-6.95993e-06
-2.72173e-06
9.59512e-06
-2.2527e-06
1.32112e-05
1.18062e-06
1.20207e-05
5.89465e-06
9.961e-06
1.08159e-05
7.86112e-06
1.5322e-05
5.95593e-06
1.90574e-05
4.30981e-06
2.18281e-05
2.90519e-06
2.35363e-05
1.68447e-06
2.41375e-05
5.75673e-07
2.36166e-05
-4.96496e-07
2.19793e-05
-1.60722e-06
1.92619e-05
-2.83458e-06
1.55532e-05
-4.25136e-06
1.10406e-05
-5.91863e-06
6.07861e-06
-7.85694e-06
1.29916e-06
-1.00013e-05
-2.20373e-06
-1.21087e-05
-2.71841e-06
-1.33267e-05
-9.67833e-06
9.59512e-06
2.28063e-05
3.4827e-05
4.4788e-05
5.26491e-05
5.8605e-05
6.29149e-05
6.582e-05
6.75045e-05
6.80802e-05
6.75837e-05
6.59765e-05
6.31419e-05
5.88905e-05
5.29719e-05
4.5115e-05
3.51137e-05
2.3005e-05
9.67833e-06
)
;

boundaryField
{
    movingWall
    {
        type            calculated;
        value           uniform 0;
    }
    fixedWalls
    {
        type            calculated;
        value           uniform 0;
    }
    frontAndBack
    {
        type            empty;
    }
}


// ************************************************************************* //
