/*--------------------------------*- C++ -*----------------------------------*\
  =========                 |
  \\      /  F ield         | OpenFOAM: The Open Source CFD Toolbox
   \\    /   O peration     | Website:  https://openfoam.org
    \\  /    A nd           | Version:  12
     \\/     M anipulation  |
\*---------------------------------------------------------------------------*/
FoamFile
{
    format      ascii;
    class       volScalarField;
    location    "2";
    object      nut;
}
// * * * * * * * * * * * * * * * * * * * * * * * * * * * * * * * * * * * * * //

dimensions      [0 2 -1 0 0 0 0];

internalField   nonuniform List<scalar> 
5625
(
2.70693e-14
1.82765e-13
4.04532e-13
6.63706e-13
9.44774e-13
1.2366e-12
1.5305e-12
1.81973e-12
2.09942e-12
2.36658e-12
2.62005e-12
2.86052e-12
3.09041e-12
3.31374e-12
3.53598e-12
3.76383e-12
4.00503e-12
4.26807e-12
4.56201e-12
4.89619e-12
5.28e-12
5.72262e-12
6.23282e-12
6.8187e-12
7.48757e-12
8.24578e-12
9.09867e-12
1.00506e-11
1.11048e-11
1.2264e-11
1.353e-11
1.49044e-11
1.63885e-11
1.79835e-11
1.96907e-11
2.15114e-11
2.34465e-11
2.54971e-11
2.76635e-11
2.99451e-11
3.23404e-11
3.4846e-11
3.74564e-11
4.0163e-11
4.29538e-11
4.58116e-11
4.87133e-11
5.16284e-11
5.45176e-11
5.73315e-11
6.00088e-11
6.24757e-11
6.4644e-11
6.64049e-11
6.75913e-11
6.81194e-11
6.81272e-11
6.72468e-11
6.54344e-11
6.26802e-11
5.90101e-11
5.45044e-11
4.93051e-11
4.36106e-11
3.76587e-11
3.17021e-11
2.59783e-11
2.06835e-11
1.59531e-11
1.18556e-11
8.39721e-12
5.53921e-12
3.22441e-12
1.41832e-12
2.08954e-13
8.17914e-13
2.66222e-11
6.64189e-11
1.11744e-10
1.60443e-10
2.108e-10
2.61394e-10
3.11096e-10
3.59085e-10
4.04852e-10
4.48206e-10
4.8927e-10
5.28463e-10
5.66481e-10
6.04264e-10
6.42963e-10
6.83896e-10
7.28525e-10
7.78398e-10
8.35108e-10
9.00251e-10
9.75385e-10
1.06199e-09
1.16142e-09
1.27491e-09
1.40348e-09
1.54802e-09
1.70919e-09
1.88752e-09
2.08337e-09
2.29699e-09
2.52856e-09
2.77824e-09
3.04616e-09
3.33244e-09
3.63724e-09
3.96069e-09
4.3029e-09
4.66391e-09
5.04366e-09
5.44192e-09
5.85822e-09
6.29182e-09
6.74153e-09
7.20562e-09
7.68162e-09
8.16614e-09
8.65463e-09
9.14112e-09
9.61793e-09
1.00754e-08
1.05018e-08
1.08825e-08
1.11999e-08
1.14239e-08
1.15284e-08
1.15534e-08
1.14241e-08
1.11346e-08
1.0682e-08
1.00689e-08
9.30801e-09
8.42313e-09
7.44876e-09
6.42692e-09
5.40258e-09
4.4182e-09
3.50867e-09
2.69789e-09
1.99744e-09
1.40766e-09
9.20408e-10
5.23061e-10
2.0491e-10
6.31057e-12
1.73529e-12
1.41996e-10
4.53196e-10
8.14981e-10
1.19901e-09
1.59273e-09
1.98608e-09
2.37087e-09
2.74103e-09
3.09282e-09
3.42491e-09
3.73834e-09
4.03645e-09
4.32467e-09
4.61029e-09
4.90219e-09
5.21051e-09
5.54638e-09
5.92153e-09
6.34798e-09
6.83766e-09
7.40209e-09
8.05207e-09
8.79739e-09
9.64658e-09
1.06067e-08
1.16834e-08
1.28808e-08
1.42014e-08
1.56469e-08
1.72178e-08
1.89144e-08
2.07364e-08
2.26838e-08
2.47567e-08
2.69552e-08
2.92799e-08
3.17314e-08
3.43102e-08
3.70165e-08
3.98497e-08
4.28085e-08
4.589e-08
4.90891e-08
5.23975e-08
5.58025e-08
5.92854e-08
6.28195e-08
6.63686e-08
6.98836e-08
7.33003e-08
7.65369e-08
7.94926e-08
8.20516e-08
8.39748e-08
8.49793e-08
8.55463e-08
8.49309e-08
8.3096e-08
7.99962e-08
7.56265e-08
7.0063e-08
6.3479e-08
5.61413e-08
4.83859e-08
4.05781e-08
3.30655e-08
2.61329e-08
1.9972e-08
1.46703e-08
1.02194e-08
6.53663e-09
3.50084e-09
1.08572e-09
1.33492e-11
2.83426e-12
3.31794e-10
1.35104e-09
2.6729e-09
4.09157e-09
5.53851e-09
6.97481e-09
8.37152e-09
9.7076e-09
1.09703e-08
1.21553e-08
1.32671e-08
1.43179e-08
1.53277e-08
1.63228e-08
1.7335e-08
1.84003e-08
1.95579e-08
2.08485e-08
2.23134e-08
2.39931e-08
2.59259e-08
2.81468e-08
3.06865e-08
3.35705e-08
3.68186e-08
4.04446e-08
4.44567e-08
4.88578e-08
5.36464e-08
5.88185e-08
6.43685e-08
7.02909e-08
7.6581e-08
8.32355e-08
9.02537e-08
9.76371e-08
1.0539e-07
1.13516e-07
1.22025e-07
1.30921e-07
1.40213e-07
1.49906e-07
1.6e-07
1.70489e-07
1.81353e-07
1.92554e-07
2.0403e-07
2.15688e-07
2.2739e-07
2.38942e-07
2.50085e-07
2.60473e-07
2.69938e-07
2.77254e-07
2.81455e-07
2.84636e-07
2.83741e-07
2.78654e-07
2.69163e-07
2.55184e-07
2.36925e-07
2.14956e-07
1.90195e-07
1.63827e-07
1.37156e-07
1.11433e-07
8.76838e-08
6.65968e-08
4.84741e-08
3.32587e-08
2.06228e-08
1.01961e-08
2.5208e-09
2.16762e-11
4.07939e-12
5.58083e-10
2.72098e-09
5.94969e-09
9.56404e-09
1.32754e-08
1.69486e-08
2.05008e-08
2.3877e-08
2.7045e-08
2.99952e-08
3.27395e-08
3.53102e-08
3.7758e-08
4.01491e-08
4.25625e-08
4.5087e-08
4.78174e-08
5.08514e-08
5.42861e-08
5.82146e-08
6.27227e-08
6.78863e-08
7.37684e-08
8.04177e-08
8.78677e-08
9.6136e-08
1.05226e-07
1.15128e-07
1.25825e-07
1.37291e-07
1.49505e-07
1.62445e-07
1.76095e-07
1.90447e-07
2.05503e-07
2.21275e-07
2.37782e-07
2.55055e-07
2.73129e-07
2.92046e-07
3.11847e-07
3.3258e-07
3.54283e-07
3.76977e-07
4.00654e-07
4.25267e-07
4.50709e-07
4.76801e-07
5.03254e-07
5.29642e-07
5.55368e-07
5.79613e-07
6.02371e-07
6.19829e-07
6.30337e-07
6.38897e-07
6.38006e-07
6.2743e-07
6.06801e-07
5.75878e-07
5.35121e-07
4.85812e-07
4.30025e-07
3.70436e-07
3.10003e-07
2.51575e-07
1.97508e-07
1.4939e-07
1.07918e-07
7.29527e-08
4.37859e-08
2.00249e-08
4.20178e-09
3.0931e-11
5.44583e-12
8.03805e-10
4.41974e-09
1.05532e-08
1.78476e-08
2.54887e-08
3.30781e-08
4.03953e-08
4.73086e-08
5.37459e-08
5.96861e-08
6.51544e-08
7.0218e-08
7.49812e-08
7.95789e-08
8.41698e-08
8.89296e-08
9.40436e-08
9.96993e-08
1.06079e-07
1.13354e-07
1.21677e-07
1.31175e-07
1.4195e-07
1.54072e-07
1.67578e-07
1.82477e-07
1.98749e-07
2.16353e-07
2.35234e-07
2.55332e-07
2.76597e-07
2.99009e-07
3.2253e-07
3.47157e-07
3.72913e-07
3.99842e-07
4.28009e-07
4.57498e-07
4.88405e-07
5.20838e-07
5.54897e-07
5.90708e-07
6.2837e-07
6.67951e-07
7.09464e-07
7.52836e-07
7.97882e-07
8.44279e-07
8.91488e-07
9.38707e-07
9.84827e-07
1.02825e-06
1.06875e-06
1.09972e-06
1.1179e-06
1.13231e-06
1.12983e-06
1.10987e-06
1.07211e-06
1.01642e-06
9.43755e-07
8.56458e-07
7.58132e-07
6.5334e-07
5.47082e-07
4.44179e-07
3.48648e-07
2.63236e-07
1.89188e-07
1.26334e-07
7.37098e-08
3.16544e-08
5.97698e-09
4.08339e-11
6.91761e-12
1.06365e-09
6.32556e-09
1.62044e-08
2.87281e-08
4.22302e-08
5.57725e-08
6.88375e-08
8.11279e-08
9.2488e-08
1.0287e-07
1.12315e-07
1.20944e-07
1.28943e-07
1.3655e-07
1.44043e-07
1.51726e-07
1.59911e-07
1.68913e-07
1.79029e-07
1.90531e-07
2.03653e-07
2.18583e-07
2.3546e-07
2.54368e-07
2.75345e-07
2.98369e-07
3.23381e-07
3.50294e-07
3.79009e-07
4.09417e-07
4.41437e-07
4.74998e-07
5.10097e-07
5.46759e-07
5.85051e-07
6.25079e-07
6.66985e-07
7.1094e-07
7.5714e-07
8.05793e-07
8.57128e-07
9.1132e-07
9.68533e-07
1.02887e-06
1.09234e-06
1.15881e-06
1.22793e-06
1.29904e-06
1.37111e-06
1.44268e-06
1.51177e-06
1.57597e-06
1.63344e-06
1.67762e-06
1.70102e-06
1.71707e-06
1.70791e-06
1.67203e-06
1.6101e-06
1.52245e-06
1.41084e-06
1.27887e-06
1.13173e-06
9.75852e-07
8.18163e-07
6.65345e-07
5.23e-07
3.95018e-07
2.83231e-07
1.87558e-07
1.07147e-07
4.39848e-08
7.78582e-09
5.11818e-11
8.48455e-12
1.33608e-09
8.36642e-09
2.26125e-08
4.17537e-08
6.30656e-08
8.47491e-08
1.05746e-07
1.25451e-07
1.43549e-07
1.59931e-07
1.74653e-07
1.87907e-07
1.9999e-07
2.11286e-07
2.22236e-07
2.33316e-07
2.45013e-07
2.57802e-07
2.7213e-07
2.88391e-07
3.06918e-07
3.27965e-07
3.51705e-07
3.78223e-07
4.07528e-07
4.39566e-07
4.74228e-07
5.11372e-07
5.50848e-07
5.92532e-07
6.3631e-07
6.82117e-07
7.2997e-07
7.79942e-07
8.32169e-07
8.86839e-07
9.44188e-07
1.00449e-06
1.06804e-06
1.13515e-06
1.20613e-06
1.28123e-06
1.36064e-06
1.44444e-06
1.53255e-06
1.6246e-06
1.71989e-06
1.81725e-06
1.91494e-06
2.01065e-06
2.1014e-06
2.18371e-06
2.25377e-06
2.30433e-06
2.32834e-06
2.33846e-06
2.31557e-06
2.25659e-06
2.16431e-06
2.03979e-06
1.88576e-06
1.70699e-06
1.51007e-06
1.30292e-06
1.09401e-06
8.91531e-07
7.02361e-07
5.31346e-07
3.80854e-07
2.50997e-07
1.414e-07
5.63527e-08
9.60037e-09
6.18302e-11
1.01402e-11
1.62072e-09
1.05066e-08
2.95572e-08
5.64354e-08
8.732e-08
1.19262e-07
1.50381e-07
1.79569e-07
2.06236e-07
2.30157e-07
2.51392e-07
2.70216e-07
2.87077e-07
3.02548e-07
3.17286e-07
3.31989e-07
3.47364e-07
3.64088e-07
3.82779e-07
4.0398e-07
4.28135e-07
4.55572e-07
4.86505e-07
5.21027e-07
5.59119e-07
6.00683e-07
6.45554e-07
6.93536e-07
7.44433e-07
7.98084e-07
8.54369e-07
9.13243e-07
9.74755e-07
1.03904e-06
1.1063e-06
1.17683e-06
1.25094e-06
1.32901e-06
1.41143e-06
1.49859e-06
1.59086e-06
1.6885e-06
1.79167e-06
1.90033e-06
2.01414e-06
2.13234e-06
2.25365e-06
2.37614e-06
2.49717e-06
2.61339e-06
2.72073e-06
2.81462e-06
2.89003e-06
2.93924e-06
2.95356e-06
2.95217e-06
2.90903e-06
2.82124e-06
2.69477e-06
2.53154e-06
2.33507e-06
2.11106e-06
1.86709e-06
1.61213e-06
1.35575e-06
1.10721e-06
8.74397e-07
6.62908e-07
4.75574e-07
3.12759e-07
1.74765e-07
6.8414e-08
1.14049e-08
7.26837e-11
1.18806e-11
1.91752e-09
1.27307e-08
3.68965e-08
7.23625e-08
1.14294e-07
1.58378e-07
2.01644e-07
2.42254e-07
2.792e-07
3.1207e-07
3.40902e-07
3.66073e-07
3.88216e-07
4.0814e-07
4.26771e-07
4.45086e-07
4.64058e-07
4.84614e-07
5.07586e-07
5.33689e-07
5.6349e-07
5.97403e-07
6.35679e-07
6.78415e-07
7.25565e-07
7.76984e-07
8.3245e-07
8.91713e-07
9.5453e-07
1.02071e-06
1.09013e-06
1.16275e-06
1.23868e-06
1.3181e-06
1.40128e-06
1.48859e-06
1.58043e-06
1.67726e-06
1.77954e-06
1.88771e-06
2.00214e-06
2.12306e-06
2.25047e-06
2.38407e-06
2.52309e-06
2.66616e-06
2.81121e-06
2.95538e-06
3.09499e-06
3.22565e-06
3.34236e-06
3.43972e-06
3.51215e-06
3.55266e-06
3.54853e-06
3.52789e-06
3.46284e-06
3.34287e-06
3.18096e-06
2.97974e-06
2.74324e-06
2.47771e-06
2.19131e-06
1.89363e-06
1.59494e-06
1.30524e-06
1.03318e-06
7.85012e-07
5.63997e-07
3.70791e-07
2.06386e-07
8.00168e-08
1.31894e-08
8.36966e-11
1.37038e-11
2.22662e-09
1.50339e-08
4.45496e-08
8.92395e-08
1.4339e-07
2.01192e-07
2.58351e-07
3.12081e-07
3.60798e-07
4.03819e-07
4.41131e-07
4.73223e-07
5.00951e-07
5.25418e-07
5.47876e-07
5.69638e-07
5.91999e-07
6.16176e-07
6.43247e-07
6.74122e-07
7.09512e-07
7.49918e-07
7.95631e-07
8.46747e-07
9.03194e-07
9.64769e-07
1.03119e-06
1.10215e-06
1.17735e-06
1.25657e-06
1.33967e-06
1.42664e-06
1.51759e-06
1.61276e-06
1.71249e-06
1.81719e-06
1.92735e-06
2.04347e-06
2.16607e-06
2.2956e-06
2.43236e-06
2.57645e-06
2.72761e-06
2.8851e-06
3.04753e-06
3.21273e-06
3.37769e-06
3.53853e-06
3.69061e-06
3.82866e-06
3.94706e-06
4.0401e-06
4.10219e-06
4.12715e-06
4.10081e-06
4.05285e-06
3.96578e-06
3.81425e-06
3.61743e-06
3.38044e-06
3.10741e-06
2.80482e-06
2.48106e-06
2.14596e-06
1.81017e-06
1.48421e-06
1.17732e-06
8.96352e-07
6.45044e-07
4.24384e-07
2.35981e-07
9.11203e-08
1.49528e-08
9.48243e-11
1.56088e-11
2.54828e-09
1.74162e-08
5.24768e-08
1.06879e-07
1.74154e-07
2.46937e-07
3.19422e-07
3.87673e-07
4.49384e-07
5.03509e-07
5.4996e-07
5.8935e-07
6.22799e-07
6.51758e-07
6.77868e-07
7.02836e-07
7.2833e-07
7.55894e-07
7.86887e-07
8.2243e-07
8.63387e-07
9.10347e-07
9.63641e-07
1.02336e-06
1.08938e-06
1.16145e-06
1.23921e-06
1.32228e-06
1.41031e-06
1.50302e-06
1.60026e-06
1.70202e-06
1.80842e-06
1.91973e-06
2.03633e-06
2.15869e-06
2.28736e-06
2.42288e-06
2.56578e-06
2.71648e-06
2.87516e-06
3.04167e-06
3.21534e-06
3.39482e-06
3.57795e-06
3.76164e-06
3.94188e-06
4.11386e-06
4.27213e-06
4.41092e-06
4.52437e-06
4.60687e-06
4.65329e-06
4.65796e-06
4.60718e-06
4.5312e-06
4.41498e-06
4.23899e-06
4.00845e-06
3.73827e-06
3.43221e-06
3.09669e-06
2.74009e-06
2.37223e-06
2.00389e-06
1.64588e-06
1.30797e-06
9.97593e-07
7.1902e-07
4.73642e-07
2.63606e-07
1.01746e-07
1.66973e-08
1.06056e-10
1.75962e-11
2.88284e-09
1.98806e-08
6.06648e-08
1.25174e-07
2.06279e-07
2.95032e-07
3.83972e-07
4.67844e-07
5.43486e-07
6.09417e-07
6.65448e-07
7.12335e-07
7.51505e-07
7.84813e-07
8.14351e-07
8.42273e-07
8.70667e-07
9.01442e-07
9.36254e-07
9.76449e-07
1.02304e-06
1.07672e-06
1.13782e-06
1.20643e-06
1.28237e-06
1.3653e-06
1.45479e-06
1.55036e-06
1.6516e-06
1.75816e-06
1.86986e-06
1.98666e-06
2.1087e-06
2.23627e-06
2.36978e-06
2.50976e-06
2.65679e-06
2.81146e-06
2.97428e-06
3.14559e-06
3.32538e-06
3.51312e-06
3.7076e-06
3.90673e-06
4.10746e-06
4.30573e-06
4.49665e-06
4.67463e-06
4.83374e-06
4.96802e-06
5.07176e-06
5.13971e-06
5.16737e-06
5.14909e-06
5.07304e-06
4.97078e-06
4.82235e-06
4.62371e-06
4.36378e-06
4.06247e-06
3.72606e-06
3.36074e-06
2.97473e-06
2.57765e-06
2.18023e-06
1.79346e-06
1.42749e-06
1.09035e-06
7.86932e-07
5.19104e-07
2.89489e-07
1.11947e-07
1.84272e-08
1.17403e-10
1.96672e-11
3.23073e-09
2.24313e-08
6.91159e-08
1.44079e-07
2.39575e-07
3.45072e-07
4.51334e-07
5.51653e-07
6.41901e-07
7.20104e-07
7.85959e-07
8.40391e-07
8.8518e-07
9.22645e-07
9.55381e-07
9.86042e-07
1.01717e-06
1.05107e-06
1.08971e-06
1.13465e-06
1.18707e-06
1.2477e-06
1.31693e-06
1.39477e-06
1.481e-06
1.57517e-06
1.67675e-06
1.78516e-06
1.89988e-06
2.02051e-06
2.1468e-06
2.2787e-06
2.41634e-06
2.56002e-06
2.71021e-06
2.86748e-06
3.03248e-06
3.20582e-06
3.38798e-06
3.57916e-06
3.77906e-06
3.98669e-06
4.20015e-06
4.41653e-06
4.63185e-06
4.8412e-06
5.03893e-06
5.21896e-06
5.37516e-06
5.50168e-06
5.59311e-06
5.64475e-06
5.65266e-06
5.61061e-06
5.51007e-06
5.3836e-06
5.20405e-06
4.97715e-06
4.69599e-06
4.36439e-06
3.99902e-06
3.6056e-06
3.19218e-06
2.76809e-06
2.34387e-06
1.93055e-06
1.53859e-06
1.17657e-06
8.50063e-07
5.61499e-07
3.13928e-07
1.21794e-07
2.01488e-08
1.2889e-10
2.18239e-11
3.59249e-09
2.50734e-08
7.78417e-08
1.63581e-07
2.73949e-07
3.96807e-07
5.21048e-07
6.38406e-07
7.43706e-07
8.34441e-07
9.10198e-07
9.72103e-07
1.02234e-06
1.06375e-06
1.09948e-06
1.13272e-06
1.16651e-06
1.20356e-06
1.24613e-06
1.29602e-06
1.35453e-06
1.42246e-06
1.50017e-06
1.58764e-06
1.68452e-06
1.79027e-06
1.90422e-06
2.02568e-06
2.15403e-06
2.28877e-06
2.4296e-06
2.57643e-06
2.7294e-06
2.88884e-06
3.05528e-06
3.22937e-06
3.41181e-06
3.60326e-06
3.80413e-06
4.01444e-06
4.2335e-06
4.45977e-06
4.69058e-06
4.92216e-06
5.14967e-06
5.36747e-06
5.56944e-06
5.74922e-06
5.9007e-06
6.01828e-06
6.09696e-06
6.13247e-06
6.12134e-06
6.05619e-06
5.93265e-06
5.78319e-06
5.57486e-06
5.31667e-06
5.01537e-06
4.65602e-06
4.2615e-06
3.84006e-06
3.39967e-06
2.94934e-06
2.49936e-06
2.06069e-06
1.64394e-06
1.2582e-06
9.09719e-07
6.0159e-07
3.37246e-07
1.31363e-07
2.18689e-08
1.40555e-10
2.40687e-11
3.96871e-09
2.78127e-08
8.68598e-08
1.83697e-07
3.09372e-07
4.50102e-07
5.9282e-07
7.27624e-07
8.48234e-07
9.51592e-07
1.03719e-06
1.10641e-06
1.16188e-06
1.20701e-06
1.24557e-06
1.28131e-06
1.31778e-06
1.35807e-06
1.40479e-06
1.45991e-06
1.52486e-06
1.60046e-06
1.68704e-06
1.78448e-06
1.89235e-06
2.00994e-06
2.13646e-06
2.27107e-06
2.41303e-06
2.56175e-06
2.71687e-06
2.87827e-06
3.04612e-06
3.22081e-06
3.40296e-06
3.59333e-06
3.7927e-06
4.00177e-06
4.22086e-06
4.44973e-06
4.68727e-06
4.93127e-06
5.17829e-06
5.42372e-06
5.66198e-06
5.88687e-06
6.09207e-06
6.27114e-06
6.41802e-06
6.5274e-06
6.59459e-06
6.61568e-06
6.58753e-06
6.50088e-06
6.35629e-06
6.18584e-06
5.95003e-06
5.66006e-06
5.3311e-06
4.9492e-06
4.52361e-06
4.07254e-06
3.60406e-06
3.12684e-06
2.6509e-06
2.18707e-06
1.74595e-06
1.33699e-06
9.67104e-07
6.40089e-07
3.59761e-07
1.4073e-07
2.35948e-08
1.52436e-10
2.64051e-11
4.36004e-09
3.06554e-08
9.61908e-08
2.04458e-07
3.45862e-07
5.04903e-07
6.66488e-07
8.19003e-07
9.55032e-07
1.07097e-06
1.16625e-06
1.24254e-06
1.30301e-06
1.35167e-06
1.39292e-06
1.43114e-06
1.47037e-06
1.51411e-06
1.56524e-06
1.62594e-06
1.6977e-06
1.78135e-06
1.87716e-06
1.98491e-06
2.10401e-06
2.23362e-06
2.37276e-06
2.52046e-06
2.67585e-06
2.83824e-06
3.00724e-06
3.18272e-06
3.36489e-06
3.55426e-06
3.75158e-06
3.95775e-06
4.17368e-06
4.40008e-06
4.63718e-06
4.88441e-06
5.14013e-06
5.40149e-06
5.6637e-06
5.92216e-06
6.17117e-06
6.40375e-06
6.6131e-06
6.79274e-06
6.93684e-06
7.04029e-06
7.09854e-06
7.1078e-06
7.06507e-06
6.95848e-06
6.79408e-06
6.60398e-06
6.3407e-06
6.02148e-06
5.65767e-06
5.25242e-06
4.79487e-06
4.31093e-06
3.81169e-06
3.30555e-06
2.80228e-06
2.31249e-06
1.84669e-06
1.41446e-06
1.02326e-06
6.77626e-07
3.81758e-07
1.49966e-07
2.53335e-08
1.64578e-10
2.88367e-11
4.76723e-09
3.36079e-08
1.05858e-07
2.25908e-07
3.83464e-07
5.61223e-07
7.41986e-07
9.12372e-07
1.06381e-06
1.19218e-06
1.2969e-06
1.37999e-06
1.44518e-06
1.49718e-06
1.54106e-06
1.58179e-06
1.62392e-06
1.67136e-06
1.72723e-06
1.79387e-06
1.87282e-06
1.96488e-06
2.07025e-06
2.18855e-06
2.31905e-06
2.46071e-06
2.61241e-06
2.77299e-06
2.94148e-06
3.11711e-06
3.29944e-06
3.48841e-06
3.68432e-06
3.88783e-06
4.09987e-06
4.32156e-06
4.55392e-06
4.79768e-06
5.05294e-06
5.31879e-06
5.59282e-06
5.87051e-06
6.14945e-06
6.42268e-06
6.68332e-06
6.92476e-06
7.14024e-06
7.32325e-06
7.46771e-06
7.56858e-06
7.62121e-06
7.62171e-06
7.56693e-06
7.44226e-06
7.25915e-06
7.04925e-06
6.7582e-06
6.40974e-06
6.00932e-06
5.57203e-06
5.08417e-06
4.5625e-06
4.02845e-06
3.49005e-06
2.95688e-06
2.43944e-06
1.94793e-06
1.49186e-06
1.07907e-06
7.14732e-07
4.03483e-07
1.59133e-07
2.7091e-08
1.77021e-10
3.13677e-11
5.19107e-09
3.66772e-08
1.15886e-07
2.48097e-07
4.22243e-07
6.19112e-07
8.19315e-07
1.00766e-06
1.17442e-06
1.31498e-06
1.42883e-06
1.5184e-06
1.58807e-06
1.64324e-06
1.68969e-06
1.73301e-06
1.77824e-06
1.82965e-06
1.8906e-06
1.96354e-06
2.05004e-06
2.15084e-06
2.26601e-06
2.39503e-06
2.53697e-06
2.69062e-06
2.85465e-06
3.02779e-06
3.20892e-06
3.39723e-06
3.59231e-06
3.79416e-06
4.00325e-06
4.22047e-06
4.447e-06
4.68417e-06
4.93317e-06
5.19475e-06
5.46879e-06
5.75346e-06
6.04568e-06
6.34359e-06
6.64007e-06
6.92909e-06
7.20363e-06
7.45687e-06
7.68223e-06
7.87212e-06
8.02095e-06
8.12323e-06
8.17397e-06
8.16889e-06
8.10441e-06
7.96379e-06
7.76429e-06
7.5325e-06
7.2135e-06
6.83359e-06
6.397e-06
5.91824e-06
5.39773e-06
4.83396e-06
4.25978e-06
3.68461e-06
3.11787e-06
2.57011e-06
2.05119e-06
1.57026e-06
1.13524e-06
7.51844e-07
4.25136e-07
1.68285e-07
2.88727e-08
1.89801e-10
3.40026e-11
5.63239e-09
3.98705e-08
1.263e-07
2.71076e-07
4.62276e-07
6.7865e-07
8.98521e-07
1.10484e-06
1.28676e-06
1.43923e-06
1.56186e-06
1.65757e-06
1.73144e-06
1.78964e-06
1.83864e-06
1.88466e-06
1.9332e-06
1.98888e-06
2.05525e-06
2.13484e-06
2.2292e-06
2.339e-06
2.46414e-06
2.60393e-06
2.75725e-06
2.92269e-06
3.09874e-06
3.28397e-06
3.4772e-06
3.6776e-06
3.8848e-06
4.09898e-06
4.32084e-06
4.55154e-06
4.79258e-06
5.04556e-06
5.31181e-06
5.59205e-06
5.88546e-06
6.18996e-06
6.50438e-06
6.82276e-06
7.13903e-06
7.44664e-06
7.73866e-06
8.00849e-06
8.24711e-06
8.44822e-06
8.60589e-06
8.7138e-06
8.76642e-06
8.75882e-06
8.68695e-06
8.5321e-06
8.31715e-06
8.06241e-06
7.71464e-06
7.30119e-06
6.82638e-06
6.30122e-06
5.74007e-06
5.13151e-06
4.51077e-06
3.89328e-06
3.28825e-06
2.70659e-06
2.15783e-06
1.65052e-06
1.19235e-06
7.89308e-07
4.46874e-07
1.77473e-07
3.06823e-08
2.0295e-10
3.67463e-11
6.09206e-09
4.31951e-08
1.37127e-07
2.94903e-07
5.03648e-07
7.39927e-07
9.79678e-07
1.20397e-06
1.40083e-06
1.56487e-06
1.69588e-06
1.79739e-06
1.8752e-06
1.93628e-06
1.98784e-06
2.03668e-06
2.08877e-06
2.14901e-06
2.22111e-06
2.30766e-06
2.41014e-06
2.5291e-06
2.66429e-06
2.81482e-06
2.97934e-06
3.15625e-06
3.34389e-06
3.5407e-06
3.74544e-06
3.95731e-06
4.17609e-06
4.40216e-06
4.63655e-06
4.88076e-06
5.13667e-06
5.40614e-06
5.69066e-06
5.99066e-06
6.30454e-06
6.63281e-06
6.97029e-06
7.31177e-06
7.65089e-06
7.98126e-06
8.29595e-06
8.58507e-06
8.84163e-06
9.05914e-06
9.2302e-06
9.34785e-06
9.4058e-06
9.39845e-06
9.32119e-06
9.15321e-06
8.92252e-06
8.64438e-06
8.26685e-06
7.81772e-06
7.30194e-06
6.72831e-06
6.11643e-06
5.46025e-06
4.78609e-06
4.11997e-06
3.47099e-06
2.85092e-06
2.26913e-06
1.73344e-06
1.25086e-06
8.27398e-07
4.68809e-07
1.86744e-07
3.25229e-08
2.16492e-10
3.96047e-11
6.57091e-09
4.66586e-08
1.48395e-07
3.19636e-07
5.46446e-07
8.03047e-07
1.06288e-06
1.30509e-06
1.51665e-06
1.69187e-06
1.83086e-06
1.93778e-06
2.01927e-06
2.08311e-06
2.13724e-06
2.18904e-06
2.2449e-06
2.30998e-06
2.3881e-06
2.48186e-06
2.59265e-06
2.72087e-06
2.86609e-06
3.0272e-06
3.20265e-06
3.39065e-06
3.58937e-06
3.79719e-06
4.01284e-06
4.23563e-06
4.46553e-06
4.70325e-06
4.95016e-06
5.20823e-06
5.47969e-06
5.76675e-06
6.07107e-06
6.39133e-06
6.73018e-06
7.08333e-06
7.44662e-06
7.81444e-06
8.18092e-06
8.53921e-06
8.87857e-06
9.19206e-06
9.47217e-06
9.7107e-06
9.89943e-06
1.00305e-05
1.00968e-05
1.0092e-05
1.00109e-05
9.83043e-06
9.58306e-06
9.28134e-06
8.87289e-06
8.38603e-06
7.82625e-06
7.20236e-06
6.53454e-06
5.82338e-06
5.09e-06
4.36841e-06
3.66903e-06
3.00516e-06
2.38639e-06
1.81973e-06
1.3112e-06
8.66338e-07
4.91001e-07
1.96158e-07
3.43956e-08
2.30442e-10
4.25844e-11
7.06978e-09
5.02691e-08
1.60131e-07
3.45337e-07
5.90762e-07
8.68114e-07
1.14822e-06
1.40827e-06
1.63424e-06
1.82024e-06
1.96677e-06
2.07874e-06
2.16364e-06
2.23012e-06
2.28684e-06
2.34173e-06
2.40158e-06
2.47174e-06
2.55612e-06
2.65727e-06
2.77648e-06
2.91398e-06
3.06912e-06
3.24058e-06
3.4266e-06
3.62522e-06
3.83449e-06
4.05273e-06
4.27875e-06
4.512e-06
4.75275e-06
5.00206e-06
5.26179e-06
5.53435e-06
5.82241e-06
6.12846e-06
6.45277e-06
6.79856e-06
7.16337e-06
7.54422e-06
7.93655e-06
8.33532e-06
8.7341e-06
9.12158e-06
9.49118e-06
9.8346e-06
1.01428e-05
1.04067e-05
1.06168e-05
1.07645e-05
1.08415e-05
1.0841e-05
1.0757e-05
1.05646e-05
1.02991e-05
9.97372e-06
9.53333e-06
9.00706e-06
8.40113e-06
7.72478e-06
6.99808e-06
6.22421e-06
5.42614e-06
4.64206e-06
3.88528e-06
3.17143e-06
2.51095e-06
1.91016e-06
1.37375e-06
9.06327e-07
5.13535e-07
2.05743e-07
3.63009e-08
2.44812e-10
4.56906e-11
7.58986e-09
5.40351e-08
1.72365e-07
3.72067e-07
6.36687e-07
9.35235e-07
1.23579e-06
1.5136e-06
1.75366e-06
1.94999e-06
2.10361e-06
2.22024e-06
2.3083e-06
2.37731e-06
2.43663e-06
2.49475e-06
2.55877e-06
2.63422e-06
2.72505e-06
2.83372e-06
2.96139e-06
3.10809e-06
3.27295e-06
3.45445e-06
3.65063e-06
3.85937e-06
4.07864e-06
4.30677e-06
4.54268e-06
4.78608e-06
5.03758e-06
5.2987e-06
5.57182e-06
5.85984e-06
6.16581e-06
6.49198e-06
6.84075e-06
7.21285e-06
7.6064e-06
8.01806e-06
8.44384e-06
8.87838e-06
9.30995e-06
9.7326e-06
1.01376e-05
1.05154e-05
1.08559e-05
1.11486e-05
1.13833e-05
1.15499e-05
1.16396e-05
1.16445e-05
1.15584e-05
1.13544e-05
1.10691e-05
1.07199e-05
1.02468e-05
9.67982e-06
9.02618e-06
8.29577e-06
7.50855e-06
6.66535e-06
5.79744e-06
4.94397e-06
4.12253e-06
3.35192e-06
2.64423e-06
2.00549e-06
1.43888e-06
9.47551e-07
5.36517e-07
2.15498e-07
3.82385e-08
2.59603e-10
4.89295e-11
8.13235e-09
5.79656e-08
1.85127e-07
3.99886e-07
6.84313e-07
1.00451e-06
1.3257e-06
1.62114e-06
1.87494e-06
2.08114e-06
2.24138e-06
2.36228e-06
2.45325e-06
2.52466e-06
2.5866e-06
2.64806e-06
2.71641e-06
2.79733e-06
2.89473e-06
3.01099e-06
3.14708e-06
3.30283e-06
3.47716e-06
3.66832e-06
3.8742e-06
4.09255e-06
4.3213e-06
4.55885e-06
4.80432e-06
5.05772e-06
5.3201e-06
5.59351e-06
5.88085e-06
6.1856e-06
6.5114e-06
6.85983e-06
7.23502e-06
7.63609e-06
8.06131e-06
8.50779e-06
8.97191e-06
9.4419e-06
9.91239e-06
1.03748e-05
1.08193e-05
1.12353e-05
1.16115e-05
1.19361e-05
1.21976e-05
1.2385e-05
1.24884e-05
1.24995e-05
1.24116e-05
1.21965e-05
1.18897e-05
1.15163e-05
1.10101e-05
1.04016e-05
9.69908e-06
8.91407e-06
8.06562e-06
7.14839e-06
6.20591e-06
5.27666e-06
4.38333e-06
3.54879e-06
2.78774e-06
2.10659e-06
1.50701e-06
9.90188e-07
5.60023e-07
2.25434e-07
4.02073e-08
2.74812e-10
5.23079e-11
8.69845e-09
6.20699e-08
1.98447e-07
4.28857e-07
7.33729e-07
1.07605e-06
1.41803e-06
1.73095e-06
1.99812e-06
2.21371e-06
2.38008e-06
2.50485e-06
2.59846e-06
2.67216e-06
2.73674e-06
2.80162e-06
2.87444e-06
2.96094e-06
3.065e-06
3.18884e-06
3.33324e-06
3.49783e-06
3.6813e-06
3.88173e-06
4.09684e-06
4.3243e-06
4.56208e-06
4.8087e-06
5.06354e-06
5.327e-06
5.60062e-06
5.88702e-06
6.18969e-06
6.51257e-06
6.85903e-06
7.23354e-06
7.63716e-06
8.06993e-06
8.53028e-06
9.01672e-06
9.51807e-06
1.00294e-05
1.05428e-05
1.10487e-05
1.15362e-05
1.19936e-05
1.2408e-05
1.27666e-05
1.30564e-05
1.32656e-05
1.33835e-05
1.34012e-05
1.33118e-05
1.30864e-05
1.27563e-05
1.23582e-05
1.18189e-05
1.11684e-05
1.04158e-05
9.57708e-06
8.66715e-06
7.67371e-06
6.65255e-06
5.64192e-06
4.66988e-06
3.7641e-06
2.94303e-06
2.21436e-06
1.57856e-06
1.03442e-06
5.84118e-07
2.35562e-07
4.22059e-08
2.90429e-10
5.58329e-11
9.28942e-09
6.63577e-08
2.12357e-07
4.59042e-07
7.85024e-07
1.14993e-06
1.51286e-06
1.84309e-06
2.12322e-06
2.34768e-06
2.51969e-06
2.64794e-06
2.74392e-06
2.8198e-06
2.88701e-06
2.95538e-06
3.03277e-06
3.12493e-06
3.23566e-06
3.36701e-06
3.51957e-06
3.69274e-06
3.885e-06
4.09427e-06
4.31815e-06
4.55429e-06
4.80073e-06
5.0562e-06
5.32038e-06
5.59416e-06
5.87961e-06
6.17996e-06
6.49931e-06
6.84224e-06
7.21225e-06
7.61398e-06
8.04854e-06
8.51591e-06
9.01681e-06
9.54145e-06
1.00852e-05
1.06414e-05
1.12011e-05
1.17535e-05
1.22868e-05
1.27877e-05
1.32422e-05
1.3636e-05
1.39551e-05
1.41865e-05
1.43191e-05
1.43433e-05
1.42524e-05
1.40182e-05
1.36638e-05
1.32396e-05
1.26677e-05
1.19755e-05
1.11727e-05
1.02795e-05
9.3093e-06
8.24029e-06
7.13725e-06
6.04072e-06
4.98382e-06
3.9997e-06
3.11165e-06
2.3298e-06
1.65402e-06
1.08042e-06
6.08863e-07
2.45897e-07
4.42325e-08
3.06442e-10
5.9512e-11
9.90658e-09
7.08391e-08
2.2689e-07
4.90506e-07
8.38283e-07
1.22625e-06
1.61025e-06
1.95759e-06
2.25024e-06
2.48305e-06
2.66018e-06
2.79149e-06
2.88959e-06
2.96752e-06
3.03735e-06
3.10927e-06
3.19129e-06
3.28915e-06
3.40652e-06
3.54527e-06
3.70578e-06
3.88722e-06
4.0879e-06
4.3056e-06
4.53783e-06
4.78229e-06
5.03714e-06
5.30138e-06
5.57508e-06
5.85964e-06
6.15772e-06
6.47317e-06
6.81061e-06
7.1748e-06
7.57105e-06
8.00232e-06
8.47032e-06
8.97774e-06
9.51706e-06
1.00841e-05
1.06736e-05
1.12774e-05
1.18858e-05
1.2487e-05
1.30678e-05
1.36136e-05
1.41091e-05
1.45387e-05
1.48872e-05
1.5141e-05
1.52879e-05
1.53185e-05
1.52257e-05
1.49845e-05
1.46068e-05
1.41534e-05
1.35503e-05
1.28171e-05
1.19652e-05
1.10155e-05
9.98685e-06
8.84572e-06
7.65879e-06
6.4731e-06
5.32618e-06
4.25711e-06
3.29505e-06
2.45393e-06
1.73389e-06
1.1284e-06
6.3432e-07
2.56451e-07
4.6285e-08
3.2283e-10
6.3353e-11
1.05513e-08
7.55245e-08
2.42079e-07
5.23312e-07
8.93589e-07
1.3051e-06
1.71027e-06
2.07448e-06
2.37918e-06
2.61977e-06
2.80149e-06
2.93547e-06
3.03542e-06
3.11527e-06
3.18769e-06
3.2632e-06
3.34988e-06
3.45343e-06
3.57737e-06
3.72336e-06
3.89157e-06
4.08098e-06
4.28972e-06
4.51546e-06
4.7557e-06
5.00821e-06
5.27135e-06
5.54444e-06
5.82801e-06
6.12401e-06
6.43571e-06
6.76758e-06
7.12478e-06
7.51263e-06
7.93648e-06
8.39965e-06
8.90614e-06
9.45146e-06
1.00322e-05
1.06447e-05
1.12821e-05
1.19356e-05
1.25944e-05
1.32458e-05
1.3875e-05
1.44663e-05
1.5003e-05
1.54681e-05
1.58458e-05
1.61214e-05
1.62825e-05
1.63189e-05
1.62235e-05
1.59772e-05
1.55794e-05
1.50923e-05
1.44596e-05
1.36868e-05
1.27876e-05
1.17793e-05
1.06936e-05
9.48609e-06
8.21483e-06
6.93814e-06
5.69725e-06
4.53739e-06
3.49453e-06
2.58775e-06
1.81873e-06
1.17857e-06
6.60553e-07
2.67235e-07
4.83615e-08
3.3957e-10
6.73641e-11
1.1225e-08
8.0425e-08
2.57958e-07
5.57524e-07
9.51023e-07
1.38653e-06
1.81296e-06
2.19375e-06
2.51e-06
2.75778e-06
2.94357e-06
3.07979e-06
3.18133e-06
3.26299e-06
3.33796e-06
3.41706e-06
3.50841e-06
3.61761e-06
3.74802e-06
3.90108e-06
4.07674e-06
4.27379e-06
4.49024e-06
4.72369e-06
4.97168e-06
5.23209e-06
5.50354e-06
5.78573e-06
6.0797e-06
6.38796e-06
6.71444e-06
7.06417e-06
7.44284e-06
7.85597e-06
8.30998e-06
8.80907e-06
9.35222e-06
9.93734e-06
1.05624e-05
1.12221e-05
1.1909e-05
1.26134e-05
1.33235e-05
1.40254e-05
1.47031e-05
1.53395e-05
1.59167e-05
1.64168e-05
1.68229e-05
1.71198e-05
1.72945e-05
1.73365e-05
1.72383e-05
1.69881e-05
1.65719e-05
1.60499e-05
1.53883e-05
1.45773e-05
1.36325e-05
1.25662e-05
1.14229e-05
1.01561e-05
8.802e-06
7.43397e-06
6.09653e-06
4.84106e-06
3.71108e-06
2.73221e-06
1.90912e-06
1.23116e-06
6.87628e-07
2.78258e-07
5.04596e-08
3.56633e-10
7.1554e-11
1.19292e-08
8.55518e-08
2.74563e-07
5.93205e-07
1.01066e-06
1.47062e-06
1.91835e-06
2.3154e-06
2.64265e-06
2.89702e-06
3.08632e-06
3.22438e-06
3.32724e-06
3.41058e-06
3.48808e-06
3.57076e-06
3.66676e-06
3.78157e-06
3.91831e-06
4.07823e-06
4.26108e-06
4.46548e-06
4.68935e-06
4.93025e-06
5.18581e-06
5.45409e-06
5.73402e-06
6.02573e-06
6.33078e-06
6.65228e-06
6.99478e-06
7.36391e-06
7.76584e-06
8.20692e-06
8.69342e-06
9.22727e-06
9.80827e-06
1.04359e-05
1.11066e-05
1.18145e-05
1.25516e-05
1.33072e-05
1.40686e-05
1.48205e-05
1.55459e-05
1.62263e-05
1.68428e-05
1.73767e-05
1.78103e-05
1.81277e-05
1.83155e-05
1.8363e-05
1.82624e-05
1.80079e-05
1.75759e-05
1.70191e-05
1.6329e-05
1.54811e-05
1.44919e-05
1.33721e-05
1.21678e-05
1.0849e-05
9.41596e-06
7.95777e-06
6.5227e-06
5.16803e-06
3.94539e-06
2.88815e-06
2.00562e-06
1.28643e-06
7.15615e-07
2.89527e-07
5.25766e-08
3.73985e-10
7.59317e-11
1.26654e-08
9.09171e-08
2.91931e-07
6.3042e-07
1.07258e-06
1.55742e-06
2.02644e-06
2.43938e-06
2.77704e-06
3.03737e-06
3.22963e-06
3.36912e-06
3.47307e-06
3.55795e-06
3.63794e-06
3.7242e-06
3.82483e-06
3.94516e-06
4.0881e-06
4.25469e-06
4.44448e-06
4.65598e-06
4.88702e-06
5.13521e-06
5.39827e-06
5.67453e-06
5.96326e-06
6.26504e-06
6.58198e-06
6.9178e-06
7.27762e-06
7.66767e-06
8.09468e-06
8.56541e-06
9.08423e-06
9.65388e-06
1.0275e-05
1.0946e-05
1.16629e-05
1.24194e-05
1.32065e-05
1.40129e-05
1.48245e-05
1.56252e-05
1.63966e-05
1.71193e-05
1.77734e-05
1.83395e-05
1.87993e-05
1.91364e-05
1.9337e-05
1.93903e-05
1.92885e-05
1.90273e-05
1.85831e-05
1.79929e-05
1.72743e-05
1.63912e-05
1.536e-05
1.41904e-05
1.29218e-05
1.15568e-05
1.00516e-05
8.50585e-06
6.97364e-06
5.51758e-06
4.19768e-06
3.05621e-06
2.10878e-06
1.34461e-06
7.44584e-07
3.01042e-07
5.47095e-08
3.91586e-10
8.05068e-11
1.34354e-08
9.65332e-08
3.10099e-07
6.69233e-07
1.13685e-06
1.64698e-06
2.13724e-06
2.56565e-06
2.91309e-06
3.17872e-06
3.37338e-06
3.51389e-06
3.61868e-06
3.70502e-06
3.78746e-06
3.87729e-06
3.98253e-06
4.10829e-06
4.25731e-06
4.43038e-06
4.62691e-06
4.84529e-06
5.08335e-06
5.33874e-06
5.60937e-06
5.89385e-06
6.19182e-06
6.50435e-06
6.8341e-06
7.18535e-06
7.56379e-06
7.9761e-06
8.42926e-06
8.92988e-06
9.48255e-06
1.00896e-05
1.07514e-05
1.14661e-05
1.22292e-05
1.30337e-05
1.387e-05
1.47256e-05
1.55858e-05
1.6433e-05
1.7248e-05
1.80107e-05
1.87003e-05
1.92968e-05
1.97814e-05
2.01373e-05
2.03505e-05
2.04096e-05
2.0307e-05
2.00387e-05
1.95852e-05
1.89644e-05
1.82168e-05
1.73004e-05
1.62298e-05
1.50149e-05
1.36804e-05
1.22697e-05
1.07033e-05
9.07372e-06