/*--------------------------------*- C++ -*----------------------------------*\
  =========                 |
  \\      /  F ield         | OpenFOAM: The Open Source CFD Toolbox
   \\    /   O peration     | Website:  https://openfoam.org
    \\  /    A nd           | Version:  12
     \\/     M anipulation  |
\*---------------------------------------------------------------------------*/
FoamFile
{
    format      ascii;
    class       volScalarField;
    location    "2";
    object      p;
}
// * * * * * * * * * * * * * * * * * * * * * * * * * * * * * * * * * * * * * //

dimensions      [0 2 -2 0 0 0 0];

internalField   nonuniform List<scalar> 
5625
(
-6.86959e-08
3.41418e-05
6.27055e-05
6.97238e-05
4.88781e-05
-1.67947e-06
-8.13266e-05
-0.000188338
-0.000320624
-0.000476143
-0.000653124
-0.000850189
-0.00106641
-0.00130133
-0.00155499
-0.00182781
-0.00212076
-0.00243516
-0.00277272
-0.0031355
-0.00352589
-0.00394655
-0.00440035
-0.00489035
-0.00541969
-0.0059915
-0.00660878
-0.00727427
-0.0079902
-0.0087581
-0.00957851
-0.0104506
-0.0113718
-0.0123373
-0.0133394
-0.0143672
-0.0154056
-0.0164352
-0.017431
-0.0183626
-0.0191936
-0.0198812
-0.0203768
-0.0206267
-0.0205725
-0.0201533
-0.0193076
-0.0179763
-0.0161059
-0.0136524
-0.0105855
-0.0068922
-0.00259824
0.00225596
0.00762582
0.0133927
0.0194045
0.0255015
0.0314926
0.0371744
0.0423458
0.0468251
0.0504679
0.053183
0.0549448
0.0557968
0.0558477
0.0552587
0.0542237
0.0529484
0.0516302
0.0504467
0.0495454
0.0490496
0.0489592
-8.11455e-06
2.12381e-05
4.39691e-05
4.64669e-05
2.32062e-05
-2.79032e-05
-0.00010665
-0.000211706
-0.000341311
-0.000493674
-0.000667203
-0.000860633
-0.0010731
-0.00130416
-0.00155384
-0.00182251
-0.00211106
-0.00242072
-0.00275309
-0.0031101
-0.00349399
-0.00390725
-0.00435259
-0.00483289
-0.0053511
-0.00591016
-0.00651285
-0.00716172
-0.00785886
-0.00860564
-0.0094025
-0.0102485
-0.0111412
-0.0120758
-0.013045
-0.014038
-0.0150405
-0.0160335
-0.0169931
-0.0178899
-0.0186886
-0.0193479
-0.0198209
-0.0200551
-0.0199939
-0.0195783
-0.018748
-0.0174455
-0.0156182
-0.0132232
-0.0102301
-0.00662566
-0.00243957
0.00229723
0.00754972
0.0131771
0.0190504
0.0250117
0.0308751
0.0364433
0.0415214
0.0459336
0.0495402
0.0522536
0.054049
0.0549688
0.0551175
0.0546497
0.0537507
0.0526164
0.051432
0.0503649
0.0495486
0.0490971
0.049015
-2.04812e-05
7.17627e-06
2.54561e-05
2.38241e-05
-1.79164e-06
-5.34971e-05
-0.00013137
-0.000234426
-0.00036121
-0.00051018
-0.000679921
-0.000869287
-0.00107748
-0.00130406
-0.00154905
-0.00181278
-0.00209602
-0.00239992
-0.00272594
-0.00307587
-0.00345178
-0.003856
-0.00429108
-0.00475967
-0.0052645
-0.00580831
-0.00639372
-0.00702308
-0.00769832
-0.0084207
-0.00919061
-0.0100072
-0.010868
-0.0117685
-0.0127018
-0.0136578
-0.0146226
-0.0155784
-0.0165023
-0.0173661
-0.018136
-0.0187723
-0.0192295
-0.0194572
-0.0194001
-0.0190006
-0.0182
-0.0169414
-0.0151731
-0.0128521
-0.00994814
-0.0064471
-0.00238065
0.00224019
0.00736381
0.0128511
0.0185911
0.0244251
0.0301722
0.0356405
0.0406399
0.0449988
0.0485809
0.0513003
0.053133
0.0541197
0.0543619
0.0540088
0.0532387
0.0522382
0.0511834
0.0502279
0.0494928
0.0490829
0.0490061
-3.36069e-05
-4.41565e-06
1.22074e-05
8.0436e-06
-1.92282e-05
-7.14197e-05
-0.000148655
-0.000250121
-0.000374563
-0.000520611
-0.000686984
-0.000872629
-0.00107679
-0.00129906
-0.00153942
-0.00179817
-0.00207598
-0.00237392
-0.00269334
-0.0030359
-0.00340354
-0.00379843
-0.00422292
-0.00467952
-0.00517079
-0.00569932
-0.00626757
-0.0068778
-0.00753183
-0.00823094
-0.00897555
-0.00976495
-0.010597
-0.0114675
-0.0123701
-0.0132954
-0.0142306
-0.0151587
-0.016058
-0.0169018
-0.0176575
-0.018287
-0.0187462
-0.0189857
-0.0189516
-0.0185867
-0.0178329
-0.0166334
-0.014936
-0.012697
-0.00988492
-0.00648538
-0.00252141
0.00200092
0.00701039
0.0123964
0.0180426
0.0237933
0.0294711
0.0348864
0.0398509
0.0441939
0.047779
0.0505199
0.0523912
0.0534324
0.0537433
0.0534706
0.0527893
0.0518813
0.0509162
0.0500379
0.0493584
0.0489745
0.048894
-4.45804e-05
-1.2505e-05
4.09174e-06
-1.50934e-06
-2.99225e-05
-8.25126e-05
-0.00015929
-0.000259492
-0.000381971
-0.000525471
-0.000688805
-0.000870986
-0.0010713
-0.00128935
-0.00152507
-0.00177875
-0.00205098
-0.00234273
-0.00265529
-0.00299016
-0.00334917
-0.00373435
-0.0041479
-0.00459218
-0.00506966
-0.00558279
-0.00613396
-0.00672536
-0.00735884
-0.00803576
-0.0087567
-0.00952126
-0.0103277
-0.0111725
-0.0120499
-0.0129514
-0.0138654
-0.014776
-0.0156629
-0.0165007
-0.0172583
-0.0178986
-0.0183788
-0.0186502
-0.0186593
-0.0183492
-0.0176613
-0.0165379
-0.0149254
-0.0127785
-0.0100636
-0.00676424
-0.00289408
0.00153344
0.00645196
0.0117623
0.0173456
0.0230487
0.0286962
0.034099
0.0390682
0.0434311
0.0470487
0.0498318
0.051752
0.0528467
0.0532144
0.0530012
0.0523814
0.0515352
0.0506286
0.0498001
0.0491536
0.048779
0.0486823
-5.15003e-05
-1.63063e-05
9.20801e-07
-5.55421e-06
-3.48324e-05
-8.77964e-05
-0.000164263
-0.000263441
-0.00038423
-0.000525443
-0.000685961
-0.000864836
-0.00106139
-0.00127522
-0.00150624
-0.0017547
-0.00202115
-0.00230646
-0.0026118
-0.00293862
-0.00328858
-0.0036636
-0.00406579
-0.00449739
-0.00496077
-0.00545831
-0.00599238
-0.00656519
-0.0071787
-0.00783445
-0.00853334
-0.00927542
-0.0100595
-0.0108829
-0.0117409
-0.012626
-0.0135278
-0.0144319
-0.0153194
-0.0161663
-0.0169428
-0.0176128
-0.0181342
-0.0184587
-0.0185328
-0.0182987
-0.0176968
-0.0166677
-0.0151559
-0.0131133
-0.0105036
-0.00730747
-0.00353154
0.000806997
0.00564841
0.0108994
0.0164415
0.0221236
0.0277711
0.0331945
0.0382025
0.042619
0.0463
0.049151
0.0511389
0.0522976
0.0527235
0.0525628
0.0519905
0.0511873
0.0503183
0.0495186
0.0488869
0.0485063
0.04838
-5.30267e-05
-1.50368e-05
2.94462e-06
-4.16415e-06
-3.41981e-05
-8.75758e-05
-0.000163885
-0.000262257
-0.000381593
-0.00052074
-0.000678626
-0.000854338
-0.0010472
-0.00125681
-0.00148308
-0.0017262
-0.00198666
-0.00226529
-0.00256313
-0.00288154
-0.0032221
-0.00358662
-0.00397712
-0.00439577
-0.00484487
-0.0053268
-0.00584396
-0.00639868
-0.00699311
-0.00762914
-0.00830812
-0.00903073
-0.00979662
-0.010604
-0.0114494
-0.0123268
-0.013227
-0.0141373
-0.0150403
-0.0159133
-0.0167276
-0.017448
-0.0180326
-0.018433
-0.0185947
-0.0184589
-0.0179638
-0.0170477
-0.0156525
-0.013727
-0.0112316
-0.00814365
-0.00446417
-0.000210608
0.0045622
0.00976587
0.0152836
0.0209661
0.0266395
0.0321128
0.0371918
0.0416952
0.0454725
0.0484217
0.0505027
0.0517439
0.0522387
0.0521327
0.0516026
0.0508311
0.0499845
0.049197
0.0485644
0.0481635
0.0479955
-4.82038e-05
-8.05151e-06
1.04867e-05
2.75984e-06
-2.8052e-05
-8.19453e-05
-0.000158269
-0.00025605
-0.000374161
-0.000511455
-0.000666881
-0.000839554
-0.0010288
-0.00123422
-0.00145569
-0.00169337
-0.0019477
-0.00221942
-0.00250952
-0.00281928
-0.00315018
-0.00350397
-0.00388259
-0.00428818
-0.00472302
-0.00518956
-0.0056903
-0.00622778
-0.00680452
-0.00742283
-0.00808473
-0.00879173
-0.0095445
-0.0103425
-0.0111837
-0.0120635
-0.0129746
-0.0139057
-0.014841
-0.0157591
-0.0166322
-0.0174254
-0.0180966
-0.0185966
-0.0188694
-0.0188541
-0.0184865
-0.017702
-0.016439
-0.0146431
-0.0122714
-0.0092974
-0.00571736
-0.00154728
0.00316222
0.00832743
0.0138339
0.0195346
0.0252559
0.0308058
0.0359864
0.0406102
0.0445185
0.0475997
0.0498046
0.0511535
0.0517352
0.0516938
0.0512073
0.0504618
0.0496266
0.0488377
0.0481903
0.0477565
0.0475363
-3.63596e-05
5.13001e-06
2.3802e-05
1.52961e-05
-1.6428e-05
-7.09969e-05
-0.00014753
-0.000244935
-0.000362035
-0.000497678
-0.000650814
-0.00082057
-0.00100628
-0.00120753
-0.00142417
-0.00165633
-0.00190441
-0.00216908
-0.00245128
-0.0027522
-0.00307328
-0.00341621
-0.00378289
-0.00417546
-0.00459628
-0.00504789
-0.00553302
-0.00605454
-0.00661541
-0.00721863
-0.00786704
-0.00856319
-0.00930903
-0.0101055
-0.0109522
-0.0118464
-0.0127824
-0.0137507
-0.014737
-0.0157209
-0.016675
-0.0175646
-0.0183465
-0.0189701
-0.0193773
-0.0195044
-0.0192841
-0.0186485
-0.0175326
-0.0158785
-0.0136397
-0.010786
-0.00730951
-0.00322375
0.00142482
0.00655709
0.0120617
0.0177943
0.0235822
0.0292324
0.0345432
0.0393203
0.0433954
0.0466455
0.0490093
0.050497
0.0511899
0.0512292
0.0507938
0.0500738
0.0492434
0.0484423
0.0477687
0.0472903
0.0470094
-1.70506e-05
2.48445e-05
4.30755e-05
3.34957e-05
6.33676e-07
-5.48205e-05
-0.000131777
-0.00022902
-0.000345318
-0.000479495
-0.000630499
-0.000797456
-0.000979702
-0.00117681
-0.00138862
-0.00161522
-0.00185697
-0.0021145
-0.00238868
-0.00268066
-0.00299184
-0.00332388
-0.0036787
-0.00405848
-0.00446571
-0.00490312
-0.00537378
-0.005881
-0.00642839
-0.00701976
-0.00765901
-0.00834998
-0.00909614
-0.00990019
-0.0107635
-0.0116853
-0.0126619
-0.0136855
-0.0147428
-0.0158142
-0.0168726
-0.0178824
-0.0187991
-0.0195698
-0.0201336
-0.0204236
-0.0203691
-0.0198986
-0.0189435
-0.0174425
-0.0153457
-0.0126194
-0.00925173
-0.00525332
-0.000666252
0.00443516
0.00994348
0.0157177
0.021587
0.0273579
0.0328251
0.0377872
0.0420653
0.045523
0.0480846
0.0497468
0.050581
0.0507229
0.0503517
0.0496614
0.0488329
0.0480118
0.0473021
0.0467689
0.0464211
1.00018e-05
5.13182e-05
6.84367e-05
5.73902e-05
2.30936e-05
-3.34957e-05
-0.000111106
-0.000208404
-0.000324098
-0.000456985
-0.000606005
-0.00077028
-0.000949142
-0.00114216
-0.00134914
-0.00157017
-0.00180555
-0.00205587
-0.00232199
-0.002605
-0.0029063
-0.00322754
-0.00357071
-0.00393811
-0.0043324
-0.00475663
-0.00521429
-0.00570931
-0.0062461
-0.00682951
-0.00746471
-0.00815708
-0.00891186
-0.00973371
-0.010626
-0.0115902
-0.0126243
-0.013722
-0.0148713
-0.0160528
-0.0172388
-0.0183924
-0.0194672
-0.0204072
-0.0211483
-0.0216199
-0.0217477
-0.0214566
-0.0206748
-0.0193375
-0.0173916
-0.0148004
-0.0115482
-0.00764225
-0.00312013
0.00194909
0.00746273
0.0132842
0.0192456
0.0251538
0.0308007
0.0359778
0.0404947
0.0442
0.0470008
0.0488774
0.0498876
0.0501594
0.0498703
0.0492185
0.0483923
0.0475463
0.0467924
0.046196
0.0457757
4.49436e-05
8.46837e-05
9.99637e-05
8.69903e-05
5.09117e-05
-7.0926e-06
-8.55997e-05
-0.000183169
-0.000298452
-0.000430217
-0.000577394
-0.0007391
-0.000914662
-0.00110364
-0.00130583
-0.00152129
-0.0017503
-0.00199342
-0.00225147
-0.00252556
-0.00281708
-0.00312774
-0.00345963
-0.00381521
-0.00419744
-0.00460978
-0.00505627
-0.00554162
-0.00607124
-0.0066512
-0.00728822
-0.00798944
-0.00876211
-0.00961307
-0.0105479
-0.0115701
-0.0126796
-0.0138713
-0.0151339
-0.0164478
-0.0177843
-0.0191045
-0.020359
-0.0214886
-0.0224255
-0.0230953
-0.0234199
-0.0233208
-0.022723
-0.0215592
-0.0197732
-0.0173251
-0.0141962
-0.01039
-0.00593902
-0.000906626
0.00461016
0.0104803
0.0165402
0.0225982
0.0284445
0.0338637
0.0386538
0.0426468
0.0457301
0.0478641
0.0490897
0.0495234
0.0493391
0.0487385
0.0479186
0.047045
0.0462408
0.0455742
0.0450763
8.78262e-05
0.000124999
0.000137686
0.000122282
8.40379e-05
2.43187e-05
-5.53366e-05
-0.000153392
-0.00026845
-0.000399255
-0.000544724
-0.000703972
-0.000876324
-0.00106133
-0.00125878
-0.0014687
-0.00169137
-0.00192733
-0.0021774
-0.00244268
-0.00272461
-0.00302501
-0.00334612
-0.00369065
-0.00406193
-0.00446393
-0.00490143
-0.00538007
-0.00590644
-0.0064881
-0.00713351
-0.00785184
-0.00865256
-0.00954482
-0.0105365
-0.0116332
-0.0128365
-0.0141423
-0.0155394
-0.0170075
-0.0185162
-0.0200239
-0.0214779
-0.0228152
-0.023964
-0.0248459
-0.0253794
-0.0254829
-0.0250788
-0.0240973
-0.0224798
-0.0201835
-0.0171868
-0.0134892
-0.00911814
-0.0041303
0.00138378
0.00729991
0.01346
0.0196758
0.0257367
0.0314217
0.0365168
0.0408366
0.0442465
0.0466835
0.0481672
0.0487993
0.048747
0.0482144
0.047408
0.0465066
0.0456473
0.044905
0.0443252
0.000138622
0.000172257
0.000181587
0.000163223
0.000122409
6.06651e-05
-2.03948e-05
-0.000119147
-0.00023416
-0.000364158
-0.000508052
-0.000664954
-0.000834189
-0.0010153
-0.00120808
-0.00141253
-0.00162893
-0.00185781
-0.00210001
-0.00235667
-0.00262931
-0.00291988
-0.00323084
-0.00356525
-0.0039269
-0.00432041
-0.00475143
-0.00522671
-0.00575426
-0.00634332
-0.00700434
-0.00774873
-0.00858836
-0.00953482
-0.0105983
-0.0117864
-0.0131019
-0.0145416
-0.0160937
-0.0177367
-0.0194377
-0.0211518
-0.0228225
-0.0243828
-0.0257566
-0.0268621
-0.0276143
-0.0279291
-0.0277269
-0.0269358
-0.0254954
-0.0233594
-0.0205045
-0.0169259
-0.0126457
-0.00771284
-0.00221071
0.00374448
0.0100019
0.0163782
0.0226639
0.0286335
0.0340619
0.0387454
0.0425255
0.0453123
0.0471002
0.0479712
0.0480825
0.0476387
0.0468562
0.0459293
0.0450116
0.0441897
0.0435232
0.000197248
0.000226397
0.000231608
0.000209743
0.000165942
0.00010186
1.914e-05
-8.05157e-05
-0.000195655
-0.000324994
-0.00046744
-0.000622108
-0.000788325
-0.000965637
-0.00115382
-0.00135289
-0.00156312
-0.00178505
-0.00201955
-0.00226784
-0.00253156
-0.00281284
-0.00311442
-0.0034398
-0.00379334
-0.00418045
-0.00460781
-0.00508347
-0.00561705
-0.00621972
-0.00690412
-0.00768409
-0.00857402
-0.00958802
-0.0107386
-0.0120348
-0.0134809
-0.0150734
-0.0167999
-0.0186366
-0.0205477
-0.0224845
-0.0243865
-0.0261821
-0.0277916
-0.0291293
-0.0301078
-0.0306408
-0.030647
-0.0300536
-0.0287982
-0.0268309
-0.0241278
-0.0206801
-0.0165027
-0.0116374
-0.00615952
-0.000176041
0.00617101
0.0127053
0.0192201
0.0254875
0.0312722
0.0363525
0.0405446
0.0437285
0.0458687
0.0470226
0.0473332
0.0470032
0.0462585
0.0453107
0.0443332
0.0434286
0.0426705
0.000263566
0.000287307
0.000287649
0.000261742
0.000214549
0.00014779
6.31696e-05
-3.75865e-05
-0.000153017
-0.000281837
-0.000422959
-0.000575505
-0.000738807
-0.000912414
-0.00109611
-0.0012899
-0.00149408
-0.00170923
-0.00193626
-0.00217649
-0.00243172
-0.00270433
-0.00299743
-0.00331502
-0.00366215
-0.00404518
-0.00447197
-0.00495209
-0.00549693
-0.00611982
-0.00683578
-0.00766123
-0.0086132
-0.00970824
-0.0109609
-0.012382
-0.013976
-0.0157392
-0.0176576
-0.0197048
-0.0218413
-0.0240145
-0.0261592
-0.0281996
-0.0300523
-0.0316286
-0.0328387
-0.0335947
-0.0338146
-0.0334246
-0.0323604
-0.03057
-0.0280294
-0.0247264
-0.0206627
-0.0158793
-0.0104405
-0.0044431
0.00198132
0.00866517
0.0154072
0.0219787
0.0281367
0.0336418
0.0382841
0.0419111
0.0444527
0.0459366
0.0464862
0.0462991
0.0456096
0.0446482
0.0436113
0.0426212
0.0417666
0.0003374
0.000354834
0.000349568
0.000319088
0.000268103
0.000198321
0.00011158
9.53492e-06
-0.000106343
-0.000234778
-0.000374697
-0.000525233
-0.000685727
-0.000855737
-0.00103505
-0.0012237
-0.00142198
-0.00163054
-0.00185035
-0.00208288
-0.00233012
-0.00259477
-0.00288037
-0.00319153
-0.00353413
-0.0039156
-0.00434515
-0.00483405
-0.00539569
-0.00604571
-0.0068017
-0.00768275
-0.00870854
-0.00989801
-0.0112676
-0.0128292
-0.0145874
-0.0165376
-0.0186635
-0.0209354
-0.02331
-0.02573
-0.0281258
-0.0304177
-0.0325185
-0.034337
-0.0357817
-0.0367637
-0.0372005
-0.0370166
-0.0361438
-0.0345433
-0.0321767
-0.0290265
-0.0250911
-0.0204061
-0.0150234
-0.00902936
-0.00254414
0.00427545
0.0112358
0.0181107
0.024651
0.030602
0.0357278
0.0398409
0.042833
0.0446961
0.0455282
0.045517
0.0449039
0.043939
0.042845
0.0417667
0.0408115
0.000418531
0.00042878
0.000417186
0.00038161
0.000326422
0.000253327
0.000164236
6.07221e-05
-5.57508e-05
-0.000183929
-0.000322761
-0.000471397
-0.000629194
-0.00079572
-0.000970774
-0.00115441
-0.00134697
-0.00154914
-0.00176203
-0.00198724
-0.00222704
-0.0024845
-0.00276367
-0.00306987
-0.00340994
-0.00379251
-0.00422834
-0.00473054
-0.00531472
-0.00599897
-0.00680357
-0.00775034
-0.00886158
-0.0101585
-0.011659
-0.0133757
-0.015313
-0.0174644
-0.0198108
-0.0223191
-0.0249414
-0.0276158
-0.0302684
-0.0328153
-0.0351665
-0.0372286
-0.0389087
-0.0401175
-0.0407719
-0.0407939
-0.0401235
-0.0387189
-0.036531
-0.0335416
-0.0297507
-0.0251787
-0.01987
-0.013899
-0.00737328
-0.000437097
0.00672614
0.0138954
0.0208188
0.0272288
0.0328642
0.0375022
0.040992
0.0432843
0.0444452
0.0446473
0.0441355
0.0431801
0.0420331
0.0408643
0.0398045
0.000506705
0.000508907
0.000490277
0.000449095
0.000389302
0.000312645
0.000220971
0.00011582
-1.38549e-06
-0.000129428
-0.000267285
-0.000414132
-0.000569341
-0.000732498
-0.000903421
-0.00108219
-0.0012692
-0.00146521
-0.00167147
-0.00188979
-0.00212273
-0.0023738
-0.00264766
-0.00295045
-0.00329007
-0.00367652
-0.00412226
-0.00464242
-0.00525495
-0.00598056
-0.0068423
-0.00786473
-0.00907265
-0.0104892
-0.0121337
-0.0140189
-0.016148
-0.0185126
-0.0210904
-0.0238438
-0.0267205
-0.029654
-0.0325658
-0.0353688
-0.03797
-0.0402746
-0.0421889
-0.0436232
-0.044494
-0.0447272
-0.0442677
-0.0430564
-0.0410516
-0.0382326
-0.0345957
-0.0301516
-0.0249351
-0.0190085
-0.0124656
-0.00543661
0.00190758
0.00935424
0.0166526
0.023525
0.0296879
0.0348829
0.0389141
0.0416854
0.0432238
0.0436798
0.0432981
0.0423684
0.0411742
0.039914
0.0387456
0.000601625
0.000594932
0.000568573
0.000521289
0.000456527
0.000376047
0.000281585
0.000174641
5.65745e-05
-7.14456e-05
-0.000208436
-0.000353599
-0.000506329
-0.000666233
-0.000833149
-0.0010072
-0.00118883
-0.00137891
-0.00157884
-0.00179068
-0.00201736
-0.00226287
-0.00253257
-0.00283353
-0.00317483
-0.003568
-0.00402731
-0.0045701
-0.00521679
-0.0059908
-0.00691798
-0.00802559
-0.00934076
-0.0108884
-0.0126885
-0.0147536
-0.0170855
-0.019673
-0.02249
-0.0254946
-0.0286295
-0.0318238
-0.0349948
-0.0380522
-0.0409009
-0.0434447
-0.0455897
-0.0472469
-0.0483338
-0.0487789
-0.0485217
-0.0475047
-0.0456893
-0.0430499
-0.0395769
-0.0352746
-0.0301682
-0.0243078
-0.0177731
-0.010679
-0.00318152
0.00451799
0.0121736
0.019502
0.0262004
0.0319762
0.0365871
0.0398851
0.0418506
0.0426046
0.0423856
0.0415009
0.0402674
0.0389154
0.037635
0.000702961
0.000686526
0.000651762
0.0005979
0.000527828
0.000443266
0.000345834
0.000236955
0.000117911
-1.01927e-05
-0.000146417
-0.000289997
-0.000440353
-0.000597111
-0.000760139
-0.000929598
-0.00110602
-0.00129038
-0.00148428
-0.00169006
-0.00191104
-0.00215181
-0.00241851
-0.00271921
-0.00306433
-0.00346702
-0.00394356
-0.00451357
-0.00520009
-0.0060293
-0.00702983
-0.00823153
-0.00966365
-0.0113525
-0.0133184
-0.0155731
-0.0181164
-0.020934
-0.0239955
-0.0272544
-0.0306487
-0.0341028
-0.0375304
-0.0408383
-0.0439295
-0.0467072
-0.0490775
-0.0509522
-0.0522504
-0.0529012
-0.0528433
-0.0520223
-0.0503985
-0.0479434
-0.0446425
-0.0404941
-0.0355146
-0.0297421
-0.023242
-0.0161131
-0.00849484
-0.000574026
0.00741217
0.0151796
0.0224107
0.0287815
0.034003
0.0378716
0.0403137
0.041412
0.041392
0.0405748
0.0393121
0.0378688
0.0364735
0.000810344
0.000783309
0.000739487
0.000678587
0.000602875
0.000513996
0.000413429
0.000302489
0.00018236
5.40769e-05
-8.14748e-05
-0.000223566
-0.000371641
-0.000525351
-0.000684594
-0.000849582
-0.00102093
-0.00119977
-0.00138789
-0.00158798
-0.00180383
-0.00204064
-0.00230544
-0.00260742
-0.00295843
-0.00337339
-0.00387069
-0.00447236
-0.00520412
-0.00609493
-0.00717615
-0.00848006
-0.0100378
-0.0118765
-0.0140167
-0.0164687
-0.0192298
-0.0222821
-0.0255908
-0.0291046
-0.0327566
-0.0364672
-0.0401465
-0.0436986
-0.0470255
-0.0500296
-0.0526178
-0.0547028
-0.0562054
-0.0570556
-0.0571931
-0.0565655
-0.0551323
-0.0528633
-0.04974
-0.0457554
-0.0409176
-0.0352536
-0.0288146
-0.0216827
-0.0139795
-0.00587474
0.00240733
0.0105867
0.0183364
0.0253052
0.0311593
0.0356366
0.0386027
0.0400932
0.0403114
0.0395877
0.0383083
0.0367756
0.0352625
0.000923327
0.000884867
0.000831331
0.00076295
0.00068129
0.000587881
0.000484031
0.000370917
0.000249608
0.000121059
-1.39039e-05
-0.000154587
-0.000300463
-0.000451203
-0.000606742
-0.000767348
-0.000933733
-0.00110719
-0.00128976
-0.00148448
-0.00169567
-0.00192925
-0.00219318
-0.00249788
-0.00285675
-0.00328659
-0.00380798
-0.00444549
-0.00522751
-0.00618581
-0.00735435
-0.00876764
-0.0104583
-0.0124543
-0.0147754
-0.0174302
-0.0204131
-0.0237022
-0.0272582
-0.031025
-0.034931
-0.0388923
-0.0428162
-0.0466047
-0.0501584
-0.05338
-0.0561768
-0.0584632
-0.0601614
-0.0612032
-0.0615297
-0.0610902
-0.0598441
-0.0577604
-0.0548176
-0.051004
-0.0463204
-0.0407835
-0.0344308
-0.0273281
-0.0195779
-0.0113309
-0.0027946
0.0057602
0.014003
0.0215614
0.0280594
0.0331759
0.0367099
0.0386405
0.0391389
0.0385377
0.0372565
0.035638
0.0340039
0.00104144
0.000990716
0.000926812
0.000850529
0.000762635
0.000664504
0.00055724
0.000441853
0.000319284
0.000190393
5.59491e-05
-8.33935e-05
-0.000227129
-0.000374954
-0.000526835
-0.000683106
-0.000844585
-0.00101274
-0.00118991
-0.00137951
-0.00158644
-0.0018174
-0.00208138
-0.00239012
-0.00275865
-0.00320576
-0.00375432
-0.00443146
-0.00526831
-0.00629931
-0.00756094
-0.00908969
-0.0109194
-0.0130783
-0.015585
-0.018446
-0.0216525
-0.0251783
-0.0289794
-0.0329948
-0.0371487
-0.0413533
-0.045513
-0.049528
-0.0532983
-0.0567267
-0.0597216
-0.0621987
-0.0640823
-0.0653062
-0.0658132
-0.0655542
-0.0644898
-0.0625881
-0.0598259
-0.0561877
-0.0516679
-0.0462741
-0.0400311
-0.0329884
-0.0252298
-0.0168847
-0.00814123
0.000744278
0.00944425
0.0175716
0.0247135
0.0304906
0.0346308
0.037048
0.0378703
0.0374238
0.0361583
0.034459
0.032701
0.00116416
0.00110031
0.00102539
0.0009408
0.000846407
0.000743383
0.000632591
0.00051485
0.000390952
0.00026166
0.00012768
-1.03673e-05
-0.000151997
-0.000296925
-0.000445153
-0.00059708
-0.000753647
-0.000916521
-0.00108833
-0.00127296
-0.00147592
-0.00170474
-0.00196953
-0.00228344
-0.00266323
-0.00312973
-0.00370818
-0.00442831
-0.00532393
-0.00643213
-0.00779166
-0.00944075
-0.0114142
-0.0137398
-0.0164349
-0.0195034
-0.022933
-0.0266931
-0.030735
-0.0349929
-0.0393867
-0.0438253
-0.0482104
-0.0524409
-0.0564162
-0.0600396
-0.0632205
-0.0658766
-0.0679341
-0.069329
-0.0700062
-0.0699187
-0.0690282
-0.0673031
-0.064719
-0.0612577
-0.0569084
-0.0516705
-0.0455576
-0.0386038
-0.0308741
-0.0224762
-0.0135759
-0.00441076
0.00470106
0.0133652
0.0211386
0.0275871
0.0323647
0.0353121
0.0365029
0.0362456
0.0350158
0.0332423
0.0313582
0.00129088
0.00121304
0.00112645
0.00103317
0.000932031
0.000823965
0.000709552
0.000589389
0.000464112
0.000334375
0.000200826
6.40536e-05
-7.547e-05
-0.000217475
-0.000361997
-0.000509505
-0.000661069
-0.000818573
-0.000984977
-0.00116465
-0.00136377
-0.00159078
-0.00185696
-0.00217694
-0.00256929
-0.00305697
-0.00366763
-0.00443356
-0.00539125
-0.00658026
-0.00804145
-0.00981448
-0.0119347
-0.0144293
-0.0173138
-0.0205891
-0.0242393
-0.0282293
-0.0325056
-0.036998
-0.0416223
-0.0462841
-0.0508831
-0.0553169
-0.0594846
-0.0632902
-0.0666444
-0.0694666
-0.0716855
-0.0732393
-0.0740751
-0.0741485
-0.0734226
-0.0718667
-0.0694559
-0.0661702
-0.0619948
-0.0569224
-0.0509564
-0.0441171
-0.0364512
-0.0280448
-0.0190395
-0.00965028
-0.000179661
0.00897869
0.0173592
0.0244784
0.0299156
0.0334322
0.0350355
0.0350042
0.0338325
0.0319929
0.0299816
0.00142092
0.0013282
0.00122931
0.00112696
0.00101886
0.000905617
0.000787508
0.000664878
0.000538186
0.000407983
0.000274856
0.000139374
2.0014e-06
-0.000137
-0.000277694
-0.000420622
-0.000566995
-0.000718927
-0.000879737
-0.00105432
-0.00124956
-0.00147489
-0.0017428
-0.00206949
-0.0024754
-0.00298566
-0.00363034
-0.00444431
-0.0054666
-0.00673912
-0.00830461
-0.0102039
-0.0124724
-0.0151366
-0.0182095
-0.021689
-0.0255554
-0.0297691
-0.0342719
-0.0389892
-0.0438332
-0.0487065
-0.0535069
-0.0581309
-0.0624778
-0.0664521
-0.0699662
-0.0729413
-0.0753084
-0.0770081
-0.0779904
-0.0782129
-0.0776409
-0.0762451
-0.0740007
-0.0708867
-0.0668857
-0.0619847
-0.0561786
-0.0494755
-0.0419049
-0.0335317
-0.0244727
-0.0149171
-0.00514636
0.00445443
0.0134063
0.0211836
0.0272925
0.031411
0.0334691
0.0337018
0.0326129
0.030717
0.0285783
0.00155356
0.00144503
0.00133319
0.00122143
0.00110614
0.000987625
0.000865766
0.000740639
0.000612522
0.000481855
0.000349175
0.00021504
7.99169e-05
-5.59307e-05
-0.000192592
-0.000330681
-0.000471554
-0.000617576
-0.00077245
-0.000941622
-0.00113276
-0.00135629
-0.00162602
-0.00195976
-0.00237986
-0.00291365
-0.00359364
-0.00445721
-0.00554585
-0.00690362
-0.00857492
-0.0106014
-0.0130184
-0.015851
-0.0191098
-0.022789
-0.0268655
-0.0312951
-0.036015
-0.0409466
-0.0459984
-0.0510706
-0.0560592
-0.0608599
-0.0653723
-0.0695016
-0.0731619
-0.0762762
-0.0787781
-0.0806107
-0.0817264
-0.0820858
-0.0816562
-0.08041
-0.0783234
-0.0753751
-0.0715459
-0.0668188
-0.0611816
-0.0546317
-0.0471835
-0.0388814
-0.0298174
-0.0201533
-0.0101445
-0.000160121
0.00931685
0.0177281
0.0245097
0.029255
0.0318072
0.0323424
0.031363
0.0294223
0.0271571
0.00168795
0.00156267
0.00143723
0.0013157
0.00119306
0.00106918
0.000943538
0.000815911
0.000686381
0.000555284
0.000423117
0.000290435
0.000157726
2.52636e-05
-0.00010706
-0.000239932
-0.000374862
-0.000514479
-0.000662895
-0.000826147
-0.00101271
-0.00123408
-0.00150543
-0.0018462
-0.00228072
-0.00283854
-0.00355454
-0.00446858
-0.00562447
-0.00706824
-0.00884568
-0.010999
-0.0135631
-0.0165617
-0.020002
-0.0238748
-0.0281539
-0.0327903
-0.0377169
-0.042851
-0.0480981
-0.053356
-0.0585191
-0.0634829
-0.0681469
-0.0724176
-0.0762103
-0.0794504
-0.0820736
-0.0840259
-0.0852622
-0.0857458
-0.0854464
-0.0843386
-0.0823998
-0.0796092
-0.0759468
-0.0713926
-0.0659293
-0.059545
-0.052241
-0.0440431
-0.035019
-0.025302
-0.0151183
-0.00481401
0.00513333
0.0141433
0.021587
0.0269752
0.0300561
0.030932
0.0300903
0.0281181
0.0257284
0.00182317
0.00168015
0.00154047
0.00140884
0.00127868
0.00114937
0.00101994
0.000889834
0.000758937
0.000627482
0.00049594
0.000364884
0.000234831
0.00010608
-2.14869e-05
-0.000148629
-0.000277015
-0.000409555
-0.000550793
-0.000707388
-0.000888664
-0.00110724
-0.00137966
-0.0017271
-0.00217584
-0.00275765
-0.00350978
-0.00447445
-0.00569763
-0.00722715
-0.00910993
-0.0113885
-0.014097
-0.0172576
-0.0208738
-0.0249327
-0.0294055
-0.0342385
-0.0393603
-0.0446846
-0.0501139
-0.0555439
-0.060868
-0.065981
-0.070783
-0.0751815
-0.0790934
-0.0824461
-0.0851777
-0.0872366
-0.0885808
-0.089176
-0.0889946
-0.0880133
-0.0862114
-0.083569
-0.080066
-0.075681
-0.0703924
-0.0641816
-0.0570383
-0.0489717
-0.040027
-0.030309
-0.0200123
-0.00945428
0.000902088
0.010466
0.0185498
0.0245866
0.0282252
0.0294785
0.0288042
0.0268153
0.0243043
0.00195818
0.00179642
0.00164183
0.00149978
0.00136195
0.00122719
0.00109399
0.000961452
0.000829267
0.000697574
0.000566831
0.000437644
0.000310583
0.000185983
6.37234e-05
-5.70225e-05
-0.000178091
-0.000302684
-0.000435804
-0.000584761
-0.00075977
-0.000974595
-0.00124723
-0.00160057
-0.00206287
-0.00266813
-0.00345588
-0.00447059
-0.00576027
-0.00737431
-0.00936052
-0.0117615
-0.0146105
-0.0179279
-0.0217131
-0.025949
-0.0306058
-0.0356244
-0.0409294
-0.046431
-0.0520292
-0.0576177
-0.0630891
-0.0683379
-0.0732646
-0.0777778
-0.0817961
-0.0852488
-0.0880763
-0.0902297
-0.0916694
-0.0923639
-0.0922882
-0.0914214
-0.0897448
-0.0872399
-0.0838873
-0.0796649
-0.0745486
-0.0685143
-0.0615427
-0.0536287
-0.0447967
-0.0351242
-0.0247729
-0.0140275
-0.00332773
0.00673762
0.0154284
0.0221091
0.0263274
0.0279925
0.0275158
0.0255266
0.0228987
0.00209184
0.00191029
0.0017401
0.00158734
0.00144173
0.00130149
0.00116457
0.0010297
0.000896353
0.000764596
0.000634895
0.000507911
0.000384284
0.000264402
0.000148152
3.46394e-05
-7.81432e-05
-0.000193706
-0.00031753
-0.00045761
-0.00062508
-0.000834895
-0.00110652
-0.00146458
-0.00193935
-0.00256697
-0.0033892
-0.00445266
-0.0058072
-0.00750358
-0.00959029
-0.0121097
-0.015094
-0.0185622
-0.0225085
-0.026911
-0.0317411
-0.0369338
-0.0424095
-0.0480753
-0.0538289
-0.0595626
-0.0651679
-0.0705395
-0.0755781
-0.0801937
-0.0843063
-0.0878471
-0.0907589
-0.0929951
-0.0945187
-0.0953009
-0.095319
-0.0945547
-0.0929915
-0.0906126
-0.0873999
-0.0833314
-0.0783817
-0.0725229
-0.0657288
-0.0579822
-0.0492894
-0.0397023
-0.02935
-0.0184812
-0.00750559
0.00300317
0.0122581
0.0195671
0.0243795
0.026487
0.0262382
0.0242667
0.0215275
0.00222288
0.00202043
0.00183397
0.0016702
0.00151671
0.00137103
0.00123048
0.0010934
0.000959069
0.000827491
0.00069916
0.000574816
0.00045519
0.000340738
0.000231367
0.000126115
2.27964e-05
-8.24211e-05
-0.000195518
-0.000325204
-0.000483566
-0.00068678
-0.000955806
-0.00131702
-0.00180268
-0.00245104
-0.00330602
-0.00441623
-0.0058332
-0.00760886
-0.00979215
-0.012425
-0.0155384
-0.0191507
-0.0232493
-0.0278064
-0.0327989
-0.038154
-0.0437875
-0.0496044
-0.0555002
-0.0613659
-0.0670923
-0.072574
-0.0777126
-0.0824189
-0.0866146
-0.0902327
-0.093218
-0.0955263
-0.097123
-0.0979817
-0.0980824
-0.0974089
-0.0959471
-0.0936823
-0.0905978
-0.0866728
-0.0818813
-0.0761933
-0.0695773
-0.0620069
-0.0534728
-0.0440038
-0.0336975
-0.0227653
-0.0115808
-0.000689654
0.00907785
0.0169889
0.0224017
0.024978
0.0249868
0.0230519
0.0202085
0.0023499
0.0021254
0.00192195
0.00174689
0.00158547
0.0014344
0.00129035
0.00115125
0.00101618
0.000885106
0.000758571
0.000637424
0.000522507
0.000414364
0.000312925
0.000217168
0.00012472
3.14099e-05
-6.92656e-05
-0.000186756
-0.000334133
-0.000528823
-0.000793299
-0.0011557
-0.00165022
-0.0023172
-0.0032026
-0.0043569
-0.00583314
-0.0076842
-0.00995927
-0.0126996
-0.0159351
-0.0196847
-0.0239263
-0.0286233
-0.0337675
-0.0392734
-0.045052
-0.0510069
-0.0570318
-0.0630167
-0.0688519
-0.0744321
-0.0796594
-0.0844458
-0.0887142
-0.0923996
-0.0954487
-0.0978193
-0.0994792
-0.100404
-0.100577
-0.0999828
-0.0986107
-0.0964479
-0.0934794
-0.0896859
-0.085042
-0.0795168
-0.0730754
-0.0656842
-0.0573212
-0.0479952
-0.0377744
-0.0268328
-0.0155036
-0.00429069
0.00592944
0.0144063
0.0204177
0.0234842
0.0237791
0.0219009
0.0189613
0.00247133
0.00222357
0.00200241
0.00181581
0.00164642
0.00149007
0.0013427
0.00120183
0.00106634
0.000936185
0.000811991
0.000694735
0.000585397
0.000484621
0.000392374
0.00030757
0.00022764
0.000148059
6.1776e-05
-4.14262e-05
-0.000175634
-0.000359548
-0.000617166
-0.00097838
-0.00147932
-0.00216231
-0.00307526
-0.00427038
-0.00580204
-0.00772388
-0.0100851
-0.0129262
-0.0162758
-0.020156
-0.0245299
-0.0293522
-0.0346367
-0.0402823
-0.0461931
-0.0522731
-0.0584145
-0.0645065
-0.0704388
-0.0761065
-0.0814122
-0.0862687
-0.0906006
-0.0943443
-0.0974484
-0.0998726
-0.101587
-0.102569
-0.102803
-0.102278
-0.100984
-0.0989113
-0.0960462
-0.0923714
-0.0878628
-0.0824896
-0.0762152
-0.0690009
-0.0608151
-0.0516492
-0.0415452