/*--------------------------------*- C++ -*----------------------------------*\
  =========                 |
  \\      /  F ield         | OpenFOAM: The Open Source CFD Toolbox
   \\    /   O peration     | Website:  https://openfoam.org
    \\  /    A nd           | Version:  12
     \\/     M anipulation  |
\*---------------------------------------------------------------------------*/
FoamFile
{
    format      ascii;
    class       surfaceScalarField;
    location    "1.5";
    object      phi;
}
// * * * * * * * * * * * * * * * * * * * * * * * * * * * * * * * * * * * * * //

dimensions      [0 3 -1 0 0 0 0];

internalField   nonuniform List<scalar> 
760
(
-4.19721e-08
4.19729e-08
-3.49376e-07
3.07404e-07
-7.98219e-07
4.48842e-07
-1.25678e-06
4.58565e-07
-1.65401e-06
3.97229e-07
-1.96293e-06
3.08918e-07
-2.18382e-06
2.2089e-07
-2.32889e-06
1.45065e-07
-2.41214e-06
8.32524e-08
-2.44367e-06
3.15343e-08
-2.42665e-06
-1.70231e-08
-2.35657e-06
-7.0076e-08
-2.22194e-06
-1.34631e-07
-2.00707e-06
-2.14872e-07
-1.69821e-06
-3.08859e-07
-1.29442e-06
-4.03791e-07
-8.23845e-07
-4.70574e-07
-3.61211e-07
-4.62635e-07
-4.38322e-08
-3.17378e-07
-4.38322e-08
-2.6499e-07
3.06963e-07
-1.10041e-06
1.14283e-06
-2.24482e-06
1.59325e-06
-3.41406e-06
1.6278e-06
-4.43706e-06
1.42023e-06
-5.24333e-06
1.1152e-06
-5.82775e-06
8.05309e-07
-6.21608e-06
5.33387e-07
-6.44028e-06
3.07453e-07
-6.524e-06
1.15258e-07
-6.47479e-06
-6.62334e-08
-6.28185e-06
-2.63016e-07
-5.91813e-06
-4.98349e-07
-5.34783e-06
-7.85178e-07
-4.54187e-06
-1.11482e-06
-3.50413e-06
-1.44153e-06
-2.30786e-06
-1.66685e-06
-1.13209e-06
-1.6384e-06
-2.72691e-07
-1.17678e-06
-3.16523e-07
-5.2244e-07
8.29404e-07
-1.83166e-06
2.45204e-06
-3.53339e-06
3.29498e-06
-5.25094e-06
3.34534e-06
-6.75189e-06
2.92119e-06
-7.9387e-06
2.30201e-06
-8.80317e-06
1.66977e-06
-9.38025e-06
1.11047e-06
-9.71411e-06
6.41312e-07
-9.83749e-06
2.3864e-07
-9.76099e-06
-1.42733e-07
-9.46963e-06
-5.54373e-07
-8.92602e-06
-1.04197e-06
-8.08099e-06
-1.63021e-06
-6.89529e-06
-2.30051e-06
-5.37545e-06
-2.96137e-06
-3.62236e-06
-3.41994e-06
-1.87844e-06
-3.38232e-06
-5.35362e-07
-2.51985e-06
-8.51885e-07
-7.68217e-07
1.59762e-06
-2.50216e-06
4.18599e-06
-4.65914e-06
5.45196e-06
-6.79399e-06
5.4802e-06
-8.6423e-06
4.7695e-06
-1.00978e-05
3.75746e-06
-1.11565e-05
2.72855e-06
-1.18632e-05
1.81714e-06
-1.22717e-05
1.04976e-06
-1.24212e-05
3.88196e-07
-1.23247e-05
-2.39242e-07
-1.19645e-05
-9.14537e-07
-1.12962e-05
-1.71032e-06
-1.02604e-05
-2.66604e-06
-8.80762e-06
-3.75325e-06
-6.9395e-06
-4.82949e-06
-4.76525e-06
-5.59419e-06
-2.55975e-06
-5.58782e-06
-7.85014e-07
-4.29459e-06
-1.6369e-06
-9.94475e-07
2.5921e-06
-3.10139e-06
6.2929e-06
-5.6237e-06
7.97428e-06
-8.05948e-06
7.91598e-06
-1.01342e-05
6.84425e-06
-1.17504e-05
5.37365e-06
-1.29178e-05
3.89597e-06
-1.36934e-05
2.59269e-06
-1.41399e-05
1.49626e-06
-1.43019e-05
5.50224e-07
-1.41941e-05
-3.47063e-07
-1.37973e-05
-1.31134e-06
-1.30619e-05
-2.44571e-06
-1.19198e-05
-3.80818e-06
-1.03088e-05
-5.36419e-06
-8.21608e-06
-6.92223e-06
-5.7407e-06
-8.06957e-06
-3.16681e-06
-8.16171e-06
-1.01426e-06
-6.44715e-06
-2.65115e-06
-1.20376e-06
3.79586e-06
-3.63178e-06
8.72091e-06
-6.43206e-06
1.07746e-05
-9.05663e-06
1.05405e-05
-1.12406e-05
9.02821e-06
-1.29118e-05
7.0449e-06
-1.41032e-05
5.08736e-06
-1.48872e-05
3.37664e-06
-1.53353e-05
1.94436e-06
-1.54964e-05
7.11325e-07
-1.53866e-05
-4.5687e-07
-1.49861e-05
-1.71183e-06
-1.42418e-05
-3.19e-06
-1.30772e-05
-4.97276e-06
-1.14147e-05
-7.02671e-06
-9.21702e-06
-9.1199e-06
-6.55578e-06
-1.07308e-05
-3.70348e-06
-1.1014e-05
-1.2263e-06
-8.92434e-06
-3.87745e-06
-1.40286e-06
5.19871e-06
-4.10072e-06
1.14188e-05
-7.08837e-06
1.37622e-05
-9.78696e-06
1.32391e-05
-1.19623e-05
1.12035e-05
-1.35839e-05
8.66655e-06
-1.47163e-05
6.21973e-06
-1.54499e-05
4.11022e-06
-1.58645e-05
2.35893e-06
-1.60119e-05
8.58805e-07
-1.59094e-05
-5.5939e-07
-1.55374e-05
-2.08385e-06
-1.4841e-05
-3.88638e-06
-1.37364e-05
-6.07737e-06
-1.21279e-05
-8.63526e-06
-9.94536e-06
-1.13024e-05
-7.21595e-06
-1.34602e-05
-4.17826e-06
-1.40517e-05
-1.42854e-06
-1.16741e-05
-5.30599e-06
-1.60071e-06
6.79942e-06
-4.51619e-06
1.43343e-05
-7.59212e-06
1.68381e-05
-1.02421e-05
1.58891e-05
-1.22874e-05
1.32488e-05
-1.37554e-05
1.01345e-05
-1.47486e-05
7.21296e-06
-1.53763e-05
4.73795e-06
-1.57248e-05
2.70743e-06
-1.58471e-05
9.81099e-07
-1.57608e-05
-6.45755e-07
-1.54474e-05
-2.39724e-06
-1.48524e-05
-4.48131e-06
-1.3887e-05
-7.04282e-06
-1.2437e-05
-1.00852e-05
-1.0393e-05
-1.33464e-05
-7.72105e-06
-1.61322e-05
-4.5997e-06
-1.7173e-05
-1.6304e-06
-1.46434e-05
-6.93639e-06
-1.80743e-06
8.60686e-06
-4.8835e-06
1.74103e-05
-7.93409e-06
1.98887e-05
-1.04005e-05
1.83555e-05
-1.21894e-05
1.50378e-05
-1.34011e-05
1.13462e-05
-1.418e-05
7.99184e-06
-1.46518e-05
5.20969e-06
-1.49053e-05
2.96101e-06
-1.49923e-05
1.06804e-06
-1.49297e-05
-7.08375e-07
-1.47014e-05
-2.62551e-06
-1.42563e-05
-4.92643e-06
-1.35041e-05
-7.79495e-06
-1.23153e-05
-1.1274e-05
-1.05378e-05
-1.51239e-05
-8.06114e-06
-1.86089e-05
-4.97288e-06
-2.02613e-05
-1.84216e-06
-1.77741e-05
-8.77855e-06
-2.03342e-06
1.06403e-05
-5.20151e-06
2.05784e-05
-8.09128e-06
2.27785e-05
-1.02233e-05
2.04875e-05
-1.1625e-05
1.64394e-05
-1.24816e-05
1.22029e-05
-1.29784e-05
8.48857e-06
-1.32515e-05
5.48287e-06
-1.3387e-05
3.09651e-06
-1.34308e-05
1.1118e-06
-1.3398e-05
-7.41215e-07
-1.3276e-05
-2.74744e-06
-1.30212e-05
-5.18129e-06
-1.25482e-05
-8.2679e-06
-1.17184e-05
-1.21039e-05
-1.0339e-05
-1.65033e-05
-8.21126e-06
-2.07366e-05
-5.29557e-06
-2.3177e-05
-2.07404e-06
-2.09956e-05
-1.08526e-05
-2.28801e-06
1.29283e-05
-5.45739e-06
2.37478e-05
-8.01998e-06
2.53411e-05
-9.64913e-06
2.21167e-05
-1.05308e-05
1.73211e-05
-1.09423e-05
1.26144e-05
-1.11014e-05
8.64764e-06
-1.11445e-05
5.52592e-06
-1.11459e-05
3.098e-06
-1.11413e-05
1.10715e-06
-1.1142e-05
-7.40507e-07
-1.11406e-05
-2.74884e-06
-1.11054e-05
-5.21651e-06
-1.09647e-05
-8.40861e-06
-1.05818e-05
-1.24867e-05
-9.73278e-06
-1.73523e-05
-8.12473e-06
-2.23447e-05
-5.55271e-06
-2.5749e-05
-2.33478e-06
-2.42135e-05
-1.31874e-05
-2.57683e-06
1.55051e-05
-5.61796e-06
2.67889e-05
-7.64587e-06
2.7369e-05
-8.58668e-06
2.30575e-05
-8.82097e-06
1.75554e-05
-8.71335e-06
1.25068e-05
-8.49714e-06
8.43143e-06
-8.29322e-06
5.322e-06
-8.15419e-06
2.95897e-06
-8.09935e-06
1.05231e-06
-8.13469e-06
-7.05171e-07
-8.25914e-06
-2.62439e-06
-8.45834e-06
-5.0173e-06
-8.68445e-06
-8.1825e-06
-8.81915e-06
-1.2352e-05
-8.62549e-06
-1.7546e-05
-7.72367e-06
-2.32465e-05
-5.70769e-06
-2.7765e-05
-2.62865e-06
-2.72926e-05
-1.5816e-05
-2.89505e-06
1.84002e-05
-5.61515e-06
2.9509e-05
-6.85032e-06
2.86042e-05
-6.90709e-06
2.31143e-05
-6.38401e-06
1.70323e-05
-5.71021e-06
1.1833e-05
-5.10635e-06
7.82757e-06
-4.6575e-06
4.87315e-06
-4.38292e-06
2.68439e-06
-4.2803e-06
9.49692e-07
-4.34829e-06
-6.37176e-07
-4.59338e-06
-2.37931e-06
-5.02341e-06
-4.58727e-06
-5.62547e-06
-7.58044e-06
-6.32001e-06
-1.16575e-05
-6.88699e-06
-1.6979e-05
-6.88574e-06
-2.32477e-05
-5.68757e-06
-2.89632e-05
-2.94891e-06
-3.00312e-05
-1.87649e-05
-3.21318e-06
2.16133e-05
-5.32096e-06
3.16168e-05
-5.45032e-06
2.87335e-05
-4.43477e-06
2.20987e-05
-3.08198e-06
1.56795e-05
-1.83642e-06
1.05874e-05
-8.66029e-07
6.85719e-06
-1.97256e-07
4.20438e-06
1.94681e-07
2.29245e-06
3.37961e-07
8.06412e-07
2.42516e-07
-5.41732e-07
-1.06195e-07
-2.0306e-06
-7.41656e-07
-3.95181e-06
-1.6958e-06
-6.6263e-06
-2.95036e-06
-1.04029e-05
-4.34319e-06
-1.55862e-05
-5.42523e-06
-2.21657e-05
-5.35913e-06
-2.90293e-05
-3.26276e-06
-3.21276e-05
-2.20277e-05
-3.44532e-06
2.50587e-05
-4.50586e-06
3.26773e-05
-3.17286e-06
2.74006e-05
-9.39529e-07
1.98654e-05
1.24753e-06
1.34925e-05
3.01134e-06
8.8236e-06
4.28531e-06
5.58322e-06
5.12291e-06
3.36678e-06
5.59989e-06
1.81547e-06
5.77174e-06
6.34565e-07
5.65724e-06
-4.27234e-07
5.23418e-06
-1.60754e-06
4.44288e-06
-3.1605e-06
3.20073e-06
-5.38415e-06
1.44461e-06
-8.64678e-06
-7.6968e-07
-1.33719e-05
-3.07023e-06
-1.98652e-05
-4.48961e-06
-2.76099e-05
-3.47812e-06
-3.31391e-05
-2.55058e-05
-3.38459e-06
2.84433e-05
-2.77121e-06
3.20639e-05
3.76907e-07
2.42524e-05
3.8668e-06
1.63755e-05
6.78362e-06
1.05757e-05
8.93387e-06
6.67335e-06
1.04003e-05
4.11682e-06
1.13285e-05
2.43851e-06
1.18447e-05
1.2993e-06
1.20284e-05
4.5086e-07
1.1906e-05
-3.04869e-07
1.14494e-05
-1.15085e-06
1.05763e-05
-2.28744e-06
9.15554e-06
-3.96339e-06
7.03213e-06
-6.52336e-06
4.10944e-06
-1.04492e-05
5.66194e-07
-1.63219e-05
-2.6796e-06
-2.43641e-05
-3.38321e-06
-3.24355e-05
-2.8889e-05
-2.58912e-06
3.10324e-05
5.48644e-07
2.89262e-05
5.74741e-06
1.90537e-05
1.03222e-05
1.18007e-05
1.37045e-05
7.19339e-06
1.6015e-05
4.36281e-06
1.75131e-05
2.61879e-06
1.84296e-05
1.52197e-06
1.89283e-05
8.00661e-07
1.91036e-05
2.75482e-07
1.89866e-05
-1.87816e-07
1.8546e-05
-7.10216e-07
1.76866e-05
-1.42812e-06
1.62422e-05
-2.519e-06
1.39752e-05
-4.25632e-06
1.06131e-05
-7.08707e-06
6.01465e-06
-1.17235e-05
7.32151e-07
-1.90816e-05
-2.5305e-06
-2.91728e-05
-3.14195e-05
-6.43311e-09
3.10388e-05
6.62644e-06
2.22933e-05
1.36701e-05
1.201e-05
1.87795e-05
6.69124e-06
2.21539e-05
3.81902e-06
2.43005e-05
2.21614e-06
2.5628e-05
1.29136e-06
2.64146e-05
7.35378e-07
2.68337e-05
3.81531e-07
2.69792e-05
1.29943e-07
2.68814e-05
-8.99503e-08
2.65108e-05
-3.39681e-07
2.57743e-05
-6.91545e-07
2.44983e-05
-1.24302e-06
2.24022e-05
-2.16022e-06
1.90693e-05
-3.75418e-06
1.39733e-05
-6.6275e-06
6.88166e-06
-1.199e-05
1.18234e-07
-2.24094e-05
-3.13013e-05
6.3577e-06
2.46811e-05
1.74586e-05
1.11924e-05
2.50057e-05
4.46294e-06
2.95122e-05
2.18473e-06
3.21831e-05
1.14809e-06
3.3769e-05
6.3034e-07
3.4706e-05
3.54266e-07
3.52446e-05
1.96786e-07
3.55259e-05
1.00311e-07
3.56221e-05
3.36804e-08
3.55562e-05
-2.40678e-08
3.53067e-05
-9.01836e-08
3.48015e-05
-1.86285e-07
3.3901e-05
-3.42512e-07
3.23564e-05
-6.15651e-07
2.97303e-05
-1.12807e-06
2.52624e-05
-2.15958e-06
1.77173e-05
-4.44491e-06
6.5239e-06
-1.1216e-05
-2.47774e-05
2.46811e-05
3.58735e-05
4.03364e-05
4.25212e-05
4.36693e-05
4.42996e-05
4.46539e-05
4.48506e-05
4.4951e-05
4.49846e-05
4.49606e-05
4.48704e-05
4.46841e-05
4.43416e-05
4.37259e-05
4.25979e-05
4.04383e-05
3.59934e-05
2.47774e-05
)
;

boundaryField
{
    movingWall
    {
        type            calculated;
        value           uniform 0;
    }
    fixedWalls
    {
        type            calculated;
        value           uniform 0;
    }
    frontAndBack
    {
        type            empty;
    }
}


// ************************************************************************* //
