/*--------------------------------*- C++ -*----------------------------------*\
  =========                 |
  \\      /  F ield         | OpenFOAM: The Open Source CFD Toolbox
   \\    /   O peration     | Website:  https://openfoam.org
    \\  /    A nd           | Version:  12
     \\/     M anipulation  |
\*---------------------------------------------------------------------------*/
FoamFile
{
    format      ascii;
    class       volScalarField;
    location    "1";
    object      k;
}
// * * * * * * * * * * * * * * * * * * * * * * * * * * * * * * * * * * * * * //

dimensions      [0 2 -2 0 0 0 0];

internalField   nonuniform List<scalar> 
5625
(
1.16921e-09
8.83111e-09
1.87132e-08
3.0501e-08
4.37694e-08
5.81965e-08
7.35468e-08
8.9638e-08
1.0632e-07
1.23464e-07
1.40953e-07
1.58679e-07
1.76544e-07
1.94454e-07
2.12317e-07
2.30051e-07
2.47571e-07
2.64802e-07
2.81666e-07
2.98094e-07
3.14016e-07
3.29367e-07
3.44086e-07
3.58115e-07
3.71397e-07
3.83884e-07
3.95525e-07
4.06279e-07
4.16103e-07
4.24963e-07
4.32826e-07
4.39664e-07
4.45451e-07
4.50169e-07
4.538e-07
4.56332e-07
4.57759e-07
4.58074e-07
4.57281e-07
4.55381e-07
4.52383e-07
4.48301e-07
4.4315e-07
4.3695e-07
4.29726e-07
4.21505e-07
4.1232e-07
4.02205e-07
3.91199e-07
3.79344e-07
3.66686e-07
3.53273e-07
3.39159e-07
3.24397e-07
3.09045e-07
2.93166e-07
2.76822e-07
2.6008e-07
2.4301e-07
2.25685e-07
2.08179e-07
1.9057e-07
1.72942e-07
1.55379e-07
1.3797e-07
1.20813e-07
1.04008e-07
8.76667e-08
7.19143e-08
5.68949e-08
4.27845e-08
2.98114e-08
1.82886e-08
8.63024e-09
1.14257e-09
7.90814e-09
7.03928e-08
1.60359e-07
2.67878e-07
3.88273e-07
5.18725e-07
6.5725e-07
8.02298e-07
9.52571e-07
1.10693e-06
1.26435e-06
1.42388e-06
1.58463e-06
1.74576e-06
1.90646e-06
2.06598e-06
2.22357e-06
2.37855e-06
2.53023e-06
2.67797e-06
2.82116e-06
2.95922e-06
3.09158e-06
3.21774e-06
3.33719e-06
3.44947e-06
3.55415e-06
3.65085e-06
3.73919e-06
3.81886e-06
3.88956e-06
3.95104e-06
4.00308e-06
4.0455e-06
4.07814e-06
4.10091e-06
4.11374e-06
4.11657e-06
4.10943e-06
4.09234e-06
4.06538e-06
4.02867e-06
3.98234e-06
3.92659e-06
3.86162e-06
3.7877e-06
3.7051e-06
3.61414e-06
3.51517e-06
3.40856e-06
3.29474e-06
3.17412e-06
3.0472e-06
2.91444e-06
2.77639e-06
2.63359e-06
2.4866e-06
2.33603e-06
2.18251e-06
2.02668e-06
1.86921e-06
1.71082e-06
1.55223e-06
1.3942e-06
1.23755e-06
1.08312e-06
9.31815e-07
7.84625e-07
6.4264e-07
5.07108e-07
3.79526e-07
2.61816e-07
1.56718e-07
6.8791e-08
7.72788e-09
1.75788e-08
1.57649e-07
3.61493e-07
6.0682e-07
8.82652e-07
1.1822e-06
1.50068e-06
1.83437e-06
2.1802e-06
2.53548e-06
2.89782e-06
3.26503e-06
3.63503e-06
4.0059e-06
4.37578e-06
4.74291e-06
5.10561e-06
5.46227e-06
5.81133e-06
6.15132e-06
6.48083e-06
6.79852e-06
7.1031e-06
7.39337e-06
7.66821e-06
7.92654e-06
8.1674e-06
8.38987e-06
8.59312e-06
8.7764e-06
8.93904e-06
9.08047e-06
9.20017e-06
9.29772e-06
9.37281e-06
9.42516e-06
9.45462e-06
9.46112e-06
9.44465e-06
9.4053e-06
9.34325e-06
9.25875e-06
9.15214e-06
9.02384e-06
8.87435e-06
8.70425e-06
8.51419e-06
8.30489e-06
8.07715e-06
7.83186e-06
7.56995e-06
7.29242e-06
7.00036e-06
6.6949e-06
6.37724e-06
6.04863e-06
5.71041e-06
5.36393e-06
5.01065e-06
4.65204e-06
4.28967e-06
3.92515e-06
3.56017e-06
3.19649e-06
2.83596e-06
2.48054e-06
2.13235e-06
1.79368e-06
1.46709e-06
1.15554e-06
8.62626e-07
5.92989e-07
3.53227e-07
1.54036e-07
1.71753e-08
2.90726e-08
2.61153e-07
6.00097e-07
1.00943e-06
1.47097e-06
1.97323e-06
2.508e-06
3.06888e-06
3.65054e-06
4.24839e-06
4.85831e-06
5.47653e-06
6.09955e-06
6.72407e-06
7.34696e-06
7.96525e-06
8.57608e-06
9.17673e-06
9.76458e-06
1.03372e-05
1.08921e-05
1.1427e-05
1.19399e-05
1.24287e-05
1.28915e-05
1.33265e-05
1.3732e-05
1.41066e-05
1.44488e-05
1.47573e-05
1.50311e-05
1.52691e-05
1.54706e-05
1.56348e-05
1.57611e-05
1.58491e-05
1.58986e-05
1.59094e-05
1.58816e-05
1.58153e-05
1.57107e-05
1.55683e-05
1.53887e-05
1.51725e-05
1.49207e-05
1.46342e-05
1.43141e-05
1.39616e-05
1.35781e-05
1.3165e-05
1.2724e-05
1.22566e-05
1.17648e-05
1.12504e-05
1.07155e-05
1.01621e-05
9.5926e-06
9.00919e-06
8.41431e-06
7.8105e-06
7.20036e-06
6.58664e-06
5.97217e-06
5.35996e-06
4.75314e-06
4.15506e-06
3.56932e-06
2.99985e-06
2.45107e-06
1.9281e-06
1.43712e-06
9.86102e-07
5.86179e-07
2.55083e-07
2.83957e-08
4.18729e-08
3.76362e-07
8.65633e-07
1.4576e-06
2.12622e-06
2.85492e-06
3.63175e-06
4.44726e-06
5.29361e-06
6.16399e-06
7.05231e-06
7.953e-06
8.86088e-06
9.77111e-06
1.06791e-05
1.15804e-05
1.24709e-05
1.33466e-05
1.42036e-05
1.50384e-05
1.58474e-05
1.66274e-05
1.73751e-05
1.80877e-05
1.87623e-05
1.93964e-05
1.99875e-05
2.05334e-05
2.10321e-05
2.14818e-05
2.18807e-05
2.22276e-05
2.2521e-05
2.27601e-05
2.2944e-05
2.30721e-05
2.3144e-05
2.31595e-05
2.31187e-05
2.30217e-05
2.2869e-05
2.26612e-05
2.23991e-05
2.20838e-05
2.17165e-05
2.12986e-05
2.08318e-05
2.03178e-05
1.97585e-05
1.91562e-05
1.85131e-05
1.78317e-05
1.71146e-05
1.63647e-05
1.55849e-05
1.47782e-05
1.3948e-05
1.30976e-05
1.22305e-05
1.13505e-05
1.04613e-05
9.56704e-06
8.67181e-06
7.78002e-06
6.89631e-06
6.02561e-06
5.17324e-06
4.34502e-06
3.54748e-06
2.78818e-06
2.07621e-06
1.42316e-06
8.45108e-07
3.67418e-07
4.08761e-08
5.56543e-08
5.00373e-07
1.15141e-06
1.93993e-06
2.83151e-06
3.80424e-06
4.84214e-06
5.93258e-06
7.065e-06
8.23017e-06
9.41986e-06
1.06265e-05
1.18431e-05
1.30631e-05
1.42803e-05
1.54887e-05
1.66827e-05
1.78569e-05
1.90061e-05
2.01255e-05
2.12104e-05
2.22562e-05
2.32589e-05
2.42143e-05
2.51189e-05
2.5969e-05
2.67615e-05
2.74933e-05
2.81617e-05
2.87644e-05
2.9299e-05
2.97637e-05
3.01568e-05
3.04769e-05
3.07231e-05
3.08944e-05
3.09903e-05
3.10106e-05
3.09553e-05
3.08247e-05
3.06194e-05
3.03403e-05
2.99884e-05
2.95652e-05
2.90723e-05
2.85115e-05
2.78852e-05
2.71956e-05
2.64454e-05
2.56375e-05
2.47749e-05
2.38611e-05
2.28995e-05
2.18938e-05
2.08482e-05
1.97667e-05
1.86536e-05
1.75136e-05
1.63513e-05
1.51718e-05
1.39802e-05
1.2782e-05
1.15827e-05
1.03883e-05
9.20509e-06
8.03972e-06
6.89939e-06
5.79198e-06
4.72631e-06
3.71253e-06
2.76284e-06
1.89265e-06
1.12325e-06
4.88108e-07
5.42878e-08
7.01781e-08
6.3105e-07
1.45252e-06
2.4481e-06
3.57461e-06
4.80451e-06
6.11771e-06
7.49822e-06
8.93262e-06
1.04092e-05
1.19174e-05
1.34476e-05
1.49908e-05
1.65386e-05
1.80831e-05
1.96167e-05
2.11321e-05
2.26224e-05
2.40812e-05
2.55021e-05
2.68791e-05
2.82067e-05
2.94793e-05
3.0692e-05
3.184e-05
3.29188e-05
3.39244e-05
3.4853e-05
3.5701e-05
3.64654e-05
3.71434e-05
3.77326e-05
3.82308e-05
3.86365e-05
3.89481e-05
3.91647e-05
3.92855e-05
3.93104e-05
3.92394e-05
3.90728e-05
3.88114e-05
3.84562e-05
3.80087e-05
3.74708e-05
3.68443e-05
3.61319e-05
3.53362e-05
3.44604e-05
3.35076e-05
3.24817e-05
3.13865e-05
3.02262e-05
2.90055e-05
2.7729e-05
2.64018e-05
2.50292e-05
2.36167e-05
2.21701e-05
2.06955e-05
1.91993e-05
1.7688e-05
1.61684e-05
1.46479e-05
1.3134e-05
1.16348e-05
1.01586e-05
8.71477e-06
7.3133e-06
5.96542e-06
4.68398e-06
3.48436e-06
2.38599e-06
1.41554e-06
6.14947e-07
6.83844e-08
8.52551e-08
7.66694e-07
1.76504e-06
2.9755e-06
4.3458e-06
5.84262e-06
7.44159e-06
9.12329e-06
1.08714e-05
1.26715e-05
1.45108e-05
1.63774e-05
1.82603e-05
2.01492e-05
2.20342e-05
2.39061e-05
2.57561e-05
2.75755e-05
2.93565e-05
3.10912e-05
3.27724e-05
3.43931e-05
3.59467e-05
3.7427e-05
3.88282e-05
4.01449e-05
4.13721e-05
4.2505e-05
4.35396e-05
4.44719e-05
4.52987e-05
4.60169e-05
4.6624e-05
4.7118e-05
4.74971e-05
4.77602e-05
4.79064e-05
4.79354e-05
4.78473e-05
4.76425e-05
4.7322e-05
4.6887e-05
4.63395e-05
4.56815e-05
4.49156e-05
4.40447e-05
4.30724e-05
4.20021e-05
4.08382e-05
3.9585e-05
3.82475e-05
3.68306e-05
3.534e-05
3.37816e-05
3.21614e-05
3.04859e-05
2.8762e-05
2.69967e-05
2.51975e-05
2.33721e-05
2.15287e-05
1.96756e-05
1.78217e-05
1.59764e-05
1.41494e-05
1.23511e-05
1.05929e-05
8.88695e-06
7.24697e-06
5.68861e-06
4.23051e-06
2.89617e-06
1.71782e-06
7.46133e-07
8.29651e-08
1.00728e-07
9.05891e-07
2.08574e-06
3.51665e-06
5.13706e-06
6.90771e-06
8.79986e-06
1.07906e-05
1.28606e-05
1.49928e-05
1.71719e-05
1.93839e-05
2.16156e-05
2.38548e-05
2.60896e-05
2.83091e-05
3.05027e-05
3.26602e-05
3.4772e-05
3.6829e-05
3.88225e-05
4.07441e-05
4.25861e-05
4.4341e-05
4.6002e-05
4.75626e-05
4.90168e-05
5.03592e-05
5.15847e-05
5.26888e-05
5.36676e-05
5.45176e-05
5.52357e-05
5.58195e-05
5.62671e-05
5.6577e-05
5.67483e-05
5.67806e-05
5.6674e-05
5.64291e-05
5.6047e-05
5.55293e-05
5.48781e-05
5.4096e-05
5.31862e-05
5.2152e-05
5.09976e-05
4.97273e-05
4.83461e-05
4.68593e-05
4.52725e-05
4.3592e-05
4.18242e-05
3.99762e-05
3.80552e-05
3.6069e-05
3.40256e-05
3.19335e-05
2.98015e-05
2.76388e-05
2.54551e-05
2.32605e-05
2.10653e-05
1.88807e-05
1.67185e-05
1.45908e-05
1.25112e-05
1.04941e-05
8.55577e-06
6.71457e-06
4.9925e-06
3.41719e-06
2.02653e-06
8.80117e-07
9.78573e-08
1.16462e-07
1.04744e-06
2.41182e-06
4.06687e-06
5.94153e-06
7.99053e-06
1.01807e-05
1.24856e-05
1.48827e-05
1.73525e-05
1.98771e-05
2.24402e-05
2.50265e-05
2.76217e-05
3.02122e-05
3.2785e-05
3.53278e-05
3.78288e-05
4.02769e-05
4.26613e-05
4.49719e-05
4.71991e-05
4.93337e-05
5.13672e-05
5.32916e-05
5.50993e-05
5.67836e-05
5.83379e-05
5.97565e-05
6.10342e-05
6.21664e-05
6.31491e-05
6.39789e-05
6.46528e-05
6.51687e-05
6.55249e-05
6.57204e-05
6.57548e-05
6.56282e-05
6.53413e-05
6.48955e-05
6.42926e-05
6.35352e-05
6.26261e-05
6.15691e-05
6.03683e-05
5.90282e-05
5.75542e-05
5.59517e-05
5.42271e-05
5.23869e-05
5.04383e-05
4.8389e-05
4.62469e-05
4.40207e-05
4.17191e-05
3.93516e-05
3.69281e-05
3.44588e-05
3.19543e-05
2.94259e-05
2.68853e-05
2.43447e-05
2.18168e-05
1.93153e-05
1.68546e-05
1.445e-05
1.21184e-05
9.87838e-06
7.75133e-06
5.76251e-06
3.94371e-06
2.33852e-06
1.01553e-06
1.12908e-07
1.32341e-07
1.19029e-06
2.7409e-06
4.62211e-06
6.75331e-06
9.08312e-06
1.15739e-05
1.41956e-05
1.69228e-05
1.9733e-05
2.2606e-05
2.55231e-05
2.8467e-05
3.14211e-05
3.437e-05
3.72988e-05
4.01935e-05
4.30406e-05
4.58272e-05
4.85412e-05
5.11709e-05
5.37054e-05
5.61343e-05
5.84477e-05
6.06365e-05
6.26923e-05
6.46071e-05
6.63736e-05
6.79855e-05
6.94366e-05
7.07219e-05
7.18368e-05
7.27773e-05
7.35403e-05
7.41233e-05
7.45246e-05
7.47428e-05
7.47776e-05
7.46294e-05
7.42988e-05
7.37873e-05
7.30973e-05
7.22315e-05
7.11935e-05
6.99873e-05
6.86176e-05
6.70899e-05
6.54099e-05
6.35841e-05
6.16197e-05
5.95242e-05
5.73057e-05
5.4973e-05
5.25351e-05
5.00018e-05
4.73833e-05
4.46902e-05
4.19338e-05
3.91258e-05
3.62783e-05
3.34041e-05
3.05165e-05
2.76294e-05
2.47575e-05
2.1916e-05
1.91215e-05
1.63914e-05
1.37447e-05
1.12027e-05
8.78942e-06
6.53351e-06
4.47091e-06
2.65091e-06
1.15112e-06
1.2798e-07
1.48267e-07
1.33355e-06
3.07091e-06
5.1789e-06
7.56729e-06
1.01786e-05
1.29707e-05
1.591e-05
1.89678e-05
2.21191e-05
2.53411e-05
2.86128e-05
3.19146e-05
3.52281e-05
3.85356e-05
4.18207e-05
4.50673e-05
4.82602e-05
5.13852e-05
5.44283e-05
5.73766e-05
6.02177e-05
6.29398e-05
6.55321e-05
6.79842e-05
7.02865e-05
7.24303e-05
7.44075e-05
7.62107e-05
7.78334e-05
7.92697e-05
8.05147e-05
8.15638e-05
8.24138e-05
8.30618e-05
8.35059e-05
8.37447e-05
8.3778e-05
8.3606e-05
8.32297e-05
8.26508e-05
8.1872e-05
8.08964e-05
7.9728e-05
7.83714e-05
7.6832e-05
7.51157e-05
7.32292e-05
7.11798e-05
6.89754e-05
6.66246e-05
6.41364e-05
6.15206e-05
5.87875e-05
5.59481e-05
5.30136e-05
4.99962e-05
4.69083e-05
4.37631e-05
4.05742e-05
3.7356e-05
3.41234e-05
3.08919e-05
2.76779e-05
2.44987e-05
2.13725e-05
1.8319e-05
1.53595e-05
1.25176e-05
9.82013e-06
7.29903e-06
4.99437e-06
2.96109e-06
1.28575e-06
1.42945e-07
1.64152e-07
1.47644e-06
3.40008e-06
5.73423e-06
8.37909e-06
1.12711e-05
1.43636e-05
1.76193e-05
2.10066e-05
2.44977e-05
2.80673e-05
3.1692e-05
3.53501e-05
3.90211e-05
4.26855e-05
4.63246e-05
4.99209e-05
5.34574e-05
5.69181e-05
6.02878e-05
6.35518e-05
6.66965e-05
6.97088e-05
7.25767e-05
7.52886e-05
7.78342e-05
8.02035e-05
8.23878e-05
8.43788e-05
8.61695e-05
8.77533e-05
8.91248e-05
9.02792e-05
9.12128e-05
9.19226e-05
9.24064e-05
9.26631e-05
9.26921e-05
9.24941e-05
9.207e-05
9.14219e-05
9.05528e-05
8.94662e-05
8.81666e-05
8.66592e-05
8.49499e-05
8.30453e-05
8.0953e-05
7.8681e-05
7.6238e-05
7.36336e-05
7.08778e-05
6.79815e-05
6.4956e-05
6.18134e-05
5.85664e-05
5.52282e-05
5.18127e-05
4.83345e-05
4.48086e-05
4.12508e-05
3.76778e-05
3.41066e-05
3.05553e-05
2.70431e-05
2.35901e-05
2.0218e-05
1.69502e-05
1.38128e-05
1.08354e-05
8.05308e-06
5.50999e-06
3.26663e-06
1.41836e-06
1.57686e-07
1.79924e-07
1.61832e-06
3.72688e-06
6.28555e-06
9.18499e-06
1.23555e-05
1.5746e-05
1.93157e-05
2.30298e-05
2.68577e-05
3.07718e-05
3.47463e-05
3.87573e-05
4.27821e-05
4.67994e-05
5.07886e-05
5.47304e-05
5.86061e-05
6.23981e-05
6.60895e-05
6.96645e-05
7.31078e-05
7.64053e-05
7.95436e-05
8.25103e-05
8.52938e-05
8.78834e-05
9.02694e-05
9.24431e-05
9.43965e-05
9.61228e-05
9.7616e-05
9.88709e-05
9.98837e-05
0.000100651
0.000101171
0.000101442
0.000101463
0.000101236
0.000100762
0.000100043
9.9082e-05
9.78835e-05
9.64523e-05
9.47941e-05
9.29156e-05
9.0824e-05
8.85275e-05
8.6035e-05
8.33562e-05
8.05014e-05
7.74818e-05
7.43092e-05
7.0996e-05
6.75554e-05
6.40014e-05
6.03483e-05
5.66114e-05
5.28066e-05
4.89504e-05
4.506e-05
4.11536e-05
3.72498e-05
3.33686e-05
2.95306e-05
2.5758e-05
2.20743e-05
1.85051e-05
1.50788e-05
1.18277e-05
8.79009e-06
6.01395e-06
3.56526e-06
1.54798e-06
1.72094e-07
1.95523e-07
1.75863e-06
4.05008e-06
6.83077e-06
9.9819e-06
1.34278e-05
1.71128e-05
2.09927e-05
2.50295e-05
2.919e-05
3.3444e-05
3.77635e-05
4.21223e-05
4.64958e-05
5.08606e-05
5.51942e-05
5.94756e-05
6.36845e-05
6.78015e-05
7.18083e-05
7.56876e-05
7.94229e-05
8.29987e-05
8.64006e-05
8.9615e-05
9.26294e-05
9.54324e-05
9.80133e-05
0.000100363
0.000102472
0.000104335
0.000105943
0.000107293
0.000108379
0.000109199
0.00010975
0.00011003
0.000110041
0.000109782
0.000109254
0.000108462
0.000107408
0.000106096
0.000104533
0.000102725
0.000100678
9.84014e-05
9.59033e-05
9.31936e-05
9.02829e-05
8.71824e-05
8.39042e-05
8.0461e-05
7.68665e-05
7.31349e-05
6.92812e-05
6.53211e-05
6.12711e-05
5.71483e-05
5.29707e-05
4.87569e-05
4.45264e-05
4.02996e-05
3.60979e-05
3.19436e-05
2.78607e-05
2.38746e-05
2.00131e-05
1.63066e-05
1.27901e-05
9.5048e-06
6.50266e-06
3.85485e-06
1.67367e-06
1.86066e-07
2.10901e-07
1.89696e-06
4.36868e-06
7.36819e-06
1.07674e-05
1.44845e-05
1.84597e-05
2.26449e-05
2.69994e-05
3.14872e-05
3.60754e-05
4.07339e-05
4.54343e-05
5.01499e-05
5.48553e-05
5.95264e-05
6.41402e-05
6.86746e-05
7.31089e-05
7.74231e-05
8.15986e-05
8.56176e-05
8.94633e-05
9.31203e-05
9.65739e-05
9.98107e-05
0.000102818
0.000105586
0.000108103
0.000110361
0.000112351
0.000114068
0.000115505
0.000116658
0.000117523
0.000118099
0.000118385
0.000118379
0.000118084
0.0001175
0.000116632
0.000115483
0.000114058
0.000112362
0.000110404
0.000108191
0.000105732
0.000103035
0.000100112
9.69746e-05
9.3634e-05
9.01037e-05
8.63972e-05
8.25293e-05
7.85151e-05
7.4371e-05
7.01136e-05
6.57607e-05
6.13306e-05
5.68425e-05
5.23165e-05
4.77735e-05
4.32352e-05
3.87245e-05
3.42656e-05
2.98839e-05
2.56068e-05
2.14638e-05
1.74877e-05
1.37158e-05
1.01923e-05
6.97273e-06
4.13339e-06
1.79457e-06
1.99504e-07
2.26021e-07
2.03296e-06
4.68192e-06
7.89655e-06
1.15395e-05
1.55232e-05
1.97834e-05
2.42685e-05
2.89348e-05
3.37434e-05
3.86593e-05
4.36499e-05
4.86847e-05
5.37348e-05
5.8773e-05
6.37733e-05
6.87109e-05
7.35621e-05
7.83046e-05
8.2917e-05
8.73792e-05
9.16722e-05
9.5778e-05
9.96801e-05
0.000103363
0.000106812
0.000110015
0.000112959
0.000115634
0.00011803
0.000120139
0.000121955
0.00012347
0.000124682
0.000125586
0.000126181
0.000126464
0.000126437
0.000126101
0.000125458
0.00012451
0.000123264
0.000121724
0.000119897
0.00011779
0.000115412
0.000112772
0.000109881
0.00010675
0.000103391
9.98169e-05
9.60419e-05
9.20806e-05
8.79485e-05
8.36619e-05
7.9238e-05
7.46947e-05
7.00508e-05
6.53258e-05
6.05402e-05
5.57152e-05
5.0873e-05
4.60368e-05
4.12309e-05
3.64809e-05
3.18139e-05
2.72589e-05
2.28473e-05
1.8614e-05
1.45985e-05
1.08478e-05
7.42095e-06
4.39897e-06
1.90984e-06
2.12317e-07
2.40858e-07
2.16642e-06
4.98929e-06
8.41496e-06
1.2297e-05
1.65421e-05
2.10816e-05
2.58606e-05
3.08321e-05
3.59549e-05
4.11912e-05
4.65062e-05
5.18673e-05
5.72436e-05
6.26058e-05
6.79262e-05
7.31781e-05
7.83363e-05
8.33769e-05
8.8277e-05
9.30152e-05
9.75712e-05
0.000101926
0.000106062
0.000109963
0.000113613
0.000116999
0.000120108
0.00012293
0.000125453
0.000127671
0.000129575
0.00013116
0.000132421
0.000133355
0.00013396
0.000134235
0.00013418
0.000133797
0.000133089
0.000132059
0.000130713
0.000129056
0.000127096
0.000124841
0.0001223
0.000119483
0.000116402
0.000113068
0.000109494
0.000105694
0.000101683
9.74763e-05
9.30905e-05
8.85428e-05
8.38513e-05
7.9035e-05
7.41137e-05
6.9108e-05
6.40394e-05
5.89304e-05
5.38043e-05
4.86857e-05
4.36001e-05
3.85746e-05
3.36376e-05
2.88198e-05
2.41543e-05
1.96779e-05
1.54322e-05
1.14669e-05
7.84422e-06
4.64977e-06
2.01869e-06
2.24417e-07
2.55399e-07
2.2972e-06
5.2905e-06
8.92294e-06
1.30392e-05
1.75403e-05
2.23532e-05
2.74196e-05
3.26896e-05
3.81192e-05
4.36682e-05
4.92995e-05
5.49784e-05
6.06718e-05
6.63486e-05
7.19792e-05
7.75352e-05
8.29897e-05
8.83173e-05
9.34938e-05
9.84962e-05
0.000103303
0.000107895
0.000112252
0.000116358
0.000120196
0.000123753
0.000127015
0.00012997
0.000132609
0.000134923
0.000136904
0.000138547
0.000139847
0.0001408
0.000141406
0.000141663
0.000141573
0.000141137
0.000140359
0.000139242
0.000137793
0.000136017
0.000133924
0.000131521
0.000128819
0.000125829
0.000122561
0.000119029
0.000115248
0.00011123
0.000106992
0.000102551
9.7923e-05
9.31267e-05
8.81812e-05
8.31063e-05
7.79226e-05
7.26519e-05
6.73167e-05
6.19404e-05
5.65476e-05
5.11639e-05
4.5816e-05
4.05322e-05
3.53424e-05
3.02787e-05
2.53757e-05
2.06719e-05
1.62111e-05
1.20452e-05
8.23959e-06
4.88402e-06
2.12036e-06
2.35718e-07
2.6964e-07
2.42529e-06
5.58548e-06
9.42037e-06
1.37659e-05
1.85174e-05
2.35978e-05
2.89451e-05
3.45066e-05
4.02355e-05
4.60893e-05
5.20286e-05
5.80163e-05
6.40175e-05
6.99991e-05
7.59295e-05
8.17787e-05
8.75182e-05
9.3121e-05
9.85615e-05
0.000103816
0.00010886
0.000113675
0.00011824
0.000122537
0.00012655
0.000130263
0.000133663
0.000136738
0.000139479
0.000141875
0.00014392
0.000145608
0.000146934
0.000147896
0.000148493
0.000148723
0.000148588
0.000148091
0.000147236
0.000146027
0.000144471
0.000142574
0.000140346
0.000137796
0.000134935
0.000131773
0.000128324
0.000124601
0.000120618
0.000116392
0.000111937
0.000107273
0.000102415
9.73841e-05
9.21993e-05
8.68814e-05
8.1452e-05
7.59336e-05
7.03496e-05
6.47245e-05
5.90837e-05
5.34538e-05
4.78627e-05
4.23398e-05
3.69161e-05
3.1625e-05
2.65025e-05
2.15888e-05
1.69295e-05
1.25786e-05
8.60419e-06
5.10003e-06
2.2141e-06
2.46138e-07
2.83588e-07
2.55075e-06
5.87437e-06
9.9075e-06
1.44775e-05
1.9474e-05
2.48159e-05
3.04377e-05
3.62838e-05
4.23047e-05
4.84554e-05
5.46941e-05
6.09817e-05
6.72811e-05
7.35573e-05
7.97768e-05
8.5908e-05
9.19206e-05
9.77862e-05
0.000103478
0.00010897
0.000114239
0.000119262
0.00012402
0.000128493
0.000132664
0.000136518
0.000140041
0.000143221
0.000146048
0.000148511
0.000150605
0.000152324
0.000153664
0.000154621
0.000155196
0.000155388
0.000155199
0.000154632
0.000153692
0.000152385
0.000150717
0.000148695
0.000146331
0.000143633
0.000140613
0.000137283
0.000133657
0.000129749
0.000125573
0.000121147
0.000116487
0.00011161
0.000106537
0.000101286
9.58777e-05
9.03339e-05
8.46767e-05
7.89293e-05
7.31161e-05
6.72621e-05
6.13938e-05
5.55385e-05
4.9725e-05
4.39837e-05
3.83467e-05
3.28485e-05
2.75263e-05
2.24217e-05
1.75819e-05
1.30628e-05
8.93521e-06
5.29612e-06
2.29921e-06
2.55598e-07
2.97261e-07
2.67373e-06
6.15755e-06
1.03849e-05
1.51748e-05
2.04112e-05
2.60089e-05
3.18992e-05
3.80232e-05
4.43288e-05
5.07687e-05
5.72985e-05
6.38771e-05
7.04652e-05
7.70258e-05
8.35236e-05
8.99251e-05
9.61986e-05
0.000102314
0.000108243
0.000113959
0.000119437
0.000124654
0.000129588
0.000134221
0.000138535
0.000142513
0.000146142
0.000149409
0.000152304
0.000154818
0.000156945
0.000158679
0.000160016
0.000160954
0.000161493
0.000161634
0.00016138
0.000160733
0.0001597
0.000158287
0.0001565
0.00015435
0.000151847
0.000149
0.000145822
0.000142327
0.000138528
0.000134441
0.00013008
0.000125464
0.000120609
0.000115534
0.000110259
0.000104804
9.91894e-05
9.34378e-05
8.75721e-05
8.1616e-05
7.55945e-05
6.95333e-05
6.34595e-05
5.74011e-05
5.13878e-05
4.54506e-05
3.96226e-05
3.39391e-05
2.84386e-05
2.31636e-05
1.81629e-05
1.3494e-05
9.2299e-06
5.47068e-06
2.37496e-06
2.64017e-07
3.10686e-07
2.79447e-06
6.43555e-06
1.08536e-05
1.58591e-05
2.13308e-05
2.71792e-05
3.33321e-05
3.97278e-05
4.63115e-05
5.30331e-05
5.98462e-05
6.6707e-05
7.35744e-05
8.04092e-05
8.71744e-05
9.38346e-05
0.000100356
0.000106708
0.00011286
0.000118785
0.000124457
0.000129851
0.000134945
0.00013972
0.000144158
0.000148242
0.000151958
0.000155294
0.000158239
0.000160786
0.000162927
0.000164658
0.000165976
0.000166879
0.000167367
0.000167443
0.000167109
0.000166371
0.000165234
0.000163706
0.000161795
0.00015951
0.000156864
0.000153867
0.000150532
0.000146874
0.000142907
0.000138646
0.000134109
0.000129312
0.000124275
0.000119015
0.000113553
0.00010791
0.000102108
9.61677e-05
9.01141e-05
8.39709e-05
7.77635e-05
7.15182e-05
6.52625e-05
5.90252e-05
5.28362e-05
4.67273e-05
4.07322e-05
3.4887e-05
2.9231e-05
2.38078e-05
1.86672e-05
1.38682e-05
9.48556e-06
5.6221e-06
2.44066e-06
2.7132e-07
3.23897e-07
2.91329e-06
6.7091e-06
1.13147e-05
1.65323e-05
2.22351e-05
2.83296e-05
3.47402e-05
4.1402e-05
4.82576e-05
5.52541e-05
6.23428e-05
6.94777e-05
7.66153e-05
8.37145e-05
9.07361e-05
9.76432e-05
0.000104401
0.000110975
0.000117336
0.000123454
0.000129303
0.000134856
0.000140093
0.000144992
0.000149534
0.000153704
0.000157487
0.000160871
0.000163846
0.000166405
0.00016854
0.000170249
0.000171528
0.000172378
0.000172798
0.000172792
0.000172365
0.000171522
0.000170269
0.000168616
0.000166572
0.000164147
0.000161353
0.000158204
0.000154712
0.000150892
0.000146761
0.000142333
0.000137627
0.000132661
0.000127453
0.000122022
0.00011639
0.000110577
0.000104606
9.84982e-05
9.22785e-05
8.59712e-05
7.96019e-05
7.31972e-05
6.6785e-05
6.03943e-05
5.40554e-05
4.78006e-05
4.16641e-05
3.56824e-05
2.98954e-05
2.43476e-05
1.90895e-05
1.41814e-05
9.69951e-06
5.7488e-06
2.49563e-06
2.7743e-07
3.36938e-07
3.03057e-06
6.97909e-06
1.17697e-05
1.71964e-05
2.31271e-05
2.94639e-05
3.61278e-05
4.3051e-05
5.01729e-05
5.74383e-05
6.47957e-05
7.21969e-05
7.95961e-05
8.69501e-05
9.42177e-05
0.00010136
0.00010834
0.000115124
0.000121678
0.000127974
0.000133982
0.000139677
0.000145036
0.000150038
0.000154664
0.000158899
0.000162727
0.000166137
0.00016912
0.000171668
0.000173776
0.000175441
0.000176661
0.000177436
0.000177769
0.000177665
0.000177127
0.000176164
0.000174782
0.000172993
0.000170806
0.000168233
0.000165287
0.000161981
0.000158331
0.000154352
0.00015006
0.000145472
0.000140605
0.00013548
0.000130114
0.000124528
0.000118742
0.000112777
0.000106657
0.000100404
9.40414e-05
8.75944e-05
8.10887e-05
7.45509e-05
6.8009e-05
6.14922e-05
5.5031e-05
4.86578e-05
4.2407e-05
3.63155e-05
3.04237e-05
2.47763e-05
1.94246e-05
1.44298e-05
9.86914e-06
5.84922e-06
2.53919e-06
2.82271e-07
3.49858e-07
3.14676e-06
7.24655e-06
1.22204e-05
1.78541e-05
2.401e-05
3.05863e-05
3.75002e-05
4.46807e-05
5.20644e-05
5.95934e-05
6.72135e-05
7.48739e-05
8.25267e-05
9.01262e-05
9.76294e-05
0.000104995
0.000112186
0.000119164
0.000125897
0.000132352
0.000138502
0.00014432
0.000149781
0.000154865
0.000159553
0.000163829
0.000167678
0.000171091
0.000174057
0.00017657
0.000178627
0.000180224
0.000181361
0.00018204
0.000182265
0.000182041
0.000181374
0.000180274
0.000178749
0.00017681
0.000174469
0.000171739
0.000168634
0.000165169
0.00016136
0.000157222
0.000152773
0.00014803
0.000143012
0.000137738
0.000132228
0.000126501
0.000120579
0.000114483
0.000108236
0.00010186
9.53791e-05
8.88183e-05
8.22031e-05
7.556e-05
6.8917e-05
6.23029e-05
5.57485e-05
4.9286e-05
4.29498e-05
3.6777e-05
3.08079e-05
2.50875e-05
1.96676e-05
1.46097e-05
9.99189e-06
5.92184e-06
2.57069e-06
2.85772e-07
3.62714e-07
3.26237e-06
7.51265e-06
1.26687e-05
1.85081e-05
2.48878e-05
3.17016e-05
3.88631e-05
4.6298e-05
5.394e-05
6.17281e-05
6.96056e-05
7.75191e-05
8.5418e-05
9.32545e-05
0.000100983
0.000108561
0.000115949
0.000123108
0.000130003
0.000136601
0.000142874
0.000148793
0.000154335
0.000159479
0.000164204
0.000168497
0.000172342
0.00017573
0.000178653
0.000181106
0.000183084
0.000184587
0.000185616
0.000186174
0.000186267
0.000185902
0.000185086
0.00018383
0.000182144
0.000180042
0.000177535
0.000174638
0.000171367
0.000167738
0.000163767
0.000159471
0.000154868
0.000149977
0.000144817
0.000139406
0.000133765
0.000127914
0.000121874
0.000115667
0.000109315
0.000102841
9.62682e-05
8.9621e-05
8.29247e-05
7.62058e-05
6.94916e-05
6.2811e-05
5.61941e-05
4.9673e-05
4.32819e-05
3.70576e-05
3.10403e-05
2.52751e-05
1.98135e-05
1.47175e-05
1.00653e-05
5.96522e-06
2.58949e-06
2.8786e-07
3.75567e-07
3.37795e-06
7.77864e-06
1.31168e-05
1.91616e-05
2.57646e-05
3.2815e-05
4.02228e-05
4.79104e-05
5.58081e-05
6.3852e-05
7.19826e-05
8.01436e-05
8.8282e-05
9.63473e-05
0.000104292
0.000112071
0.000119643
0.000126968
0.000134009
0.000140732
0.000147108
0.000153108
0.000158707
0.000163885
0.000168623
0.000172905
0.000176719
0.000180055
0.000182906
0.000185268
0.000187139
0.00018852
0.000189413
0.000189823
0.000189759
0.000189229
0.000188241
0.000186809
0.000184944
0.000182661
0.000179975
0.000176901
0.000173456
0.000169657
0.000165522
0.000161068
0.000156315
0.000151282
0.000145988
0.000140452
0.000134695
0.000128737
0.0001226
0.000116303
0.000109871
0.000103324
9.66861e-05
8.99811e-05
8.32338e-05
7.647e-05
6.97164e-05
6.30013e-05
5.63543e-05
4.9807e-05
4.33929e-05
3.71485e-05
3.11136e-05
2.53329e-05
1.98578e-05
1.47497e-05
1.0087e-05
5.97796e-06
2.595e-06
2.88471e-07
3.8848e-07
3.49407e-06
8.04586e-06
1.35668e-05
1.98178e-05
2.66446e-05
3.3932e-05
4.1586e-05
4.95256e-05
5.76777e-05
6.59752e-05
7.43555e-05
8.27595e-05
9.11313e-05
9.94181e-05
0.00010757
0.000115539
0.000123282
0.000130758
0.000137928
0.000144757
0.000151215
0.000157273
0.000162905
0.000168092
0.000172814
0.000177057
0.000180809
0.000184062
0.00018681
0.00018905
0.000190783
0.000192011
0.000192738
0.000192971
0.000192722
0.000192
0.000190816
0.000189185
0.000187122
0.000184641
0.000181761
0.000178497
0.000174869
0.000170894
0.000166592
0.000161981
0.000157082
0.000151913
0.000146494
0.000140846
0.000134989
0.000128943
0.000122728
0.000116365
0.000109877
0.000103285
9.66111e-05
8.98788e-05
8.3112e-05
7.63358e-05
6.95761e-05
6.28602e-05
5.6217e-05
4.96773e-05
4.32737e-05
3.70421e-05
3.10215e-05
2.52559e-05
1.97962e-05
1.47033e-05
1.00549e-05
5.95886e-06
2.58668e-06
2.87545e-07
4.0152e-07
3.61133e-06
8.31566e-06
1.40211e-05
2.04801e-05
2.75324e-05
3.50582e-05
4.29596e-05
5.11517e-05
5.95579e-05
6.81079e-05
7.67356e-05
8.53789e-05
9.3979e-05
0.00010248
0.00011083
0.000118978
0.00012688
0.000134491
0.000141772
0.000148688
0.000155206
0.000161297
0.000166937
0.000172104
0.000176781
0.000180954
0.000184612
0.000187748
0.000190359
0.000192444
0.000194005
0.000195046
0.000195573
0.000195599
0.000195135
0.000194193
0.000192787
0.000190933
0.000188649
0.000185952
0.000182861
0.000179396
0.000175574
0.000171418
0.000166947
0.00016218
0.000157138
0.000151841
0.000146309
0.000140562
0.00013462
0.000128504
0.000122234
0.00011583
0.000109312
0.000102703
9.60233e-05
8.92954e-05
8.25422e-05
7.57876e-05
6.90565e-05
6.2375e-05
5.5771e-05
4.9274e-05
4.29157e-05
3.67309e-05
3.07577e-05
2.50391e-05
1.9625e-05
1.45755e-05
9.96724e-06
5.90677e-06
2.56405e-06
2.85029e-07
4.14754e-07
3.73032e-06
8.58941e-06
1.4482e-05
2.11517e-05
2.84324e-05
3.61994e-05
4.43505e-05
5.27968e-05
6.14582e-05
7.02604e-05
7.91342e-05
8.80141e-05
9.68379e-05
0.000105547
0.000114086
0.000122403
0.000130449
0.00013818
0.000145555
0.000152536
0.000159091
0.00016519
0.000170809
0.000175927
0.000180526
0.000184595
0.000188124
0.000191109
0.000193546
0.000195439
0.000196791
0.000197608
0.000197901
0.000197686
0.000196974
0.000195782
0.000194125
0.000192024
0.000189496
0.000186564
0.000183246
0.000179566
0.000175543
0.000171199
0.000166556
0.000161634
0.000156453
0.000151036
0.000145402
0.00013957
0.000133562
0.000127397
0.000121094
0.000114674
0.000108156
0.000101559
9.49056e-05
8.82153e-05
8.151e-05
7.48124e-05
6.81459e-05
6.15353e-05
5.50069e-05
4.8589e-05
4.2312e-05
3.62092e-05
3.03175e-05
2.46786e-05
1.93413e-05
1.43641e-05
9.82241e-06
5.82085e-06
2.52674e-06
2.80881e-07
4.28244e-07
3.85162e-06
8.86846e-06
1.49517e-05
2.1836e-05
2.9349e-05
3.7361e-05
4.57653e-05
5.44688e-05
6.33873e-05
7.24428e-05
8.15623e-05
9.06766e-05
9.97202e-05
0.000108631
0.000117351
0.000125826
0.000134003
0.000141838
0.000149287
0.000156311
0.000162878
0.000168957
0.000174525
0.000179561
0.000184048
0.000187977
0.00019134
0.000194133
0.000196358
0.000198019
0.000199123
0.000199676
0.000199701
0.000199208
0.000198214
0.000196739
0.000194802
0.000192426
0.000189633
0.000186445
0.000182885
0.000178977
0.000174743
0.000170206
0.000165388
0.000160313
0.000155
0.000149471
0.000143747
0.000137848
0.000131793
0.0001256
0.00011929
0.000112881
0.000106391
9.98389e-05
9.32442e-05
8.66261e-05
8.00046e-05
7.34006e-05
6.68359e-05
6.03337e-05
5.39186e-05
4.76171e-05
4.14581e-05
3.54733e-05
2.96979e-05
2.41722e-05
1.89432e-05
1.40679e-05
9.6196e-06
5.70059e-06
2.47453e-06
2.75076e-07
4.42052e-07
3.97577e-06
9.15404e-06
1.54323e-05
2.2536e-05
3.02863e-05
3.85482e-05
4.72102e-05
5.61748e-05
6.53536e-05
7.46644e-05
8.403e-05
9.33774e-05
0.000102637
0.000111744
0.000120637
0.000129257
0.000137553
0.000145473
0.000152976
0.00016002
0.000166572
0.000172602
0.000178085
0.000183004
0.000187343
0.000191092
0.000194248
0.000196809
0.000198779
0.000200166
0.000200977
0.00020123
0.000200944
0.000200135
0.000198824
0.000197034
0.000194787
0.00019211
0.000189027
0.000185563
0.000181744
0.000177595
0.000173141
0.000168407
0.000163416
0.00015819
0.000152752
0.000147124
0.000141325
0.000135375
0.000129293
0.000123098
0.000116806
0.000110437
0.000104006
9.75317e-05
9.10306e-05
8.45204e-05
7.80196e-05
7.15468e-05
6.51221e-05
5.87666e-05
5.25031e-05
4.6356e-05
4.03523e-05
3.45218e-05
2.8898e-05
2.35191e-05
1.84303e-05