/*--------------------------------*- C++ -*----------------------------------*\
  =========                 |
  \\      /  F ield         | OpenFOAM: The Open Source CFD Toolbox
   \\    /   O peration     | Website:  https://openfoam.org
    \\  /    A nd           | Version:  12
     \\/     M anipulation  |
\*---------------------------------------------------------------------------*/
FoamFile
{
    format      ascii;
    class       volScalarField;
    location    "1";
    object      nut;
}
// * * * * * * * * * * * * * * * * * * * * * * * * * * * * * * * * * * * * * //

dimensions      [0 2 -1 0 0 0 0];

internalField   nonuniform List<scalar> 
5625
(
2.30145e-14
6.95316e-13
1.47338e-12
2.4015e-12
3.44619e-12
4.58212e-12
5.79074e-12
7.05771e-12
8.37123e-12
9.72107e-12
1.10981e-11
1.24938e-11
1.39005e-11
1.53107e-11
1.67172e-11
1.81135e-11
1.94931e-11
2.08498e-11
2.21777e-11
2.34713e-11
2.4725e-11
2.59337e-11
2.70927e-11
2.81973e-11
2.92432e-11
3.02264e-11
3.11431e-11
3.19898e-11
3.27634e-11
3.3461e-11
3.40801e-11
3.46185e-11
3.50741e-11
3.54455e-11
3.57314e-11
3.59308e-11
3.6043e-11
3.60678e-11
3.60052e-11
3.58556e-11
3.56195e-11
3.52979e-11
3.48923e-11
3.4404e-11
3.38351e-11
3.31877e-11
3.24644e-11
3.16679e-11
3.08012e-11
2.98677e-11
2.88709e-11
2.78148e-11
2.67034e-11
2.5541e-11
2.43322e-11
2.30819e-11
2.1795e-11
2.04768e-11
1.91327e-11
1.77686e-11
1.63902e-11
1.50039e-11
1.36159e-11
1.22331e-11
1.08625e-11
9.51162e-12
8.18853e-12
6.90198e-12
5.66179e-12
4.4793e-12
3.36839e-12
2.34702e-12
1.43984e-12
6.79448e-13
2.24883e-14
1.55662e-13
2.27401e-11
1.21423e-10
2.83844e-10
4.77072e-10
6.8568e-10
9.04151e-10
1.13011e-09
1.36207e-09
1.59875e-09
1.83895e-09
2.0815e-09
2.32525e-09
2.56908e-09
2.81187e-09
3.05257e-09
3.29013e-09
3.52354e-09
3.75184e-09
3.97408e-09
4.18937e-09
4.39685e-09
4.59571e-09
4.78518e-09
4.96452e-09
5.13306e-09
5.29016e-09
5.43525e-09
5.56777e-09
5.68726e-09
5.79327e-09
5.88544e-09
5.96344e-09
6.027e-09
6.0759e-09
6.10998e-09
6.12914e-09
6.13332e-09
6.12253e-09
6.09683e-09
6.05632e-09
6.00119e-09
5.93165e-09
5.84796e-09
5.75047e-09
5.63953e-09
5.51557e-09
5.37907e-09
5.23053e-09
5.07053e-09
4.89967e-09
4.7186e-09
4.528e-09
4.32862e-09
4.12122e-09
3.9066e-09
3.68561e-09
3.45911e-09
3.22801e-09
2.99326e-09
2.75581e-09
2.51666e-09
2.27683e-09
2.03737e-09
1.79935e-09
1.56386e-09
1.33201e-09
1.10495e-09
8.83871e-10
6.70219e-10
4.66275e-10
2.77405e-10
1.18664e-10
2.22224e-11
1.52102e-13
3.4602e-13
5.69273e-11
3.88773e-10
1.16175e-09
2.34682e-09
3.82089e-09
5.47321e-09
7.23224e-09
9.05628e-09
1.09206e-08
1.28093e-08
1.47107e-08
1.66151e-08
1.85142e-08
2.03999e-08
2.22646e-08
2.41012e-08
2.59023e-08
2.76611e-08
2.93709e-08
3.10252e-08
3.26179e-08
3.4143e-08
3.55948e-08
3.6968e-08
3.82578e-08
3.94592e-08
4.05682e-08
4.15807e-08
4.24931e-08
4.33023e-08
4.40055e-08
4.46003e-08
4.50848e-08
4.54572e-08
4.57165e-08
4.58619e-08
4.5893e-08
4.581e-08
4.56131e-08
4.53034e-08
4.4882e-08
4.43507e-08
4.37114e-08
4.29667e-08
4.21192e-08
4.11722e-08
4.01291e-08
3.89939e-08
3.77706e-08
3.64637e-08
3.50781e-08
3.36188e-08
3.20912e-08
3.05008e-08
2.88534e-08
2.71553e-08
2.54125e-08
2.36316e-08
2.18191e-08
1.99819e-08
1.8127e-08
1.62614e-08
1.43928e-08
1.25291e-08
1.06793e-08
8.85464e-09
7.07033e-09
5.35022e-09
3.73482e-09
2.29384e-09
1.13544e-09
3.79926e-10
5.56239e-11
3.3805e-13
5.72269e-13
9.64982e-11
7.03786e-10
2.31288e-09
5.17015e-09
9.22062e-09
1.42348e-08
1.99491e-08
2.61392e-08
3.26375e-08
3.93248e-08
4.61162e-08
5.29499e-08
5.97781e-08
6.65621e-08
7.32688e-08
7.98689e-08
8.63354e-08
9.26432e-08
9.87685e-08
1.04689e-07
1.10383e-07
1.15829e-07
1.2101e-07
1.25907e-07
1.30502e-07
1.3478e-07
1.38726e-07
1.42326e-07
1.45569e-07
1.48444e-07
1.50941e-07
1.53052e-07
1.5477e-07
1.56091e-07
1.57009e-07
1.57523e-07
1.57632e-07
1.57335e-07
1.56635e-07
1.55534e-07
1.54037e-07
1.5215e-07
1.4988e-07
1.47235e-07
1.44224e-07
1.4086e-07
1.37153e-07
1.33116e-07
1.28765e-07
1.24115e-07
1.19181e-07
1.13981e-07
1.08533e-07
1.02857e-07
9.69714e-08
9.08981e-08
8.46584e-08
7.82751e-08
7.17719e-08
6.51745e-08
5.85105e-08
5.18112e-08
4.51132e-08
3.8462e-08
3.19168e-08
2.55594e-08
1.95051e-08
1.39171e-08
9.01398e-09
5.05359e-09
2.26029e-09
6.87615e-10
9.42599e-11
5.58901e-13
8.24246e-13
1.40159e-10
1.04678e-09
3.57689e-09
8.39639e-09
1.57744e-08
2.55973e-08
3.75111e-08
5.10733e-08
6.58561e-08
8.14925e-08
9.76867e-08
1.14206e-07
1.30868e-07
1.47529e-07
1.64069e-07
1.80392e-07
1.96411e-07
2.12052e-07
2.27248e-07
2.41939e-07
2.56066e-07
2.69578e-07
2.82426e-07
2.94565e-07
3.05952e-07
3.16549e-07
3.2632e-07
3.35232e-07
3.43257e-07
3.50368e-07
3.56542e-07
3.61761e-07
3.66008e-07
3.69271e-07
3.71541e-07
3.72811e-07
3.73079e-07
3.72348e-07
3.70619e-07
3.67901e-07
3.64206e-07
3.59546e-07
3.53939e-07
3.47406e-07
3.3997e-07
3.31656e-07
3.22494e-07
3.12516e-07
3.01756e-07
2.90252e-07
2.78043e-07
2.65172e-07
2.51683e-07
2.37624e-07
2.23047e-07
2.08005e-07
1.92557e-07
1.76767e-07
1.60705e-07
1.44452e-07
1.28101e-07
1.11764e-07
9.55794e-08
7.97228e-08
6.44184e-08
4.99531e-08
3.6684e-08
2.50289e-08
1.54207e-08
8.2057e-09
3.49442e-09
1.02227e-09
1.36838e-10
8.04561e-13
1.09555e-12
1.86987e-10
1.41153e-09
4.91297e-09
1.18236e-08
2.28665e-08
3.82552e-08
5.77615e-08
8.08695e-08
1.06932e-07
1.35288e-07
1.65325e-07
1.96514e-07
2.28408e-07
2.60634e-07
2.92884e-07
3.24899e-07
3.56461e-07
3.87382e-07
4.17497e-07
4.46662e-07
4.74746e-07
5.01634e-07
5.27217e-07
5.51399e-07
5.74091e-07
5.95212e-07
6.14689e-07
6.32456e-07
6.48453e-07
6.6263e-07
6.7494e-07
6.85345e-07
6.93814e-07
7.00323e-07
7.04853e-07
7.07393e-07
7.07938e-07
7.06493e-07
7.03063e-07
6.97665e-07
6.9032e-07
6.81057e-07
6.69909e-07
6.56917e-07
6.42127e-07
6.25591e-07
6.07368e-07
5.87521e-07
5.66121e-07
5.43242e-07
5.18967e-07
4.93384e-07
4.6659e-07
4.38686e-07
4.09787e-07
3.80016e-07
3.49512e-07
3.18429e-07
2.86946e-07
2.55271e-07
2.2365e-07
1.9238e-07
1.61817e-07
1.32395e-07
1.04628e-07
7.91112e-08
5.64918e-08
3.74024e-08
2.2348e-08
1.15501e-08
4.79692e-09
1.37754e-09
1.8242e-10
1.06856e-12
1.38148e-12
2.36247e-10
1.79335e-09
6.30347e-09
1.538e-08
3.02488e-08
5.15605e-08
7.93775e-08
1.13285e-07
1.52552e-07
1.96293e-07
2.43583e-07
2.93539e-07
3.45361e-07
3.98343e-07
4.51872e-07
5.05423e-07
5.58543e-07
6.10842e-07
6.6198e-07
7.11661e-07
7.59621e-07
8.05628e-07
8.49472e-07
8.90968e-07
9.29945e-07
9.66254e-07
9.99758e-07
1.03034e-06
1.05788e-06
1.0823e-06
1.10352e-06
1.12145e-06
1.13606e-06
1.14729e-06
1.15512e-06
1.15953e-06
1.1605e-06
1.15804e-06
1.15217e-06
1.14291e-06
1.1303e-06
1.11439e-06
1.09524e-06
1.07293e-06
1.04753e-06
1.01913e-06
9.87839e-07
9.53775e-07
9.17061e-07
8.77837e-07
8.36254e-07
7.92478e-07
7.46693e-07
6.99099e-07
6.4992e-07
5.99406e-07
5.47839e-07
4.95542e-07
4.42887e-07
3.90305e-07
3.38303e-07
2.8747e-07
2.38489e-07
1.9214e-07
1.49283e-07
1.10819e-07
7.7618e-08
5.03924e-08
2.95464e-08
1.50134e-08
6.14928e-09
1.7485e-09
2.30244e-10
1.34606e-12
1.67833e-12
2.8733e-10
2.18816e-09
7.73519e-09
1.9028e-08
3.78094e-08
6.52128e-08
1.0168e-07
1.47022e-07
2.00554e-07
2.61277e-07
3.2802e-07
3.99572e-07
4.74754e-07
5.52474e-07
6.31739e-07
7.11669e-07
7.91487e-07
8.7051e-07
9.48139e-07
1.02385e-06
1.09716e-06
1.16768e-06
1.23504e-06
1.2989e-06
1.35898e-06
1.41501e-06
1.46677e-06
1.51406e-06
1.55669e-06
1.5945e-06
1.62737e-06
1.65519e-06
1.67785e-06
1.6953e-06
1.70748e-06
1.71435e-06
1.7159e-06
1.71215e-06
1.70312e-06
1.68883e-06
1.66937e-06
1.6448e-06
1.61523e-06
1.58076e-06
1.54154e-06
1.4977e-06
1.44943e-06
1.39691e-06
1.34035e-06
1.27999e-06
1.21608e-06
1.14891e-06
1.0788e-06
1.00609e-06
9.3118e-07
8.54519e-07
7.76608e-07
6.98018e-07
6.19402e-07
5.41508e-07
4.65185e-07
3.91394e-07
3.21199e-07
2.55748e-07
1.96225e-07
1.43774e-07
9.93753e-08
6.36905e-08
3.68988e-08
1.8555e-08
7.53716e-09
2.13074e-09
2.7966e-10
1.6331e-12
1.98298e-12
3.39722e-10
2.59231e-09
9.19651e-09
2.27393e-08
4.54813e-08
7.90526e-08
1.24314e-07
1.81369e-07
2.49674e-07
3.28206e-07
4.15635e-07
5.10473e-07
6.11192e-07
7.16305e-07
8.24411e-07
9.34223e-07
1.04458e-06
1.15443e-06
1.26285e-06
1.36901e-06
1.47218e-06
1.57169e-06
1.66697e-06
1.7575e-06
1.84281e-06
1.92251e-06
1.99623e-06
2.06364e-06
2.12448e-06
2.1785e-06
2.22549e-06
2.26528e-06
2.29772e-06
2.32273e-06
2.3402e-06
2.35009e-06
2.35239e-06
2.3471e-06
2.33426e-06
2.31392e-06
2.28618e-06
2.25116e-06
2.209e-06
2.15987e-06
2.10398e-06
2.04156e-06
1.97286e-06
1.89819e-06
1.81785e-06
1.73223e-06
1.64172e-06
1.54677e-06
1.44788e-06
1.34561e-06
1.24059e-06
1.13352e-06
1.0252e-06
9.16507e-07
8.08457e-07
7.02171e-07
5.98895e-07
4.99992e-07
4.06912e-07
3.21149e-07
2.44159e-07
1.7724e-07
1.21388e-07
7.71244e-08
4.43306e-08
2.2143e-08
8.94745e-09
2.52023e-09
3.30103e-10
1.9263e-12
2.29281e-12
3.92977e-10
3.0026e-09
1.06769e-08
2.64892e-08
5.32139e-08
9.29762e-08
1.47068e-07
2.15917e-07
2.99171e-07
3.95851e-07
5.0453e-07
6.23507e-07
7.50944e-07
8.84981e-07
1.02381e-06
1.16573e-06
1.30914e-06
1.45261e-06
1.59482e-06
1.7346e-06
1.87087e-06
2.00269e-06
2.12922e-06
2.2497e-06
2.36345e-06
2.46987e-06
2.56845e-06
2.65871e-06
2.74024e-06
2.8127e-06
2.87578e-06
2.92924e-06
2.97286e-06
3.00651e-06
3.03005e-06
3.04341e-06
3.04658e-06
3.03955e-06
3.02237e-06
2.99513e-06
2.95796e-06
2.91102e-06
2.85453e-06
2.78872e-06
2.71389e-06
2.63036e-06
2.53851e-06
2.43877e-06
2.3316e-06
2.21752e-06
2.09714e-06
1.9711e-06
1.84014e-06
1.70507e-06
1.5668e-06
1.42635e-06
1.28485e-06
1.14355e-06
1.00387e-06
8.67334e-07
7.356e-07
6.10432e-07
4.93649e-07
3.87047e-07
2.9229e-07
2.10766e-07
1.43419e-07
9.05738e-08
5.17819e-08
2.57483e-08
1.03678e-08
2.91327e-09
3.81066e-10
2.22264e-12
2.60554e-12
4.46712e-10
3.41619e-09
1.21668e-08
3.02557e-08
6.09638e-08
1.06904e-07
1.69796e-07
2.50402e-07
3.48585e-07
4.63448e-07
5.93514e-07
7.36913e-07
8.91542e-07
1.0552e-06
1.22568e-06
1.40087e-06
1.57876e-06
1.75747e-06
1.93528e-06
2.11063e-06
2.2821e-06
2.4484e-06
2.60838e-06
2.76102e-06
2.90539e-06
3.04066e-06
3.16612e-06
3.28113e-06
3.38512e-06
3.47762e-06
3.55821e-06
3.62654e-06
3.68235e-06
3.72541e-06
3.75557e-06
3.77271e-06
3.77681e-06
3.76787e-06
3.74596e-06
3.71118e-06
3.66371e-06
3.60379e-06
3.53167e-06
3.44771e-06
3.35228e-06
3.24585e-06
3.1289e-06
3.00203e-06
2.86588e-06
2.72117e-06
2.5687e-06
2.40938e-06
2.24419e-06
2.07425e-06
1.90079e-06
1.72516e-06
1.54889e-06
1.37362e-06
1.20118e-06
1.0335e-06
8.72663e-07
7.20814e-07
5.80104e-07
4.52588e-07
3.40091e-07
2.44041e-07
1.65291e-07
1.03939e-07
5.91985e-08
2.93434e-08
1.17868e-08
3.30644e-09
4.32087e-10
2.5194e-12
2.9192e-12
5.00591e-10
3.8306e-09
1.36579e-08
3.40189e-08
6.86927e-08
1.20768e-07
1.92384e-07
2.84635e-07
3.97605e-07
5.30498e-07
6.81815e-07
8.49549e-07
1.03136e-06
1.22475e-06
1.42713e-06
1.63599e-06
1.84888e-06
2.06353e-06
2.27778e-06
2.48967e-06
2.69741e-06
2.89934e-06
3.09399e-06
3.28004e-06
3.45627e-06
3.62164e-06
3.77518e-06
3.91608e-06
4.04359e-06
4.15709e-06
4.25604e-06
4.33998e-06
4.40857e-06
4.4615e-06
4.49858e-06
4.51967e-06
4.5247e-06
4.51372e-06
4.48676e-06
4.444e-06
4.38566e-06
4.31202e-06
4.22345e-06
4.12038e-06
4.00331e-06
3.87282e-06
3.72959e-06
3.57435e-06
3.40795e-06
3.23132e-06
3.04552e-06
2.85169e-06
2.65114e-06
2.44528e-06
2.23569e-06
2.02411e-06
1.81243e-06
1.60271e-06
1.39718e-06
1.1982e-06
1.00825e-06
8.29814e-07
6.65361e-07
5.17164e-07
3.87171e-07
2.76821e-07
1.86852e-07
1.17131e-07
6.65294e-08
3.29024e-08
1.31933e-08
3.69656e-09
4.8274e-10
2.8141e-12
3.2321e-12
5.54326e-10
4.24367e-09
1.51427e-08
3.77614e-08
7.63669e-08
1.34511e-07
2.14741e-07
3.18471e-07
4.46005e-07
5.96654e-07
7.6891e-07
9.60649e-07
1.16933e-06
1.39214e-06
1.62619e-06
1.86854e-06
2.11637e-06
2.36696e-06
2.61775e-06
2.86638e-06
3.11064e-06
3.34854e-06
3.57826e-06
3.79815e-06
4.00672e-06
4.20265e-06
4.38476e-06
4.552e-06
4.70346e-06
4.83836e-06
4.95601e-06
5.05586e-06
5.13744e-06
5.20041e-06
5.24449e-06
5.26952e-06
5.27543e-06
5.26225e-06
5.23005e-06
5.17903e-06
5.10946e-06
5.0217e-06
4.91622e-06
4.79354e-06
4.65429e-06
4.49922e-06
4.32913e-06
4.14497e-06
3.94779e-06
3.73876e-06
3.51917e-06
3.29046e-06
3.05424e-06
2.81225e-06
2.56642e-06
2.31886e-06
2.07185e-06
1.82788e-06
1.58956e-06
1.35965e-06
1.14101e-06
9.36459e-07
7.48731e-07
5.80299e-07
4.3321e-07
3.08895e-07
2.07968e-07
1.30065e-07
7.37258e-08
3.64003e-08
1.45771e-08
4.08065e-09
5.32632e-10
3.10441e-12
3.54281e-12
6.07674e-10
4.65356e-09
1.66149e-08
4.14679e-08
8.39573e-08
1.48085e-07
2.36788e-07
3.51792e-07
4.93611e-07
6.61659e-07
8.54427e-07
1.06969e-06
1.3047e-06
1.55639e-06
1.82153e-06
2.09683e-06
2.37906e-06
2.66511e-06
2.95199e-06
3.23695e-06
3.51741e-06
3.79099e-06
4.05552e-06
4.30905e-06
4.54978e-06
4.77614e-06
4.98669e-06
5.18017e-06
5.35549e-06
5.51169e-06
5.64796e-06
5.76361e-06
5.85809e-06
5.93097e-06
5.98194e-06
6.01079e-06
6.01742e-06
6.00189e-06
5.96428e-06
5.90482e-06
5.82387e-06
5.72185e-06
5.5993e-06
5.45689e-06
5.29538e-06
5.11564e-06
4.91867e-06
4.70561e-06
4.47772e-06
4.23641e-06
3.98323e-06
3.71992e-06
3.44837e-06
3.17067e-06
2.88911e-06
2.60615e-06
2.32447e-06
2.04694e-06
1.77657e-06
1.5165e-06
1.26992e-06
1.03998e-06
8.29655e-07
6.41594e-07
4.77929e-07
3.4007e-07
2.28512e-07
1.4266e-07
8.07413e-08
3.98134e-08
1.59284e-08
4.45594e-09
5.81394e-10
3.38817e-12
3.85014e-12
6.60433e-10
5.05874e-09
1.80692e-08
4.51258e-08
9.14393e-08
1.61447e-07
2.58462e-07
3.84504e-07
5.40288e-07
7.25324e-07
9.381e-07
1.17629e-06
1.43696e-06
1.7168e-06
2.01225e-06
2.31968e-06
2.63548e-06
2.95613e-06
3.27828e-06
3.59876e-06
3.91461e-06
4.22309e-06
4.52171e-06
4.80818e-06
5.08041e-06
5.33656e-06
5.57496e-06
5.79413e-06
5.99278e-06
6.1698e-06
6.32423e-06
6.45526e-06
6.56225e-06
6.6447e-06
6.70224e-06
6.73463e-06
6.74176e-06
6.7237e-06
6.68054e-06
6.61258e-06
6.52021e-06
6.40395e-06
6.26445e-06
6.10247e-06
5.91892e-06
5.71482e-06
5.49136e-06
5.24986e-06
4.99181e-06
4.71883e-06
4.43277e-06
4.13563e-06
3.82961e-06
3.51713e-06
3.2008e-06
2.88347e-06
2.56818e-06
2.25817e-06
1.95682e-06
1.66763e-06
1.39412e-06
1.13972e-06
9.07644e-07
7.00691e-07
5.21068e-07
3.70167e-07
2.4836e-07
1.54841e-07
8.75312e-08
4.31193e-08
1.7238e-08
4.81978e-09
6.28679e-10
3.66337e-12
4.15314e-12
7.12438e-10
5.458e-09
1.95012e-08
4.87248e-08
9.87931e-08
1.74564e-07
2.79712e-07
4.16535e-07
5.85934e-07
7.87508e-07
1.01973e-06
1.28019e-06
1.56576e-06
1.87289e-06
2.19773e-06
2.53629e-06
2.88461e-06
3.23879e-06
3.59509e-06
3.94996e-06
4.30008e-06
4.64236e-06
4.97397e-06
5.29229e-06
5.59499e-06
5.87992e-06
6.1452e-06
6.38913e-06
6.61025e-06
6.80726e-06
6.97909e-06
7.12481e-06
7.24369e-06
7.33515e-06
7.39878e-06
7.43432e-06
7.44164e-06
7.42083e-06
7.372e-06
7.29549e-06
7.19178e-06
7.06145e-06
6.90526e-06
6.72409e-06
6.51898e-06
6.29112e-06
6.04186e-06
5.77272e-06
5.4854e-06
5.18177e-06
4.86391e-06
4.5341e-06
4.19485e-06
3.84888e-06
3.49914e-06
3.14881e-06
2.80129e-06
2.46016e-06
2.12916e-06
1.81213e-06
1.51288e-06
1.23511e-06
9.82258e-07
7.57258e-07
5.62385e-07
3.99012e-07
2.67397e-07
1.66531e-07
9.40526e-08
4.62963e-08
1.84971e-08
5.1697e-09
6.7416e-10
3.92808e-12
4.4511e-12
7.63569e-10
5.8504e-09
2.09079e-08
5.22572e-08
1.06004e-07
1.87412e-07
3.005e-07
4.4783e-07
6.30474e-07
8.48111e-07
1.0992e-06
1.38122e-06
1.69087e-06
2.02437e-06
2.37756e-06
2.74614e-06
3.12579e-06
3.51224e-06
3.90139e-06
4.28932e-06
4.67235e-06
5.04705e-06
5.41027e-06
5.7591e-06
6.09091e-06
6.40332e-06
6.69422e-06
6.9617e-06
7.20413e-06
7.42006e-06
7.60828e-06
7.76777e-06
7.8977e-06
7.99744e-06
8.06654e-06
8.1047e-06
8.11182e-06
8.08797e-06
8.03332e-06
7.94825e-06
7.83331e-06
7.68917e-06
7.51669e-06
7.31686e-06
7.09086e-06
6.84004e-06
6.56592e-06
6.2702e-06
5.95478e-06
5.62178e-06
5.2735e-06
4.9125e-06
4.54156e-06
4.16369e-06
3.78215e-06
3.40046e-06
3.02233e-06
2.65168e-06
2.29258e-06
1.94915e-06
1.62552e-06
1.32562e-06
1.05308e-06
8.10977e-07
6.01645e-07
4.26437e-07
2.85509e-07
1.77661e-07
1.00264e-07
4.93237e-08
1.96973e-08
5.50331e-09
7.17525e-10
4.18048e-12
4.74351e-12
8.1374e-10
6.2353e-09
2.2287e-08
5.57177e-08
1.13061e-07
1.99974e-07
3.20801e-07
4.78354e-07
6.73864e-07
9.07073e-07
1.17642e-06
1.47927e-06
1.81216e-06
2.17104e-06
2.5515e-06
2.94891e-06
3.3586e-06
3.77596e-06
4.19652e-06
4.61601e-06
5.03042e-06
5.43598e-06
5.82923e-06
6.20699e-06
6.56636e-06
6.90471e-06
7.21973e-06
7.50932e-06
7.77167e-06
8.00521e-06
8.2086e-06
8.38073e-06
8.5207e-06
8.62782e-06
8.70161e-06
8.74177e-06
8.74819e-06
8.72097e-06
8.66031e-06
8.56666e-06
8.44063e-06
8.28299e-06
8.09468e-06
7.87683e-06
7.63074e-06
7.35792e-06
7.06004e-06
6.73899e-06
6.39686e-06
6.03599e-06
5.65891e-06
5.26841e-06
4.86755e-06
4.4596e-06
4.04813e-06
3.63693e-06
3.23002e-06
2.83164e-06
2.44614e-06
2.07794e-06
1.73142e-06
1.41074e-06
1.11971e-06
8.61543e-07
6.3862e-07
4.52281e-07
3.02585e-07
1.88159e-07
1.06126e-07
5.21816e-08
2.08305e-08
5.81833e-09
7.58476e-10
4.41884e-12
5.0301e-12
8.62904e-10
6.61235e-09
2.36372e-08
5.91034e-08
1.1996e-07
2.12241e-07
3.40605e-07
5.08095e-07
7.16086e-07
9.64373e-07
1.25136e-06
1.5743e-06
1.92955e-06
2.31284e-06
2.71945e-06
3.14445e-06
3.58283e-06
4.02965e-06
4.48009e-06
4.92954e-06
5.37366e-06
5.80838e-06
6.22994e-06
6.63487e-06
7.02005e-06
7.38262e-06
7.72006e-06
8.03011e-06
8.31081e-06
8.56045e-06
8.77761e-06
8.96107e-06
9.1099e-06
9.22336e-06
9.30094e-06
9.34234e-06
9.34748e-06
9.31646e-06
9.24956e-06
9.14728e-06
9.0103e-06
8.83947e-06
8.63586e-06
8.40069e-06
8.13541e-06
7.84164e-06
7.52124e-06
7.17626e-06
6.80897e-06
6.42191e-06
6.01781e-06
5.59971e-06
5.17089e-06
4.73488e-06
4.2955e-06
3.85683e-06
3.42315e-06
2.99899e-06
2.58896e-06
2.19774e-06
1.82996e-06
1.48998e-06
1.18176e-06
9.08653e-07
6.73085e-07
4.76381e-07
3.18517e-07
1.97957e-07
1.11599e-07
5.48504e-08
2.1889e-08
6.11259e-09
7.96726e-10
4.64147e-12
5.31081e-12
9.11052e-10
6.98148e-09
2.49584e-08
6.24141e-08
1.26701e-07
2.24214e-07
3.59912e-07
5.37056e-07
7.57148e-07
1.02002e-06
1.32404e-06
1.66634e-06
2.04309e-06
2.44977e-06
2.88139e-06
3.33272e-06
3.79842e-06
4.27321e-06
4.75193e-06
5.22966e-06
5.70174e-06
6.16379e-06
6.61179e-06
7.04202e-06
7.45111e-06
7.83602e-06
8.19402e-06
8.52271e-06
8.82e-06
9.08407e-06
9.31341e-06
9.50675e-06
9.66309e-06
9.78168e-06
9.86201e-06
9.90379e-06
9.90695e-06
9.87164e-06
9.7982e-06
9.6872e-06
9.53937e-06
9.35569e-06
9.1373e-06
8.88556e-06
8.60203e-06
8.28847e-06
7.94688e-06
7.57948e-06
7.18871e-06
6.77726e-06
6.3481e-06
5.90444e-06
5.44977e-06
4.98788e-06
4.5228e-06
4.05885e-06
3.60058e-06
3.15273e-06
2.72018e-06
2.30784e-06
1.92054e-06
1.56283e-06
1.23885e-06
9.52008e-07
7.04816e-07
4.9858e-07
3.33197e-07
2.06989e-07
1.16645e-07
5.73114e-08
2.2865e-08
6.38393e-09
8.31996e-10
4.84674e-12
5.58576e-12
9.58206e-10
7.34288e-09
2.62513e-08
6.56516e-08
1.33287e-07
2.35902e-07
3.78739e-07
5.6526e-07
7.97085e-07
1.07407e-06
1.39453e-06
1.75547e-06
2.15286e-06
2.58193e-06
3.03744e-06
3.51382e-06
4.00544e-06
4.50667e-06
5.01204e-06
5.5163e-06
6.0145e-06
6.50199e-06
6.97447e-06
7.42799e-06
7.85896e-06
8.26417e-06
8.64072e-06
8.98609e-06
9.29805e-06
9.57471e-06
9.81448e-06
1.00161e-05
1.01784e-05
1.03008e-05
1.03827e-05
1.04239e-05
1.04243e-05
1.03841e-05
1.03037e-05
1.01838e-05
1.00252e-05
9.829e-06
9.59638e-06
9.32882e-06
9.02803e-06
8.69588e-06
8.33452e-06
7.94629e-06
7.5338e-06
7.09991e-06
6.64775e-06
6.18071e-06
5.70248e-06
5.21702e-06
4.72859e-06
4.24172e-06
3.76116e-06
3.29187e-06
2.83895e-06
2.40751e-06
2.00256e-06
1.62883e-06
1.29057e-06
9.91309e-07
7.33591e-07
5.18718e-07
3.46519e-07
2.15187e-07
1.21226e-07
5.9546e-08
2.37513e-08
6.63029e-09
8.64014e-10
5.03307e-12
5.8553e-12
1.00442e-09
7.697e-09
2.75175e-08
6.88203e-08
1.39727e-07
2.47321e-07
3.97112e-07
5.92751e-07
8.35957e-07
1.12661e-06
1.46294e-06
1.84181e-06
2.259e-06
2.7095e-06
3.18777e-06
3.68795e-06
4.20407e-06
4.73019e-06
5.26054e-06
5.78955e-06
6.31197e-06
6.82291e-06
7.31781e-06
7.7925e-06
8.24322e-06
8.66657e-06
9.05952e-06
9.41943e-06
9.74399e-06
1.00312e-05
1.02796e-05
1.04876e-05
1.06543e-05
1.0779e-05
1.08612e-05
1.09006e-05
1.08973e-05
1.08515e-05
1.07638e-05
1.06348e-05
1.04655e-05
1.02569e-05
1.00106e-05
9.72801e-06
9.41096e-06
9.06147e-06
8.68179e-06
8.27442e-06
7.84208e-06
7.38779e-06
6.91481e-06
6.42669e-06
5.92729e-06
5.42074e-06
4.91145e-06
4.40414e-06
3.90375e-06
3.41542e-06
2.94441e-06
2.49602e-06
2.07541e-06
1.68746e-06
1.33654e-06
1.02625e-06
7.59187e-07
5.36638e-07
3.58377e-07
2.22486e-07
1.25305e-07
6.15357e-08
2.45404e-08
6.8496e-09
8.92514e-10
5.1989e-12
6.11993e-12
1.0498e-09
8.04452e-09
2.87595e-08
7.19266e-08
1.46036e-07
2.58495e-07
4.1507e-07
6.19588e-07
8.73851e-07
1.17774e-06
1.52939e-06
1.92554e-06
2.36173e-06
2.83272e-06
3.33265e-06
3.85537e-06
4.39459e-06
4.94406e-06
5.49768e-06
6.0496e-06
6.59431e-06
7.12663e-06
7.6418e-06
8.13546e-06
8.60365e-06
9.04284e-06
9.4499e-06
9.82207e-06
1.0157e-05
1.04527e-05
1.07075e-05
1.092e-05
1.10894e-05
1.12147e-05
1.12956e-05
1.13321e-05
1.1324e-05
1.12719e-05
1.11762e-05
1.10378e-05
1.08577e-05
1.06371e-05
1.03776e-05
1.00807e-05
9.74843e-06
9.38287e-06
8.9864e-06
8.56162e-06
8.11139e-06
7.63882e-06
7.14731e-06
6.64055e-06
6.12251e-06
5.59745e-06
5.06995e-06
4.54484e-06
4.02721e-06
3.52235e-06
3.03568e-06
2.57262e-06
2.13848e-06
1.73824e-06
1.37636e-06
1.05654e-06
7.81377e-07
5.52179e-07
3.68664e-07
2.2882e-07
1.28845e-07
6.32624e-08
2.52251e-08
7.03987e-09
9.17233e-10
5.3427e-12
6.38034e-12
1.09444e-09
8.38636e-09
2.99807e-08
7.49787e-08
1.5223e-07
2.69456e-07
4.32666e-07
6.45847e-07
9.10873e-07
1.2276e-06
1.59409e-06
2.00688e-06
2.46132e-06
2.95187e-06
3.4724e-06
4.01643e-06
4.57736e-06
5.14861e-06
5.72378e-06
6.29675e-06
6.86173e-06
7.41331e-06
7.94651e-06
8.45681e-06
8.94009e-06
9.3927e-06
9.81142e-06
1.01934e-05
1.05364e-05
1.08382e-05
1.10972e-05
1.13121e-05
1.14821e-05
1.16063e-05
1.16844e-05
1.17164e-05
1.17025e-05
1.16431e-05
1.15388e-05
1.13907e-05
1.11997e-05
1.09672e-05
1.06949e-05
1.03845e-05
1.0038e-05
9.65773e-06
9.24602e-06
8.80564e-06
8.33953e-06
7.85092e-06
7.34328e-06
6.82042e-06
6.28638e-06
5.74556e-06
5.20261e-06
4.66247e-06
4.13036e-06
3.61165e-06
3.11188e-06
2.63657e-06
2.19113e-06
1.78064e-06
1.40963e-06
1.08185e-06
7.99934e-07
5.65181e-07
3.77274e-07
2.34122e-07
1.31809e-07
6.47081e-08
2.57982e-08
7.19909e-09
9.37911e-10
5.46297e-12
6.63738e-12
1.1385e-09
8.72363e-09
3.1185e-08
7.79871e-08
1.58331e-07
2.80241e-07
4.49959e-07
6.7162e-07
9.47152e-07
1.27638e-06
1.65725e-06
2.08611e-06
2.55808e-06
3.06732e-06
3.60741e-06
4.17154e-06
4.75279e-06
5.34425e-06
5.93924e-06
6.53135e-06
7.11453e-06
7.68315e-06
8.23207e-06
8.75656e-06
9.25242e-06
9.71589e-06
1.01437e-05
1.0533e-05
1.08813e-05
1.11867e-05
1.14476e-05
1.16627e-05
1.18311e-05
1.19522e-05
1.20257e-05
1.20518e-05
1.20308e-05
1.1963e-05
1.18494e-05
1.1691e-05
1.1489e-05
1.12448e-05
1.09602e-05
1.0637e-05
1.02774e-05
9.88363e-06
9.4583e-06
9.00418e-06
8.52431e-06
8.02196e-06
7.50071e-06
6.9644e-06
6.41716e-06
5.86343e-06
5.30795e-06
4.75572e-06
4.212e-06
3.68227e-06
3.1721e-06
2.6871e-06
2.23273e-06
1.81415e-06
1.43594e-06
1.10188e-06
8.14628e-07
5.75484e-07
3.841e-07
2.38327e-07
1.3416e-07
6.58548e-08
2.62527e-08
7.3253e-09
9.54295e-10
5.55821e-12
6.89201e-12
1.18214e-09
9.05765e-09
3.23773e-08
8.09637e-08
1.64363e-07
2.90894e-07
4.67022e-07
6.97013e-07
9.82837e-07
1.32427e-06
1.71911e-06
2.16352e-06
2.65234e-06
3.17946e-06
3.7381e-06
4.32115e-06
4.92133e-06
5.53144e-06
6.14448e-06
6.75376e-06
7.35301e-06
7.9364e-06
8.49858e-06
9.03473e-06
9.54051e-06
1.00121e-05
1.04462e-05
1.084e-05
1.11911e-05
1.14974e-05
1.17576e-05
1.19703e-05
1.21349e-05
1.22508e-05
1.23178e-05
1.23364e-05
1.23067e-05
1.22295e-05
1.21057e-05
1.19365e-05
1.17232e-05
1.14674e-05
1.11709e-05
1.08357e-05
1.0464e-05
1.00581e-05
9.62085e-06
9.15493e-06
8.66347e-06
8.14981e-06
7.61755e-06
7.07057e-06
6.51304e-06
5.94942e-06
5.38446e-06
4.82321e-06
4.27093e-06
3.73313e-06
3.21542e-06
2.72342e-06
2.26264e-06
1.83826e-06
1.45488e-06
1.11631e-06
8.25229e-07
5.82926e-07
3.89036e-07
2.41371e-07
1.35862e-07
6.66851e-08
2.65817e-08
7.41659e-09
9.66137e-10
5.62699e-12
7.14534e-12
1.22556e-09
9.38987e-09
3.35628e-08
8.39219e-08
1.70353e-07
3.01464e-07
4.83932e-07
7.22143e-07
1.01809e-06
1.37147e-06
1.77994e-06
2.23943e-06
2.7445e-06
3.2887e-06
3.86493e-06
4.46573e-06
5.08347e-06
5.71063e-06
6.33992e-06
6.96437e-06
7.57748e-06
8.17324e-06
8.74614e-06
9.29125e-06
9.80418e-06
1.02811e-05
1.07186e-05
1.11139e-05
1.14648e-05
1.17692e-05
1.20259e-05
1.22337e-05
1.2392e-05
1.25002e-05
1.25588e-05
1.2568e-05
1.25282e-05
1.24403e-05
1.23053e-05
1.21247e-05
1.18999e-05
1.16325e-05
1.13245e-05
1.0978e-05
1.05953e-05
1.01788e-05
9.73126e-06
9.25554e-06
8.75477e-06
8.2323e-06
7.69176e-06
7.13702e-06
6.57224e-06
6.00187e-06
5.43065e-06
4.86359e-06
4.30594e-06
3.76319e-06
3.24093e-06
2.74477e-06
2.28022e-06
1.85243e-06
1.46604e-06
1.12484e-06
8.31512e-07
5.8735e-07
3.91978e-07
2.43189e-07
1.3688e-07
6.71819e-08
2.67784e-08
7.4711e-09
9.73197e-10
5.66792e-12
7.39856e-12
1.26896e-09
9.72189e-09
3.47472e-08
8.68763e-08
1.76332e-07
3.12006e-07
5.00777e-07
7.47136e-07
1.05308e-06
1.41823e-06
1.84004e-06
2.31419e-06
2.83493e-06
3.39549e-06
3.98837e-06
4.60576e-06
5.23969e-06
5.88229e-06
6.52597e-06
7.16351e-06
7.78819e-06
8.39382e-06
8.97477e-06
9.52602e-06
1.00431e-05
1.05222e-05
1.09601e-05
1.13539e-05
1.17014e-05
1.2001e-05
1.22512e-05
1.24512e-05
1.26005e-05
1.26988e-05
1.27467e-05
1.27445e-05
1.26929e-05
1.2593e-05
1.24459e-05
1.22532e-05
1.20165e-05
1.17376e-05
1.14185e-05
1.10615e-05
1.06689e-05
1.02432e-05
9.78713e-06
9.30369e-06
8.79596e-06
8.2673e-06
7.72132e-06
7.16185e-06
6.593e-06
6.01917e-06
5.44504e-06
4.87553e-06
4.31586e-06
3.77142e-06
3.24775e-06
2.7504e-06
2.28484e-06
1.85618e-06
1.46903e-06
1.12716e-06
8.33256e-07
5.88602e-07
3.92826e-07
2.4372e-07
1.3718e-07
6.73288e-08
2.68365e-08
7.48709e-09
9.75249e-10
5.67969e-12
7.65292e-12
1.31255e-09
1.00554e-08
3.59367e-08
8.98422e-08
1.82331e-07
3.22574e-07
5.17645e-07
7.72127e-07
1.08801e-06
1.46477e-06
1.89969e-06
2.38815e-06
2.92406e-06
3.50026e-06
4.10888e-06
4.74172e-06
5.39043e-06
6.04682e-06
6.70298e-06
7.35146e-06
7.98531e-06
8.59819e-06
9.18438e-06
9.73878e-06
1.0257e-05
1.07351e-05
1.11699e-05
1.15589e-05
1.18999e-05
1.21913e-05
1.24319e-05
1.26212e-05
1.27587e-05
1.28445e-05
1.28794e-05
1.28638e-05
1.27987e-05
1.26852e-05
1.2525e-05
1.23195e-05
1.20705e-05
1.17801e-05
1.14504e-05
1.10836e-05
1.06821e-05
1.02487e-05
9.78601e-06
9.29702e-06
8.78482e-06
8.25273e-06
7.70429e-06
7.14327e-06
6.57368e-06
5.99981e-06
5.42625e-06
4.85781e-06
4.29958e-06
3.75685e-06
3.23505e-06
2.73961e-06
2.27593e-06
1.84904e-06
1.46348e-06
1.123e-06
8.30263e-07
5.86545e-07
3.91488e-07
2.42909e-07
1.36732e-07
6.71114e-08
2.67502e-08
7.46301e-09
9.72094e-10
5.66114e-12
7.90971e-12
1.35657e-09
1.03921e-08
3.71374e-08
9.28358e-08
1.88384e-07
3.33228e-07
5.3463e-07
7.97252e-07
1.12305e-06
1.51136e-06
1.9592e-06
2.46166e-06
3.01226e-06
3.60343e-06
4.22689e-06
4.87402e-06
5.5361e-06
6.20458e-06
6.87124e-06
7.52839e-06
8.1689e-06
8.78627e-06
9.37472e-06
9.92912e-06
1.04451e-05
1.09188e-05
1.13473e-05
1.17279e-05
1.20588e-05
1.23387e-05
1.25665e-05
1.27419e-05
1.28645e-05
1.29353e-05
1.29546e-05
1.29235e-05
1.2843e-05
1.27147e-05
1.25401e-05
1.2321e-05
1.20594e-05
1.17575e-05
1.14175e-05
1.10418e-05
1.06329e-05
1.01933e-05
9.726e-06
9.23374e-06
8.71964e-06
8.18694e-06
7.63909e-06
7.07974e-06
6.5128e-06
5.94243e-06
5.37304e-06
4.80929e-06
4.25611e-06
3.71861e-06
3.20206e-06
2.71176e-06
2.25295e-06
1.83056e-06
1.44905e-06
1.1121e-06
8.22341e-07
5.81045e-07
3.87879e-07
2.40703e-07
1.35507e-07
6.65159e-08
2.65144e-08
7.3974e-09
9.63548e-10
5.61122e-12
8.17023e-12
1.40122e-09
1.07337e-08
3.83559e-08
9.5873e-08
1.94522e-07
3.44026e-07
5.51825e-07
8.22648e-07
1.15838e-06
1.55821e-06
2.01886e-06
2.53505e-06
3.0999e-06
3.7054e-06
4.3428e-06
5.00304e-06
5.67701e-06
6.3558e-06
7.03089e-06
7.69434e-06
8.33884e-06
8.95781e-06
9.54537e-06
1.00965e-05
1.06067e-05
1.10725e-05
1.14909e-05
1.18595e-05
1.21768e-05
1.24415e-05
1.26531e-05
1.28111e-05
1.29161e-05
1.29689e-05
1.29703e-05
1.29214e-05
1.28237e-05
1.26789e-05
1.24887e-05
1.22554e-05
1.1981e-05
1.16678e-05
1.13181e-05
1.09344e-05
1.05192e-05
1.00752e-05
9.60524e-06
9.11205e-06
8.59866e-06
8.06825e-06
7.52414e-06
6.96985e-06
6.40911e-06
5.84589e-06
5.28438e-06
4.72907e-06
4.18463e-06
3.65599e-06
3.14818e-06
2.66632e-06
2.21547e-06
1.80041e-06
1.42547e-06
1.09425e-06
8.09337e-07
5.71996e-07
3.81929e-07
2.37062e-07
1.33482e-07
6.55317e-08
2.61248e-08
7.28916e-09
9.4947e-10
5.52912e-12
8.43574e-12
1.44674e-09
1.1082e-08
3.95982e-08
9.89696e-08
2.00779e-07
3.55026e-07
5.69322e-07
8.48445e-07
1.1942e-06
1.60556e-06
2.07893e-06
2.60862e-06
3.18731e-06
3.80648e-06
4.4569e-06
5.12903e-06
5.81336e-06
6.50059e-06
7.18192e-06
7.84916e-06
8.49486e-06
9.11233e-06
9.69571e-06
1.02399e-05
1.07408e-05
1.11949e-05
1.15994e-05
1.19522e-05
1.2252e-05
1.24979e-05
1.26897e-05
1.28269e-05
1.29113e-05
1.29433e-05
1.29241e-05
1.28552e-05
1.27384e-05
1.25757e-05
1.23691e-05
1.21209e-05
1.18334e-05
1.1509e-05
1.11502e-05
1.07595e-05
1.03395e-05
9.8928e-06
9.42221e-06
8.93052e-06
8.42062e-06
7.89554e-06
7.35846e-06
6.81269e-06
6.26177e-06
5.70941e-06
5.1596e-06
4.61652e-06
4.08461e-06
3.5685e-06
3.073e-06
2.60295e-06
2.1632e-06
1.75834e-06
1.39255e-06
1.06931e-06
7.9115e-07
5.59329e-07
3.73592e-07
2.31958e-07
1.30643e-07
6.41519e-08
2.5579e-08
7.13762e-09
9.29775e-10
5.41437e-12
8.70742e-12
1.49333e-09
1.14385e-08
4.08702e-08
1.02141e-07
2.07184e-07
3.6628e-07
5.87205e-07
8.74767e-07
1.23066e-06
1.6536e-06
2.13964e-06
2.68264e-06
3.27474e-06
3.90692e-06
4.56939e-06
5.25213e-06
5.94519e-06
6.63889e-06
7.32413e-06
7.9925e-06
8.63642e-06
9.24914e-06
9.82484e-06
1.03586e-05
1.08463e-05
1.12846e-05
1.16712e-05
1.20042e-05
1.22827e-05
1.2506e-05
1.2674e-05
1.27876e-05
1.28481e-05
1.28563e-05
1.2814e-05
1.27231e-05
1.25855e-05
1.24035e-05
1.21794e-05
1.19158e-05
1.1615e-05
1.12798e-05
1.09125e-05
1.05159e-05
1.00925e-05
9.64505e-06
9.17614e-06
8.68851e-06
8.18495e-06
7.66833e-06
7.1416e-06
6.60788e-06
6.07044e-06
5.53273e-06
4.99843e-06
4.47142e-06
3.95583e-06
3.45598e-06
2.97635e-06
2.52152e-06
2.09602e-06
1.70427e-06
1.35021e-06
1.03722e-06
7.67734e-07
5.43013e-07
3.6285e-07
2.2538e-07