/*--------------------------------*- C++ -*----------------------------------*\
  =========                 |
  \\      /  F ield         | OpenFOAM: The Open Source CFD Toolbox
   \\    /   O peration     | Website:  https://openfoam.org
    \\  /    A nd           | Version:  12
     \\/     M anipulation  |
\*---------------------------------------------------------------------------*/
FoamFile
{
    format      ascii;
    class       volVectorField;
    location    "1";
    object      U;
}
// * * * * * * * * * * * * * * * * * * * * * * * * * * * * * * * * * * * * * //

dimensions      [0 1 -1 0 0 0 0];

internalField   nonuniform List<vector> 
5625
(
(-1.23039e-07 5.02723e-07 0)
(-4.25307e-07 8.06281e-07 0)
(-7.02765e-07 8.65494e-07 0)
(-3.69471e-07 6.57499e-07 0)
(5.99286e-07 2.73594e-07 0)
(2.36002e-06 -9.7751e-08 0)
(4.90806e-06 -4.42139e-07 0)
(8.16983e-06 -7.34354e-07 0)
(1.20874e-05 -9.83832e-07 0)
(1.65624e-05 -1.18545e-06 0)
(2.15255e-05 -1.35034e-06 0)
(2.68842e-05 -1.47773e-06 0)
(3.25708e-05 -1.57634e-06 0)
(3.85042e-05 -1.64643e-06 0)
(4.46233e-05 -1.69436e-06 0)
(5.08588e-05 -1.7204e-06 0)
(5.71575e-05 -1.72921e-06 0)
(6.34611e-05 -1.72119e-06 0)
(6.97239e-05 -1.69976e-06 0)
(7.58975e-05 -1.66527e-06 0)
(8.19432e-05 -1.62026e-06 0)
(8.78209e-05 -1.56515e-06 0)
(9.34985e-05 -1.50181e-06 0)
(9.89429e-05 -1.43061e-06 0)
(0.000104128 -1.35296e-06 0)
(0.000109026 -1.26926e-06 0)
(0.000113616 -1.18054e-06 0)
(0.000117877 -1.08718e-06 0)
(0.000121791 -9.89903e-07 0)
(0.00012534 -8.8916e-07 0)
(0.000128512 -7.85433e-07 0)
(0.000131293 -6.79172e-07 0)
(0.000133672 -5.70679e-07 0)
(0.000135641 -4.60445e-07 0)
(0.000137191 -3.48637e-07 0)
(0.000138317 -2.35765e-07 0)
(0.000139013 -1.21904e-07 0)
(0.000139275 -7.61023e-09 0)
(0.000139104 1.07077e-07 0)
(0.000138496 2.21559e-07 0)
(0.000137455 3.35814e-07 0)
(0.000135982 4.49143e-07 0)
(0.000134081 5.61516e-07 0)
(0.00013176 6.72148e-07 0)
(0.000129025 7.80992e-07 0)
(0.000125886 8.87156e-07 0)
(0.000122355 9.90556e-07 0)
(0.000118447 1.09019e-06 0)
(0.000114177 1.18592e-06 0)
(0.000109564 1.27661e-06 0)
(0.000104629 1.36204e-06 0)
(9.93973e-05 1.44089e-06 0)
(9.3895e-05 1.51283e-06 0)
(8.81523e-05 1.57635e-06 0)
(8.22029e-05 1.63094e-06 0)
(7.60834e-05 1.67488e-06 0)
(6.98345e-05 1.70748e-06 0)
(6.35005e-05 1.72676e-06 0)
(5.71295e-05 1.73182e-06 0)
(5.07738e-05 1.72036e-06 0)
(4.44897e-05 1.69123e-06 0)
(3.8338e-05 1.64179e-06 0)
(3.2383e-05 1.57049e-06 0)
(2.66936e-05 1.4743e-06 0)
(2.13415e-05 1.3514e-06 0)
(1.64023e-05 1.19857e-06 0)
(1.19518e-05 1.01421e-06 0)
(8.06729e-06 7.96018e-07 0)
(4.81927e-06 5.44624e-07 0)
(2.2722e-06 2.6285e-07 0)
(4.69163e-07 -3.95601e-08 0)
(-5.72088e-07 -3.42694e-07 0)
(-9.04907e-07 -6.06164e-07 0)
(-6.98771e-07 -7.30393e-07 0)
(-2.23217e-07 -5.02823e-07 0)
(1.09235e-08 7.51685e-07 0)
(6.57173e-07 3.66241e-07 0)
(2.3316e-06 -9.59701e-07 0)
(5.45088e-06 -3.18502e-06 0)
(1.00506e-05 -5.95717e-06 0)
(1.62671e-05 -8.8324e-06 0)
(2.40835e-05 -1.16177e-05 0)
(3.34141e-05 -1.41735e-05 0)
(4.41444e-05 -1.64633e-05 0)
(5.6121e-05 -1.84485e-05 0)
(6.91915e-05 -2.01377e-05 0)
(8.31855e-05 -2.15272e-05 0)
(9.79443e-05 -2.26375e-05 0)
(0.000113302 -2.34772e-05 0)
(0.000129107 -2.40685e-05 0)
(0.000145209 -2.44237e-05 0)
(0.00016147 -2.45638e-05 0)
(0.000177755 -2.45023e-05 0)
(0.000193946 -2.42576e-05 0)
(0.000209924 -2.38429e-05 0)
(0.000225587 -2.32742e-05 0)
(0.000240835 -2.25637e-05 0)
(0.00025558 -2.17252e-05 0)
(0.000269739 -2.07696e-05 0)
(0.000283238 -1.97087e-05 0)
(0.000296007 -1.85522e-05 0)
(0.000307986 -1.73101e-05 0)
(0.000319118 -1.5991e-05 0)
(0.000329354 -1.46034e-05 0)
(0.000338649 -1.3155e-05 0)
(0.000346963 -1.1653e-05 0)
(0.00035426 -1.01044e-05 0)
(0.000360512 -8.51553e-06 0)
(0.000365692 -6.89287e-06 0)
(0.000369778 -5.24215e-06 0)
(0.000372752 -3.56955e-06 0)
(0.000374601 -1.88047e-06 0)
(0.000375316 -1.81111e-07 0)
(0.000374891 1.52314e-06 0)
(0.000373325 3.22588e-06 0)
(0.000370621 4.92144e-06 0)
(0.000366786 6.60295e-06 0)
(0.000361833 8.26426e-06 0)
(0.000355777 9.89779e-06 0)
(0.00034864 1.14967e-05 0)
(0.000340449 1.30526e-05 0)
(0.000331237 1.45578e-05 0)
(0.000321041 1.60028e-05 0)
(0.000309905 1.73789e-05 0)
(0.000297881 1.86756e-05 0)
(0.000285026 1.98831e-05 0)
(0.000271403 2.09894e-05 0)
(0.000257086 2.19837e-05 0)
(0.000242153 2.28527e-05 0)
(0.000226693 2.35843e-05 0)
(0.0002108 2.41641e-05 0)
(0.000194581 2.45788e-05 0)
(0.000178146 2.48128e-05 0)
(0.000161619 2.48521e-05 0)
(0.000145128 2.46805e-05 0)
(0.000128813 2.42836e-05 0)
(0.00011282 2.36454e-05 0)
(9.73013e-05 2.27526e-05 0)
(8.24174e-05 2.15912e-05 0)
(6.83306e-05 2.0152e-05 0)
(5.52065e-05 1.84278e-05 0)
(4.32069e-05 1.64205e-05 0)
(3.24884e-05 1.41408e-05 0)
(2.31911e-05 1.16178e-05 0)
(1.54329e-05 8.90654e-06 0)
(9.29235e-06 6.10314e-06 0)
(4.7934e-06 3.36628e-06 0)
(1.87258e-06 9.51847e-07 0)
(3.61196e-07 -7.24523e-07 0)
(-5.32624e-08 -9.98588e-07 0)
(8.22008e-08 -5.44013e-07 0)
(2.09007e-06 -4.0337e-06 0)
(6.19082e-06 -8.74587e-06 0)
(1.26611e-05 -1.46169e-05 0)
(2.13525e-05 -2.11747e-05 0)
(3.2256e-05 -2.78527e-05 0)
(4.52882e-05 -3.43107e-05 0)
(6.03276e-05 -4.03191e-05 0)
(7.72163e-05 -4.57581e-05 0)
(9.57657e-05 -5.05501e-05 0)
(0.000115776 -5.46702e-05 0)
(0.000137031 -5.81078e-05 0)
(0.000159318 -6.08781e-05 0)
(0.00018242 -6.29996e-05 0)
(0.000206128 -6.45033e-05 0)
(0.000230236 -6.54198e-05 0)
(0.000254553 -6.57856e-05 0)
(0.000278889 -6.56352e-05 0)
(0.000303073 -6.50054e-05 0)
(0.000326938 -6.39306e-05 0)
(0.000350333 -6.24456e-05 0)
(0.000373113 -6.0583e-05 0)
(0.00039515 -5.83745e-05 0)
(0.000416318 -5.58497e-05 0)
(0.00043651 -5.3037e-05 0)
(0.00045562 -4.9963e-05 0)
(0.000473558 -4.66528e-05 0)
(0.000490238 -4.31299e-05 0)
(0.000505585 -3.94166e-05 0)
(0.000519531 -3.55338e-05 0)
(0.000532015 -3.15012e-05 0)
(0.000542983 -2.73378e-05 0)
(0.000552389 -2.30614e-05 0)
(0.000560192 -1.86895e-05 0)
(0.00056636 -1.42387e-05 0)
(0.000570864 -9.72557e-06 0)
(0.000573684 -5.16637e-06 0)
(0.000574805 -5.77449e-07 0)
(0.000574218 4.02485e-06 0)
(0.000571921 8.62365e-06 0)
(0.000567919 1.32018e-05 0)
(0.000562221 1.77414e-05 0)
(0.000554847 2.22238e-05 0)
(0.000545821 2.66296e-05 0)
(0.000535176 3.09383e-05 0)
(0.000522953 3.51283e-05 0)
(0.0005092 3.91769e-05 0)
(0.000493975 4.30601e-05 0)
(0.000477345 4.67528e-05 0)
(0.000459386 5.02281e-05 0)
(0.000440185 5.34583e-05 0)
(0.000419837 5.64139e-05 0)
(0.00039845 5.90644e-05 0)
(0.000376143 6.13779e-05 0)
(0.000353044 6.33214e-05 0)
(0.000329295 6.48607e-05 0)
(0.000305049 6.59613e-05 0)
(0.000280469 6.65878e-05 0)
(0.000255732 6.6705e-05 0)
(0.000231023 6.62781e-05 0)
(0.000206538 6.52736e-05 0)
(0.000182483 6.36603e-05 0)
(0.000159072 6.14108e-05 0)
(0.000136522 5.8503e-05 0)
(0.000115056 5.49236e-05 0)
(9.48927e-05 5.0671e-05 0)
(7.62486e-05 4.57612e-05 0)
(5.93281e-05 4.02345e-05 0)
(4.43159e-05 3.41665e-05 0)
(3.1372e-05 2.76819e-05 0)
(2.0615e-05 2.09746e-05 0)
(1.21178e-05 1.43348e-05 0)
(5.89959e-06 8.18798e-06 0)
(1.95676e-06 3.14604e-06 0)
(1.16384e-07 6.09117e-08 0)
(1.93856e-07 -3.24798e-06 0)
(3.50282e-06 -1.22409e-05 0)
(9.94749e-06 -2.24074e-05 0)
(1.96503e-05 -3.3556e-05 0)
(3.22784e-05 -4.51898e-05 0)
(4.76525e-05 -5.6727e-05 0)
(6.5593e-05 -6.77634e-05 0)
(8.59085e-05 -7.80138e-05 0)
(0.000108384 -8.73023e-05 0)
(0.000132787 -9.55149e-05 0)
(0.000158875 -0.000102599 0)
(0.000186395 -0.000108532 0)
(0.000215095 -0.000113324 0)
(0.000244721 -0.000116998 0)
(0.000275026 -0.000119596 0)
(0.000305768 -0.000121164 0)
(0.000336716 -0.000121756 0)
(0.000367647 -0.000121429 0)
(0.000398351 -0.00012024 0)
(0.000428629 -0.000118249 0)
(0.000458294 -0.000115514 0)
(0.000487172 -0.000112089 0)
(0.000515102 -0.00010803 0)
(0.000541932 -0.000103389 0)
(0.000567526 -9.82164e-05 0)
(0.000591755 -9.2559e-05 0)
(0.000614504 -8.64622e-05 0)
(0.000635666 -7.99685e-05 0)
(0.000655146 -7.31183e-05 0)
(0.000672859 -6.59501e-05 0)
(0.000688726 -5.85002e-05 0)
(0.00070268 -5.08034e-05 0)
(0.000714661 -4.28932e-05 0)
(0.000724618 -3.48019e-05 0)
(0.000732508 -2.6561e-05 0)
(0.000738294 -1.82013e-05 0)
(0.000741949 -9.75361e-06 0)
(0.000743455 -1.24863e-06 0)
(0.000742798 7.28265e-06 0)
(0.000739976 1.58085e-05 0)
(0.000734992 2.42965e-05 0)
(0.000727861 3.2713e-05 0)
(0.000718604 4.10229e-05 0)
(0.000707251 4.91898e-05 0)
(0.000693845 5.71754e-05 0)
(0.000678435 6.49394e-05 0)
(0.000661083 7.24397e-05 0)
(0.000641861 7.96317e-05 0)
(0.000620852 8.64691e-05 0)
(0.000598151 9.29029e-05 0)
(0.000573866 9.88821e-05 0)
(0.000548118 0.000104354 0)
(0.00052104 0.000109262 0)
(0.000492779 0.000113551 0)
(0.000463495 0.000117162 0)
(0.000433362 0.000120034 0)
(0.000402569 0.000122109 0)
(0.000371315 0.000123326 0)
(0.000339816 0.000123625 0)
(0.000308297 0.000122949 0)
(0.000276996 0.000121246 0)
(0.000246159 0.000118466 0)
(0.000216041 0.00011457 0)
(0.000186904 0.000109527 0)
(0.00015901 0.000103324 0)
(0.000132622 9.59656e-05 0)
(0.000107997 8.74863e-05 0)
(8.53844e-05 7.7956e-05 0)
(6.50158e-05 6.7493e-05 0)
(4.71052e-05 5.62805e-05 0)
(3.18377e-05 4.45848e-05 0)
(1.93708e-05 3.27802e-05 0)
(9.85406e-06 2.13841e-05 0)
(3.49039e-06 1.10795e-05 0)
(2.61317e-07 2.72221e-06 0)
(3.23112e-07 -7.2867e-06 0)
(4.798e-06 -2.39451e-05 0)
(1.33561e-05 -4.13935e-05 0)
(2.59762e-05 -5.93052e-05 0)
(4.21653e-05 -7.71976e-05 0)
(6.15979e-05 -9.45265e-05 0)
(8.39907e-05 -0.000110885 0)
(0.000109069 -0.000125972 0)
(0.000136549 -0.000139591 0)
(0.000166147 -0.000151612 0)
(0.000197572 -0.000161967 0)
(0.000230536 -0.00017063 0)
(0.000264751 -0.000177612 0)
(0.000299933 -0.000182944 0)
(0.000335807 -0.000186678 0)
(0.000372103 -0.000188879 0)
(0.000408563 -0.00018962 0)
(0.000444939 -0.00018898 0)
(0.000480999 -0.000187041 0)
(0.000516518 -0.000183886 0)
(0.000551288 -0.0001796 0)
(0.000585114 -0.000174263 0)
(0.000617814 -0.000167956 0)
(0.000649217 -0.000160755 0)
(0.000679168 -0.000152736 0)
(0.000707521 -0.000143969 0)
(0.000734146 -0.000134522 0)
(0.000758921 -0.000124459 0)
(0.000781736 -0.000113842 0)
(0.000802493 -0.000102728 0)
(0.000821103 -9.11751e-05 0)
(0.000837486 -7.92351e-05 0)
(0.000851574 -6.696e-05 0)
(0.000863305 -5.43997e-05 0)
(0.000872631 -4.16031e-05 0)
(0.000879507 -2.86182e-05 0)
(0.000883901 -1.54928e-05 0)
(0.000885789 -2.27482e-06 0)
(0.000885157 1.09873e-05 0)
(0.000881997 2.4244e-05 0)
(0.000876315 3.74445e-05 0)
(0.000868123 5.05363e-05 0)
(0.000857445 6.34648e-05 0)
(0.000844315 7.61729e-05 0)
(0.000828779 8.86011e-05 0)
(0.000810894 0.000100687 0)
(0.000790727 0.000112365 0)
(0.000768362 0.000123566 0)
(0.000743892 0.000134219 0)
(0.000717425 0.000144249 0)
(0.000689085 0.000153577 0)
(0.000659006 0.000162123 0)
(0.000627342 0.000169803 0)
(0.000594258 0.000176531 0)
(0.000559937 0.00018222 0)
(0.000524577 0.00018678 0)
(0.000488389 0.000190124 0)
(0.0004516 0.000192163 0)
(0.000414454 0.000192812 0)
(0.000377204 0.00019199 0)
(0.000340118 0.000189621 0)
(0.000303474 0.000185638 0)
(0.00026756 0.000179987 0)
(0.000232669 0.000172629 0)
(0.000199102 0.000163548 0)
(0.000167159 0.000152751 0)
(0.000137138 0.000140285 0)
(0.000109337 0.000126237 0)
(8.40426e-05 0.000110753 0)
(6.15356e-05 9.40484e-05 0)
(4.20791e-05 7.64237e-05 0)
(2.59332e-05 5.82868e-05 0)
(1.33839e-05 4.01773e-05 0)
(4.82756e-06 2.2766e-05 0)
(3.77211e-07 6.8182e-06 0)
(4.35133e-07 -1.25291e-05 0)
(5.90941e-06 -3.88001e-05 0)
(1.63054e-05 -6.5131e-05 0)
(3.14764e-05 -9.11351e-05 0)
(5.07924e-05 -0.000116366 0)
(7.38062e-05 -0.000140341 0)
(0.000100137 -0.000162686 0)
(0.000129426 -0.00018312 0)
(0.000161321 -0.000201453 0)
(0.000195478 -0.000217559 0)
(0.000231562 -0.000231379 0)
(0.000269241 -0.000242893 0)
(0.000308198 -0.000252123 0)
(0.000348118 -0.000259115 0)
(0.000388701 -0.000263939 0)
(0.000429656 -0.000266679 0)
(0.000470706 -0.000267433 0)
(0.000511585 -0.000266303 0)
(0.000552044 -0.000263399 0)
(0.000591844 -0.00025883 0)
(0.000630763 -0.000252707 0)
(0.000668591 -0.00024514 0)
(0.000705135 -0.000236235 0)
(0.000740213 -0.000226097 0)
(0.000773659 -0.000214825 0)
(0.000805316 -0.000202515 0)
(0.000835045 -0.000189261 0)
(0.000862713 -0.000175148 0)
(0.000888205 -0.000160262 0)
(0.000911411 -0.000144682 0)
(0.000932235 -0.000128485 0)
(0.000950593 -0.000111745 0)
(0.000966406 -9.45315e-05 0)
(0.00097961 -7.69151e-05 0)
(0.000990146 -5.8963e-05 0)
(0.000997968 -4.0742e-05 0)
(0.00100304 -2.23186e-05 0)
(0.00100533 -3.75958e-06 0)
(0.00100482 1.48673e-05 0)
(0.0010015 3.34929e-05 0)
(0.000995375 5.20461e-05 0)
(0.000986456 7.04534e-05 0)
(0.000974765 8.86383e-05 0)
(0.000960336 0.000106521 0)
(0.000943217 0.000124018 0)
(0.000923466 0.000141043 0)
(0.000901155 0.000157503 0)
(0.00087637 0.000173302 0)
(0.000849211 0.000188342 0)
(0.000819794 0.000202518 0)
(0.00078825 0.000215721 0)
(0.000754724 0.00022784 0)
(0.00071938 0.000238759 0)
(0.000682396 0.000248361 0)
(0.000643969 0.000256526 0)
(0.000604313 0.000263134 0)
(0.000563656 0.000268064 0)
(0.000522245 0.000271198 0)
(0.000480341 0.000272421 0)
(0.000438221 0.000271625 0)
(0.000396177 0.00026871 0)
(0.000354513 0.000263587 0)
(0.000313543 0.000256183 0)
(0.000273594 0.000246446 0)
(0.000234998 0.000234349 0)
(0.000198095 0.000219896 0)
(0.000163229 0.000203132 0)
(0.000130748 0.000184148 0)
(0.000101 0.000163094 0)
(7.43362e-05 0.000140193 0)
(5.11061e-05 0.000115747 0)
(3.16665e-05 9.01574e-05 0)
(1.6431e-05 6.39441e-05 0)
(5.96222e-06 3.77205e-05 0)
(4.70438e-07 1.21265e-05 0)
(5.21056e-07 -1.87828e-05 0)
(6.83624e-06 -5.63622e-05 0)
(1.87973e-05 -9.29792e-05 0)
(3.61596e-05 -0.000128251 0)
(5.81741e-05 -0.000161785 0)
(8.42896e-05 -0.000193175 0)
(0.000114038 -0.0002221 0)
(0.000146984 -0.000248322 0)
(0.000182708 -0.000271682 0)
(0.000220808 -0.000292082 0)
(0.000260902 -0.000309486 0)
(0.000302619 -0.000323898 0)
(0.000345608 -0.000335362 0)
(0.000389528 -0.000343949 0)
(0.000434057 -0.000349755 0)
(0.000478886 -0.000352891 0)
(0.000523721 -0.000353482 0)
(0.000568286 -0.000351659 0)
(0.00061232 -0.000347561 0)
(0.000655574 -0.000341327 0)
(0.000697821 -0.000333098 0)
(0.000738843 -0.000323011 0)
(0.000778441 -0.000311203 0)
(0.000816427 -0.000297805 0)
(0.000852632 -0.000282944 0)
(0.000886894 -0.000266743 0)
(0.000919069 -0.000249318 0)
(0.000949022 -0.00023078 0)
(0.000976632 -0.000211238 0)
(0.00100179 -0.000190792 0)
(0.00102439 -0.00016954 0)
(0.00104434 -0.000147578 0)
(0.00106157 -0.000124995 0)
(0.001076 -0.00010188 0)
(0.00108757 -7.83204e-05 0)
(0.00109623 -5.44022e-05 0)
(0.00110195 -3.0211e-05 0)
(0.00110467 -5.83308e-06 0)
(0.0011044 1.86439e-05 0)
(0.0011011 4.31304e-05 0)
(0.00109477 6.7534e-05 0)
(0.00108544 9.17591e-05 0)
(0.00107311 0.000115706 0)
(0.00105781 0.000139271 0)
(0.0010396 0.000162345 0)
(0.00101853 0.000184815 0)
(0.000994662 0.00020656 0)
(0.000968092 0.000227456 0)
(0.000938918 0.000247374 0)
(0.000907257 0.000266176 0)
(0.000873243 0.000283723 0)
(0.000837026 0.000299869 0)
(0.000798773 0.000314464 0)
(0.000758672 0.000327357 0)
(0.000716926 0.000338392 0)
(0.000673759 0.000347413 0)
(0.000629411 0.000354267 0)
(0.000584141 0.0003588 0)
(0.000538227 0.000360866 0)
(0.000491963 0.000360324 0)
(0.000445661 0.000357045 0)
(0.000399647 0.000350914 0)
(0.000354262 0.000341832 0)
(0.000309864 0.000329726 0)
(0.000266818 0.00031455 0)
(0.000225506 0.000296292 0)
(0.000186317 0.000274981 0)
(0.000149653 0.000250697 0)
(0.000115924 0.000223577 0)
(8.55543e-05 0.000193823 0)
(5.89716e-05 0.000161718 0)
(3.66281e-05 0.000127632 0)
(1.90459e-05 9.20387e-05 0)
(6.923e-06 5.54767e-05 0)
(5.46862e-07 1.84529e-05 0)
(5.85982e-07 -2.58647e-05 0)
(7.60584e-06 -7.61979e-05 0)
(2.08867e-05 -0.00012432 0)
(4.01106e-05 -0.000169885 0)
(6.44235e-05 -0.000212567 0)
(9.31845e-05 -0.000252044 0)
(0.000125849 -0.000288064 0)
(0.000161911 -0.00032045 0)
(0.00020089 -0.000349093 0)
(0.000242331 -0.000373941 0)
(0.000285805 -0.000394996 0)
(0.000330906 -0.000412302 0)
(0.00037725 -0.000425938 0)
(0.000424472 -0.000436012 0)
(0.00047223 -0.000442653 0)
(0.0005202 -0.000446008 0)
(0.000568078 -0.000446235 0)
(0.000615578 -0.000443501 0)
(0.000662432 -0.000437976 0)
(0.000708391 -0.000429834 0)
(0.000753222 -0.000419246 0)
(0.000796707 -0.000406381 0)
(0.000838648 -0.000391406 0)
(0.000878857 -0.000374481 0)
(0.000917164 -0.00035576 0)
(0.000953409 -0.000335392 0)
(0.000987449 -0.000313518 0)
(0.00101915 -0.000290275 0)
(0.00104839 -0.000265791 0)
(0.00107505 -0.00024019 0)
(0.00109905 -0.00021359 0)
(0.00112027 -0.000186106 0)
(0.00113865 -0.000157848 0)
(0.00115411 -0.000128923 0)
(0.00116659 -9.94373e-05 0)
(0.00117602 -6.94945e-05 0)
(0.00118237 -3.91995e-05 0)
(0.0011856 -8.65761e-06 0)
(0.00118567 2.20239e-05 0)
(0.00118258 5.27352e-05 0)
(0.00117631 8.33626e-05 0)
(0.00116686 0.000113788 0)
(0.00115425 0.000143889 0)
(0.0011385 0.000173537 0)
(0.00111966 0.000202596 0)
(0.00109776 0.000230925 0)
(0.00107289 0.000258376 0)
(0.00104512 0.000284794 0)
(0.00101455 0.000310015 0)
(0.000981283 0.000333872 0)
(0.000945462 0.000356189 0)
(0.000907233 0.000376784 0)
(0.000866765 0.000395471 0)
(0.000824244 0.00041206 0)
(0.000779879 0.000426358 0)
(0.000733898 0.000438171 0)
(0.000686547 0.000447305 0)
(0.000638097 0.000453571 0)
(0.000588835 0.000456782 0)
(0.000539072 0.000456763 0)
(0.000489136 0.000453349 0)
(0.000439375 0.000446389 0)
(0.000390156 0.000435754 0)
(0.000341865 0.000421339 0)
(0.000294904 0.000403068 0)
(0.000249694 0.000380902 0)
(0.000206672 0.000354841 0)
(0.000166294 0.000324936 0)
(0.000129032 0.000291294 0)
(9.53761e-05 0.000254085 0)
(6.58344e-05 0.00021355 0)
(4.0937e-05 0.000170012 0)
(2.13038e-05 0.00012389 0)
(7.74781e-06 7.56403e-05 0)
(6.10794e-07 2.5643e-05 0)
(6.37787e-07 -3.36311e-05 0)
(8.25044e-06 -9.79362e-05 0)
(2.26401e-05 -0.000158605 0)
(4.34302e-05 -0.000215336 0)
(6.96747e-05 -0.000267882 0)
(0.000100653 -0.000316011 0)
(0.000135753 -0.000359554 0)
(0.000174408 -0.000398405 0)
(0.00021608 -0.000432521 0)
(0.000260266 -0.000461913 0)
(0.000306496 -0.000486636 0)
(0.00035433 -0.000506787 0)
(0.000403356 -0.000522494 0)
(0.000453189 -0.000533911 0)
(0.00050347 -0.000541213 0)
(0.000553863 -0.000544589 0)
(0.000604056 -0.000544239 0)
(0.00065376 -0.000540369 0)
(0.000702707 -0.000533189 0)
(0.000750646 -0.000522907 0)
(0.000797348 -0.000509732 0)
(0.000842601 -0.000493865 0)
(0.000886208 -0.000475504 0)
(0.00092799 -0.000454838 0)
(0.00096778 -0.000432051 0)
(0.00100543 -0.000407315 0)
(0.00104079 -0.000380799 0)
(0.00107374 -0.00035266 0)
(0.00110416 -0.000323049 0)
(0.00113194 -0.000292109 0)
(0.00115698 -0.00025998 0)
(0.0011792 -0.000226792 0)
(0.0011985 -0.000192673 0)
(0.00121483 -0.000157749 0)
(0.0012281 -0.000122142 0)
(0.00123827 -8.59723e-05 0)
(0.00124527 -4.93624e-05 0)
(0.00124908 -1.2435e-05 0)
(0.00124965 2.46844e-05 0)
(0.00124696 6.18665e-05 0)
(0.001241 9.89777e-05 0)
(0.00123175 0.000135878 0)
(0.00121923 0.000172423 0)
(0.00120344 0.000208457 0)
(0.00118442 0.000243821 0)
(0.00116221 0.000278345 0)
(0.00113686 0.000311851 0)
(0.00110846 0.000344151 0)
(0.00107708 0.000375051 0)
(0.00104283 0.000404347 0)
(0.00100584 0.000431825 0)
(0.000966245 0.000457267 0)
(0.000924217 0.000480446 0)
(0.000879938 0.000501132 0)
(0.000833613 0.00051909 0)
(0.000785473 0.000534082 0)
(0.000735768 0.000545873 0)
(0.000684772 0.000554229 0)
(0.000632785 0.000558921 0)
(0.000580127 0.000559729 0)
(0.000527142 0.000556445 0)
(0.0004742 0.000548878 0)
(0.000421692 0.000536857 0)
(0.000370032 0.000520234 0)
(0.000319659 0.000498894 0)
(0.000271032 0.000472757 0)
(0.000224637 0.000441783 0)
(0.000180979 0.000405982 0)
(0.000140591 0.000365415 0)
(0.00010403 0.000320206 0)
(7.18694e-05 0.000270545 0)
(4.47198e-05 0.000216699 0)
(2.32822e-05 0.000159023 0)
(8.46639e-06 9.78965e-05 0)
(6.66202e-07 3.35783e-05 0)
(6.82104e-07 -4.19729e-05 0)
(8.795e-06 -0.000121268 0)
(2.41111e-05 -0.000195353 0)
(4.62012e-05 -0.000263972 0)
(7.4037e-05 -0.000326962 0)
(0.000106827 -0.00038419 0)
(0.000143899 -0.000435578 0)
(0.000184629 -0.000481107 0)
(0.000228433 -0.000520812 0)
(0.000274763 -0.000554776 0)
(0.000323113 -0.000583127 0)
(0.000373014 -0.000606024 0)
(0.000424032 -0.000623658 0)
(0.000475764 -0.000636241 0)
(0.000527839 -0.000644002 0)
(0.000579915 -0.000647183 0)
(0.000631678 -0.000646033 0)
(0.000682838 -0.000640804 0)
(0.000733132 -0.000631749 0)
(0.000782315 -0.000619119 0)
(0.000830167 -0.000603157 0)
(0.000876483 -0.000584103 0)
(0.000921078 -0.000562186 0)
(0.000963782 -0.000537627 0)
(0.00100444 -0.000510635 0)
(0.00104291 -0.000481411 0)
(0.00107906 -0.000450144 0)
(0.00111278 -0.000417014 0)
(0.00114394 -0.000382191 0)
(0.00117245 -0.000345838 0)
(0.00119822 -0.000308109 0)
(0.00122116 -0.000269151 0)
(0.00124119 -0.000229108 0)
(0.00125824 -0.000188117 0)
(0.00127223 -0.000146317 0)
(0.00128311 -0.000103842 0)
(0.00129083 -6.08289e-05 0)
(0.00129533 -1.74151e-05 0)
(0.00129656 2.62576e-05 0)
(0.00129451 7.00429e-05 0)
(0.00128914 0.000113789 0)
(0.00128043 0.000157335 0)
(0.00126838 0.000200515 0)
(0.00125299 0.000243152 0)
(0.00123427 0.000285058 0)
(0.00121226 0.000326037 0)
(0.00118699 0.000365881 0)
(0.00115853 0.000404371 0)
(0.00112695 0.000441276 0)
(0.00109235 0.000476355 0)
(0.00105483 0.000509359 0)
(0.00101453 0.000540027 0)
(0.000971599 0.000568089 0)
(0.000926222 0.000593271 0)
(0.000878599 0.000615291 0)
(0.000828953 0.000633866 0)
(0.000777537 0.00064871 0)
(0.000724627 0.000659541 0)
(0.000670529 0.000666078 0)
(0.000615572 0.000668053 0)
(0.000560117 0.000665206 0)
(0.000504549 0.000657293 0)
(0.000449283 0.000644094 0)
(0.000394763 0.000625409 0)
(0.000341459 0.000601072 0)
(0.000289874 0.000570949 0)
(0.000240533 0.000534951 0)
(0.000193997 0.000493031 0)
(0.000150853 0.000445196 0)
(0.00011172 0.000391513 0)
(7.72404e-05 0.000332113 0)
(4.80881e-05 0.000267199 0)
(2.50442e-05 0.000197062 0)
(9.10916e-06 0.000122002 0)
(7.15644e-07 4.21714e-05 0)
(7.21756e-07 -5.08033e-05 0)
(9.25439e-06 -0.000145933 0)
(2.53323e-05 -0.000234135 0)
(4.84737e-05 -0.000315207 0)
(7.75744e-05 -0.000389079 0)
(0.000111779 -0.000455723 0)
(0.000150358 -0.000515163 0)
(0.00019264 -0.000567476 0)
(0.000237997 -0.00061279 0)
(0.000285844 -0.000651276 0)
(0.000335646 -0.000683142 0)
(0.000386909 -0.000708627 0)
(0.000439183 -0.000727995 0)
(0.000492053 -0.000741526 0)
(0.000545144 -0.000749517 0)
(0.000598111 -0.000752269 0)
(0.000650644 -0.000750088 0)
(0.000702461 -0.000743279 0)
(0.000753306 -0.000732144 0)
(0.000802949 -0.000716979 0)
(0.000851182 -0.000698068 0)
(0.000897816 -0.000675689 0)
(0.000942683 -0.000650105 0)
(0.000985626 -0.000621565 0)
(0.00102651 -0.000590309 0)
(0.0010652 -0.00055656 0)
(0.00110159 -0.000520529 0)
(0.00113557 -0.000482416 0)
(0.00116703 -0.000442407 0)
(0.0011959 -0.000400679 0)
(0.00122207 -0.0003574 0)
(0.00124548 -0.00031273 0)
(0.00126604 -0.000266823 0)
(0.00128368 -0.000219829 0)
(0.00129834 -0.000171893 0)
(0.00130994 -0.000123162 0)
(0.00131844 -7.37836e-05 0)
(0.00132376 -2.39068e-05 0)
(0.00132587 2.63141e-05 0)
(0.00132472 7.67189e-05 0)
(0.00132026 0.00012714 0)
(0.00131247 0.000177399 0)
(0.00130133 0.00022731 0)
(0.00128681 0.000276674 0)
(0.00126892 0.000325279 0)
(0.00124767 0.000372901 0)
(0.00122308 0.000419303 0)
(0.00119519 0.000464233 0)
(0.00116406 0.000507426 0)
(0.00112977 0.000548602 0)
(0.00109241 0.00058747 0)
(0.00105209 0.000623726 0)
(0.00100896 0.000657056 0)
(0.00096319 0.000687135 0)
(0.000914961 0.000713632 0)
(0.000864497 0.000736209 0)
(0.000812043 0.000754529 0)
(0.000757877 0.000768249 0)
(0.000702305 0.000777035 0)
(0.000645667 0.000780557 0)
(0.000588333 0.000778497 0)
(0.000530705 0.000770549 0)
(0.000473221 0.000756432 0)
(0.000416349 0.000735885 0)
(0.000360594 0.000708677 0)
(0.000306494 0.000674614 0)
(0.000254621 0.00063354 0)
(0.000205584 0.000585345 0)
(0.000160024 0.000529972 0)
(0.000118621 0.00046742 0)
(8.20747e-05 0.000397753 0)
(5.11324e-05 0.000321107 0)
(2.6644e-05 0.000237705 0)
(9.69358e-06 0.000147772 0)
(7.61744e-07 5.13589e-05 0)
(7.57507e-07 -6.00463e-05 0)
(9.63404e-06 -0.000171689 0)
(2.63142e-05 -0.000274545 0)
(5.02604e-05 -0.000368477 0)
(8.02964e-05 -0.000453513 0)
(0.000115505 -0.000529743 0)
(0.000155108 -0.000597306 0)
(0.000198388 -0.000656387 0)
(0.000244679 -0.00070722 0)
(0.000293367 -0.000750076 0)
(0.000343894 -0.000785259 0)
(0.000395748 -0.0008131 0)
(0.000448469 -0.000833947 0)
(0.000501639 -0.000848163 0)
(0.000554883 -0.000856119 0)
(0.000607864 -0.000858185 0)
(0.000660282 -0.000854734 0)
(0.000711869 -0.000846129 0)
(0.000762385 -0.000832727 0)
(0.000811621 -0.000814871 0)
(0.000859388 -0.000792892 0)
(0.000905521 -0.000767105 0)
(0.000949871 -0.000737807 0)
(0.000992307 -0.00070528 0)
(0.00103271 -0.000669787 0)
(0.00107098 -0.000631576 0)
(0.00110701 -0.000590875 0)
(0.00114071 -0.0005479 0)
(0.001172 -0.000502851 0)
(0.00120081 -0.000455916 0)
(0.00122706 -0.000407271 0)
(0.00125066 -0.000357083 0)
(0.00127156 -0.000305512 0)
(0.00128968 -0.000252713 0)
(0.00130496 -0.00019884 0)
(0.00131732 -0.000144042 0)
(0.0013267 -8.84728e-05 0)
(0.00133304 -3.22895e-05 0)
(0.00133626 2.43455e-05 0)
(0.00133632 8.12622e-05 0)
(0.00133316 0.000138281 0)
(0.00132672 0.000195209 0)
(0.00131697 0.000251844 0)
(0.00130387 0.000307966 0)
(0.0012874 0.000363341 0)
(0.00126754 0.00041772 0)
(0.0012443 0.000470836 0)
(0.00121768 0.000522403 0)
(0.00118773 0.000572122 0)
(0.00115449 0.000619673 0)
(0.00111805 0.000664721 0)
(0.00107848 0.000706916 0)
(0.00103592 0.000745894 0)
(0.000990522 0.000781278 0)
(0.000942451 0.000812681 0)
(0.000891918 0.000839706 0)
(0.000839161 0.000861953 0)
(0.000784453 0.000879019 0)
(0.000728099 0.000890501 0)
(0.000670443 0.000896002 0)
(0.000611864 0.000895134 0)
(0.000552778 0.000887522 0)
(0.00049364 0.00087281 0)
(0.000434947 0.000850666 0)
(0.000377231 0.000820786 0)
(0.000321069 0.000782899 0)
(0.000267073 0.000736776 0)
(0.0002159 0.000682231 0)
(0.000168247 0.000619131 0)
(0.000124846 0.000547401 0)
(8.6468e-05 0.000467031 0)
(5.39155e-05 0.000378082 0)
(2.81159e-05 0.00028071 0)
(1.02389e-05 0.000175063 0)
(8.05269e-07 6.10949e-05 0)
(7.89135e-07 -6.96266e-05 0)
(9.93127e-06 -0.000198298 0)
(2.70465e-05 -0.000316172 0)
(5.15361e-05 -0.000423194 0)
(8.21536e-05 -0.000519507 0)
(0.000117924 -0.000605331 0)
(0.00015802 -0.000680932 0)
(0.000201687 -0.000746621 0)
(0.000248225 -0.000802749 0)
(0.000296999 -0.000849705 0)
(0.000347433 -0.000887903 0)
(0.000399008 -0.000917777 0)
(0.000451262 -0.000939777 0)
(0.000503781 -0.000954355 0)
(0.0005562 -0.000961968 0)
(0.000608198 -0.000963067 0)
(0.000659494 -0.000958096 0)
(0.000709842 -0.000947485 0)
(0.00075903 -0.000931649 0)
(0.000806875 -0.000910984 0)
(0.000853216 -0.000885868 0)
(0.000897919 -0.000856654 0)
(0.000940865 -0.000823677 0)
(0.000981951 -0.000787245 0)
(0.00102109 -0.000747648 0)
(0.0010582 -0.000705149 0)
(0.0010932 -0.000659996 0)
(0.00112604 -0.000612414 0)
(0.00115664 -0.000562612 0)
(0.00118495 -0.000510781 0)
(0.0012109 -0.000457103 0)
(0.00123442 -0.000401744 0)
(0.00125546 -0.000344866 0)
(0.00127395 -0.000286623 0)
(0.00128982 -0.000227165 0)
(0.00130299 -0.000166644 0)
(0.00131339 -0.000105212 0)
(0.00132095 -4.30279e-05 0)
(0.00132559 1.9744e-05 0)
(0.00132723 8.2928e-05 0)
(0.00132581 0.000146337 0)
(0.00132123 0.000209769 0)
(0.00131345 0.000273008 0)
(0.0013024 0.000335817 0)
(0.00128803 0.000397942 0)
(0.00127029 0.00045911 0)
(0.00124916 0.000519024 0)
(0.00122462 0.000577369 0)
(0.00119667 0.000633805 0)
(0.00116534 0.000687974 0)
(0.00113067 0.000739495 0)
(0.00109273 0.000787969 0)
(0.00105162 0.000832977 0)
(0.00100746 0.000874085 0)
(0.000960411 0.000910844 0)
(0.000910655 0.000942793 0)
(0.000858422 0.000969462 0)
(0.000803973 0.000990376 0)
(0.00074761 0.00100506 0)
(0.000689675 0.00101303 0)
(0.000630552 0.00101383 0)
(0.000570668 0.001007 0)
(0.000510496 0.000992098 0)
(0.000450552 0.000968707 0)
(0.0003914 0.000936439 0)
(0.000333649 0.000894935 0)
(0.000277956 0.000843881 0)
(0.000225021 0.000783004 0)
(0.000175594 0.000712086 0)
(0.000130469 0.000630967 0)
(9.04705e-05 0.000539554 0)
(5.6477e-05 0.00043783 0)
(2.94853e-05 0.000325875 0)
(1.07495e-05 0.000203761 0)
(8.48172e-07 7.13457e-05 0)
(8.15826e-07 -7.94627e-05 0)
(1.01359e-05 -0.000225498 0)
(2.74982e-05 -0.000358565 0)
(5.22367e-05 -0.000478714 0)
(8.30356e-05 -0.000586223 0)
(0.000118863 -0.00068146 0)
(0.000158849 -0.000764835 0)
(0.000202203 -0.000836801 0)
(0.000248201 -0.000897846 0)
(0.000296192 -0.000948491 0)
(0.000345592 -0.000989277 0)
(0.000395884 -0.00102076 0)
(0.000446612 -0.00104349 0)
(0.000497379 -0.00105804 0)
(0.000547841 -0.00106495 0)
(0.000597702 -0.00106477 0)
(0.00064671 -0.00105802 0)
(0.000694653 -0.0010452 0)
(0.000741356 -0.00102679 0)
(0.000786672 -0.00100324 0)
(0.00083048 -0.000974981 0)
(0.000872684 -0.000942402 0)
(0.000913204 -0.000905871 0)
(0.000951974 -0.000865727 0)
(0.000988941 -0.000822276 0)
(0.00102406 -0.000775802 0)
(0.00105728 -0.000726558 0)
(0.00108857 -0.000674777 0)
(0.0011179 -0.000620669 0)
(0.0011452 -0.000564426 0)
(0.00117045 -0.000506221 0)
(0.00119359 -0.000446219 0)
(0.00121456 -0.00038457 0)
(0.00123329 -0.000321421 0)
(0.00124973 -0.000256914 0)
(0.00126379 -0.000191191 0)
(0.00127539 -0.000124398 0)
(0.00128445 -5.6687e-05 0)
(0.00129086 1.17812e-05 0)
(0.00129453 8.08326e-05 0)
(0.00129536 0.000150278 0)
(0.00129325 0.000219912 0)
(0.00128811 0.000289507 0)
(0.00127985 0.000358817 0)
(0.00126837 0.000427568 0)
(0.0012536 0.000495465 0)
(0.00123547 0.000562186 0)
(0.00121394 0.000627381 0)
(0.00118896 0.000690677 0)
(0.00116052 0.00075167 0)
(0.00112864 0.000809933 0)
(0.00109334 0.000865014 0)
(0.00105469 0.000916437 0)
(0.00101278 0.000963704 0)
(0.000967742 0.0010063 0)
(0.000919742 0.00104369 0)
(0.000868984 0.00107532 0)
(0.000815715 0.00110065 0)
(0.000760226 0.0011191 0)
(0.000702854 0.00113012 0)
(0.000643985 0.00113315 0)
(0.000584051 0.00112764 0)
(0.000523539 0.00111305 0)
(0.000462985 0.00108886 0)
(0.000402978 0.0010546 0)
(0.000344161 0.00100979 0)
(0.000287229 0.000954038 0)
(0.000232932 0.00088696 0)
(0.000182071 0.000808244 0)