/*--------------------------------*- C++ -*----------------------------------*\
  =========                 |
  \\      /  F ield         | OpenFOAM: The Open Source CFD Toolbox
   \\    /   O peration     | Website:  https://openfoam.org
    \\  /    A nd           | Version:  12
     \\/     M anipulation  |
\*---------------------------------------------------------------------------*/
FoamFile
{
    format      ascii;
    class       volScalarField;
    location    "0.5";
    object      epsilon;
}
// * * * * * * * * * * * * * * * * * * * * * * * * * * * * * * * * * * * * * //

dimensions      [0 2 -3 0 0 0 0];

internalField   nonuniform List<scalar> 
18225
(
3.59846e-05
6.79466e-05
0.000143973
0.00023467
0.000336789
0.000447888
0.0005662
0.000690382
0.000819347
0.000952181
0.00108808
0.00122634
0.0013663
0.00150739
0.00164905
0.00179081
0.00193219
0.00207278
0.0022122
0.0023501
0.00248616
0.00262009
0.00275163
0.00288056
0.00300666
0.00312976
0.0032497
0.00336634
0.00347958
0.00358932
0.00369549
0.00379804
0.00389691
0.0039921
0.00408358
0.00417137
0.00425548
0.00433593
0.00441276
0.00448602
0.00455575
0.00462202
0.00468489
0.00474443
0.00480072
0.00485382
0.00490383
0.00495082
0.00499488
0.00503608
0.00507452
0.00511027
0.00514341
0.00517402
0.00520217
0.00522794
0.00525139
0.0052726
0.00529161
0.00530848
0.00532326
0.00533599
0.00534673
0.00535548
0.00536229
0.00536718
0.00537015
0.00537121
0.00537037
0.00536763
0.00536296
0.00535635
0.00534778
0.00533722
0.00532463
0.00530997
0.00529319
0.00527425
0.00525308
0.00522962
0.00520381
0.00517559
0.00514486
0.00511157
0.00507564
0.00503698
0.00499551
0.00495116
0.00490384
0.00485348
0.00479999
0.00474329
0.00468332
0.00462001
0.00455328
0.00448307
0.00440934
0.00433203
0.0042511
0.00416653
0.00407829
0.00398636
0.00389075
0.00379148
0.00368857
0.00358207
0.00347203
0.00335853
0.00324167
0.00312156
0.00299833
0.00287215
0.0027432
0.00261168
0.00247782
0.00234189
0.00220417
0.00206498
0.00192467
0.00178361
0.00164223
0.00150098
0.00136035
0.00122088
0.00108314
0.000947776
0.000815498
0.000687096
0.000563477
0.000445715
0.000335143
0.000233517
0.000143263
6.76101e-05
3.58058e-05
0.000243204
0.000131953
0.00012839
0.000153437
0.000191965
0.000238574
0.000290678
0.000346798
0.000405972
0.000467507
0.000530868
0.000595615
0.000661377
0.000727828
0.000794678
0.000861667
0.000928561
0.000995148
0.00106123
0.00112664
0.00119121
0.00125481
0.0013173
0.00137856
0.00143851
0.00149704
0.00155408
0.00160957
0.00166345
0.00171567
0.0017662
0.00181501
0.00186208
0.0019074
0.00195095
0.00199275
0.0020328
0.00207111
0.0021077
0.00214258
0.00217579
0.00220735
0.00223729
0.00226564
0.00229244
0.00231773
0.00234154
0.00236392
0.00238489
0.00240451
0.00242281
0.00243983
0.0024556
0.00247017
0.00248358
0.00249584
0.002507
0.00251709
0.00252614
0.00253417
0.0025412
0.00254726
0.00255236
0.00255653
0.00255977
0.00256209
0.0025635
0.002564
0.0025636
0.00256229
0.00256007
0.00255692
0.00255284
0.00254781
0.00254181
0.00253483
0.00252684
0.00251782
0.00250774
0.00249658
0.00248429
0.00247085
0.00245622
0.00244037
0.00242326
0.00240485
0.00238511
0.00236399
0.00234146
0.00231748
0.00229201
0.00226501
0.00223646
0.00220631
0.00217453
0.0021411
0.00210599
0.00206918
0.00203065
0.00199038
0.00194837
0.0019046
0.00185909
0.00181184
0.00176286
0.00171218
0.00165982
0.00160582
0.00155023
0.00149311
0.00143452
0.00137455
0.00131327
0.0012508
0.00118724
0.00112273
0.00105741
0.000991434
0.00092498
0.00085824
0.000791426
0.000724769
0.000658529
0.000592992
0.000528481
0.000465365
0.00040408
0.000345158
0.000289284
0.000237416
0.000191024
0.000152678
0.000127752
0.000131297
0.000241998
0.000539364
0.000263769
0.000203405
0.000192285
0.000201946
0.000223096
0.000251552
0.000285045
0.000322186
0.000362045
0.000403956
0.000447416
0.000492026
0.000537459
0.000583441
0.000629735
0.000676134
0.000722457
0.000768541
0.000814244
0.000859437
0.000904005
0.000947847
0.000990872
0.001033
0.00107417
0.0011143
0.00115337
0.00119131
0.00122809
0.00126369
0.00129809
0.00133126
0.0013632
0.00139389
0.00142335
0.00145158
0.00147857
0.00150435
0.00152892
0.00155231
0.00157453
0.00159561
0.00161556
0.00163442
0.00165221
0.00166896
0.00168469
0.00169943
0.00171322
0.00172608
0.00173803
0.0017491
0.00175933
0.00176873
0.00177733
0.00178516
0.00179223
0.00179857
0.0018042
0.00180912
0.00181336
0.00181694
0.00181985
0.00182212
0.00182374
0.00182472
0.00182507
0.00182478
0.00182386
0.0018223
0.00182009
0.00181722
0.00181369
0.00180949
0.00180459
0.00179898
0.00179266
0.00178558
0.00177774
0.00176912
0.00175968
0.00174941
0.00173828
0.00172625
0.00171332
0.00169944
0.00168459
0.00166875
0.00165188
0.00163396
0.00161496
0.00159486
0.00157363
0.00155126
0.00152771
0.00150298
0.00147705
0.0014499
0.00142153
0.00139192
0.00136108
0.00132901
0.00129571
0.00126121
0.0012255
0.00118862
0.0011506
0.00111148
0.00107129
0.00103009
0.000987941
0.000944914
0.000901086
0.000856548
0.000811401
0.000765761
0.000719754
0.000673523
0.00062723
0.000581055
0.000535203
0.000489908
0.000445445
0.000402137
0.000360379
0.000320673
0.00028368
0.000250325
0.000221989
0.00020093
0.000191309
0.000202369
0.000262431
0.00053664
0.000888687
0.000425407
0.000308488
0.000266397
0.000254064
0.00025748
0.000270628
0.00029036
0.000314799
0.000342717
0.000373259
0.000405794
0.000439836
0.000475002
0.000510976
0.000547498
0.000584345
0.000621324
0.000658271
0.000695039
0.0007315
0.000767542
0.000803066
0.000837986
0.000872224
0.000905716
0.000938403
0.000970237
0.00100118
0.00103119
0.00106024
0.00108832
0.00111541
0.00114149
0.00116655
0.00119061
0.00121365
0.00123569
0.00125673
0.00127679
0.00129587
0.00131399
0.00133118
0.00134744
0.00136281
0.0013773
0.00139093
0.00140373
0.00141573
0.00142693
0.00143738
0.00144709
0.00145608
0.00146438
0.00147201
0.00147898
0.00148533
0.00149106
0.00149619
0.00150074
0.00150472
0.00150815
0.00151104
0.0015134
0.00151522
0.00151653
0.00151732
0.00151759
0.00151736
0.0015166
0.00151533
0.00151354
0.00151121
0.00150835
0.00150494
0.00150096
0.00149642
0.00149128
0.00148554
0.00147918
0.00147218
0.00146451
0.00145617
0.00144712
0.00143734
0.00142682
0.00141553
0.00140345
0.00139055
0.00137681
0.00136221
0.00134673
0.00133034
0.00131303
0.00129478
0.00127557
0.00125539
0.00123422
0.00121205
0.00118888
0.00116471
0.00113953
0.00111334
0.00108616
0.00105799
0.00102885
0.000998768
0.000967768
0.000935885
0.000903161
0.000869646
0.000835396
0.000800478
0.000764968
0.000728953
0.000692532
0.000655816
0.000618933
0.000582027
0.000545264
0.000508833
0.000472957
0.000437895
0.000403958
0.00037153
0.000341091
0.00031327
0.000288918
0.000269255
0.00025615
0.000252736
0.000264997
0.000306868
0.000423183
0.000884066
0.00127332
0.000605154
0.000429305
0.000357319
0.000325338
0.000313915
0.000314923
0.000324229
0.000339427
0.000358975
0.000381814
0.000407173
0.000434469
0.000463244
0.000493131
0.000523828
0.00055508
0.000586673
0.000618422
0.000650167
0.000681771
0.000713112
0.000744086
0.000774599
0.000804572
0.000833936
0.000862631
0.000890606
0.000917819
0.000944232
0.000969817
0.000994551
0.00101842
0.0010414
0.0010635
0.0010847
0.00110501
0.00112443
0.00114297
0.00116063
0.00117744
0.00119339
0.00120851
0.00122282
0.00123633
0.00124907
0.00126105
0.00127229
0.00128281
0.00129264
0.0013018
0.00131031
0.00131819
0.00132545
0.00133212
0.00133822
0.00134377
0.00134877
0.00135326
0.00135723
0.0013607
0.00136369
0.00136621
0.00136826
0.00136985
0.00137098
0.00137166
0.0013719
0.00137168
0.00137102
0.0013699
0.00136833
0.00136629
0.00136379
0.0013608
0.00135732
0.00135334
0.00134885
0.00134382
0.00133825
0.00133211
0.0013254
0.00131808
0.00131015
0.00130157
0.00129234
0.00128243
0.00127181
0.00126048
0.0012484
0.00123556
0.00122194
0.00120752
0.00119228
0.00117621
0.00115929
0.0011415
0.00112285
0.00110331
0.00108289
0.00106159
0.00103939
0.00101631
0.000992358
0.000967544
0.000941889
0.000915414
0.000888151
0.000860136
0.000831411
0.000802029
0.000772048
0.000741539
0.000710581
0.000679266
0.000647698
0.000615999
0.000584305
0.000552775
0.000521592
0.00049097
0.000461161
0.000432465
0.000405248
0.000379963
0.000357192
0.000337699
0.00032254
0.000313249
0.000312219
0.000323563
0.000355364
0.000426962
0.000601867
0.00126644
0.00168117
0.000796467
0.000559519
0.000457706
0.000407045
0.000382179
0.000372656
0.000373254
0.000380988
0.00039398
0.000410954
0.000430997
0.000453422
0.000477696
0.000503393
0.000530165
0.000557723
0.000585824
0.000614259
0.000642851
0.000671446
0.000699911
0.000728129
0.000756
0.000783437
0.000810364
0.000836716
0.000862439
0.000887484
0.000911814
0.000935397
0.000958206
0.000980221
0.00100143
0.00102182
0.00104139
0.00106013
0.00107805
0.00109516
0.00111145
0.00112695
0.00114166
0.0011556
0.00116878
0.00118123
0.00119295
0.00120397
0.00121431
0.00122399
0.00123302
0.00124143
0.00124924
0.00125646
0.00126313
0.00126924
0.00127483
0.00127991
0.00128449
0.00128858
0.00129221
0.00129539
0.00129812
0.00130042
0.00130228
0.00130373
0.00130476
0.00130538
0.00130559
0.00130539
0.00130477
0.00130375
0.0013023
0.00130043
0.00129813
0.00129539
0.00129221
0.00128856
0.00128443
0.00127982
0.00127471
0.00126908
0.00126291
0.00125619
0.0012489
0.00124102
0.00123253
0.00122341
0.00121364
0.00120321
0.00119209
0.00118026
0.0011677
0.00115441
0.00114036
0.00112553
0.00110992
0.00109351
0.00107629
0.00105826
0.00103941
0.00101974
0.000999258
0.00097796
0.000955862
0.000932979
0.000909331
0.000884945
0.000859853
0.000834093
0.000807715
0.000780772
0.00075333
0.000725464
0.000697261
0.000668821
0.00064026
0.00061171
0.000583323
0.000555278
0.000527779
0.00050107
0.000475436
0.000451223
0.000428854
0.000408859
0.00039192
0.000378947
0.000371208
0.000370574
0.000380013
0.000404719
0.000455085
0.000556323
0.000791938
0.00167166
0.00210286
0.000994635
0.000695194
0.000563492
0.000494658
0.000457145
0.000438047
0.000430976
0.000432331
0.000439869
0.00045209
0.000467928
0.00048659
0.000507465
0.000530067
0.000554002
0.000578945
0.000604621
0.000630799
0.000657281
0.000683895
0.000710494
0.00073695
0.000763151
0.000789003
0.000814422
0.000839338
0.000863689
0.000887425
0.000910501
0.000932884
0.000954544
0.00097546
0.000995614
0.00101499
0.0010336
0.00105141
0.00106845
0.00108471
0.00110019
0.00111491
0.00112889
0.00114212
0.00115463
0.00116644
0.00117756
0.00118801
0.00119781
0.00120698
0.00121553
0.00122349
0.00123088
0.00123771
0.00124401
0.00124979
0.00125506
0.00125985
0.00126417
0.00126804
0.00127146
0.00127445
0.00127702
0.00127918
0.00128094
0.0012823
0.00128326
0.00128384
0.00128403
0.00128384
0.00128325
0.00128228
0.00128091
0.00127914
0.00127697
0.00127438
0.00127136
0.00126791
0.00126401
0.00125965
0.00125481
0.00124948
0.00124364
0.00123728
0.00123037
0.00122291
0.00121486
0.00120621
0.00119695
0.00118705
0.00117649
0.00116527
0.00115334
0.00114072
0.00112736
0.00111327
0.00109843
0.00108283
0.00106646
0.00104932
0.00103139
0.00101269
0.000993215
0.000972972
0.000951975
0.000930241
0.000907794
0.000884662
0.000860882
0.000836495
0.000811555
0.000786121
0.000760264
0.000734068
0.000707627
0.000681051
0.000654469
0.000628025
0.000601891
0.000576262
0.00055137
0.000527486
0.000504933
0.000484102
0.000465476
0.000449661
0.000437446
0.000429891
0.000428489
0.00043547
0.000454419
0.000491683
0.000560094
0.000691008
0.000988669
0.00209032
0.00253069
0.0011959
0.000833427
0.000671933
0.000585312
0.000535704
0.000507678
0.000493643
0.000489349
0.000492178
0.00050039
0.000512761
0.00052839
0.000546584
0.000566799
0.000588592
0.0006116
0.000635521
0.000660097
0.000685109
0.000710368
0.000735713
0.000761004
0.000786119
0.000810954
0.000835418
0.000859434
0.000882935
0.000905865
0.000928178
0.000949834
0.000970802
0.000991057
0.00101058
0.00102936
0.00104738
0.00106465
0.00108116
0.00109691
0.00111191
0.00112618
0.00113971
0.00115252
0.00116464
0.00117606
0.00118682
0.00119693
0.0012064
0.00121526
0.00122352
0.00123121
0.00123834
0.00124493
0.001251
0.00125657
0.00126166
0.00126627
0.00127043
0.00127415
0.00127745
0.00128032
0.00128279
0.00128487
0.00128655
0.00128786
0.00128878
0.00128933
0.00128951
0.00128932
0.00128875
0.00128781
0.00128648
0.00128477
0.00128267
0.00128017
0.00127726
0.00127393
0.00127016
0.00126595
0.00126128
0.00125613
0.00125049
0.00124434
0.00123767
0.00123045
0.00122267
0.00121431
0.00120534
0.00119576
0.00118554
0.00117467
0.00116313
0.00115089
0.00113795
0.0011243
0.00110991
0.00109479
0.00107892
0.0010623
0.00104492
0.00102679
0.00100791
0.000988299
0.00096796
0.000946917
0.000925195
0.000902825
0.000879848
0.000856311
0.000832269
0.000807789
0.000782948
0.000757836
0.000732558
0.000707233
0.000682002
0.000657024
0.000632487
0.000608607
0.000585641
0.000563888
0.00054371
0.000525543
0.00050993
0.000497556
0.00048932
0.000486437
0.000490638
0.000504527
0.00053233
0.000581591
0.000667644
0.000828108
0.00118829
0.00251466
0.00295816
0.00139714
0.000971911
0.000780965
0.000676964
0.000615723
0.000579268
0.000558792
0.000549385
0.000548041
0.000552778
0.000562208
0.000575318
0.000591333
0.000609646
0.00062977
0.000651303
0.000673913
0.000697318
0.000721278
0.000745588
0.000770073
0.00079458
0.000818977
0.000843151
0.000867005
0.000890454
0.000913427
0.000935863
0.000957711
0.00097893
0.000999484
0.00101935
0.0010385
0.00105692
0.00107461
0.00109155
0.00110775
0.0011232
0.00113792
0.00115191
0.00116519
0.00117775
0.00118963
0.00120083
0.00121137
0.00122126
0.00123054
0.00123921
0.0012473
0.00125482
0.0012618
0.00126824
0.00127418
0.00127962
0.00128459
0.00128909
0.00129315
0.00129679
0.0013
0.0013028
0.00130521
0.00130723
0.00130887
0.00131014
0.00131104
0.00131157
0.00131174
0.00131154
0.00131098
0.00131006
0.00130876
0.00130708
0.00130503
0.00130258
0.00129973
0.00129647
0.00129278
0.00128866
0.00128409
0.00127905
0.00127353
0.00126751
0.00126097
0.0012539
0.00124627
0.00123808
0.00122929
0.0012199
0.00120987
0.00119921
0.00118788
0.00117588
0.00116318
0.00114978
0.00113566
0.00112081
0.00110523
0.00108891
0.00107185
0.00105405
0.00103553
0.00101628
0.000996327
0.000975693
0.000954405
0.000932496
0.000910011
0.000886998
0.00086352
0.000839648
0.000815466
0.000791069
0.000766573
0.000742106
0.000717819
0.000693889
0.000670517
0.000647942
0.000626441
0.000606347
0.000588056
0.000572051
0.000558935
0.000549476
0.000544682
0.000545932
0.000555196
0.000575463
0.000611612
0.000672395
0.000775663
0.000965304
0.00138765
0.00293817
0.00337984
0.00159575
0.00110876
0.000888954
0.000768056
0.000695627
0.000651176
0.000624682
0.000610582
0.000605477
0.000607139
0.00061402
0.000624988
0.000639187
0.00065595
0.00067474
0.000695121
0.000716728
0.000739257
0.000762449
0.000786081
0.000809965
0.000833937
0.000857855
0.000881598
0.000905061
0.000928155
0.000950803
0.000972939
0.00099451
0.00101547
0.00103578
0.00105542
0.00107435
0.00109257
0.00111007
0.00112682
0.00114285
0.00115813
0.00117269
0.00118652
0.00119965
0.00121207
0.00122381
0.00123487
0.00124529
0.00125506
0.00126422
0.00127278
0.00128077
0.00128819
0.00129507
0.00130142
0.00130728
0.00131264
0.00131754
0.00132198
0.00132598
0.00132955
0.00133271
0.00133547
0.00133784
0.00133982
0.00134144
0.00134268
0.00134356
0.00134408
0.00134424
0.00134404
0.00134348
0.00134257
0.00134128
0.00133963
0.0013376
0.00133518
0.00133236
0.00132914
0.0013255
0.00132143
0.00131692
0.00131194
0.00130648
0.00130054
0.00129408
0.00128709
0.00127955
0.00127145
0.00126277
0.00125348
0.00124357
0.00123302
0.00122181
0.00120994
0.00119737
0.00118411
0.00117013
0.00115544
0.00114002
0.00112387
0.00110699
0.00108938
0.00107104
0.00105201
0.00103227
0.00101188
0.000990842
0.000969206
0.000947015
0.000924324
0.000901198
0.000877712
0.000853957
0.000830037
0.000806072
0.000782201
0.000758588
0.000735421
0.000712919
0.000691338
0.000670981
0.000652208
0.000635452
0.000621244
0.000610247
0.000603309
0.000601553
0.000606519
0.000620422
0.000646635
0.000690689
0.000762534
0.000882512
0.0011007
0.00158415
0.00335537
0.00379118
0.00178957
0.00124241
0.000994587
0.000857366
0.000774209
0.000722166
0.000690027
0.000671581
0.000663046
0.000661951
0.000666582
0.000675695
0.000688352
0.000703823
0.000721525
0.000740985
0.000761809
0.00078367
0.000806289
0.00082943
0.000852889
0.000876492
0.000900089
0.00092355
0.000946766
0.000969639
0.00099209
0.00101405
0.00103546
0.00105627
0.00107645
0.00109596
0.00111478
0.00113289
0.00115028
0.00116693
0.00118286
0.00119805
0.00121252
0.00122627
0.00123931
0.00125165
0.00126331
0.00127431
0.00128465
0.00129435
0.00130345
0.00131194
0.00131987
0.00132723
0.00133405
0.00134036
0.00134616
0.00135147
0.00135632
0.00136072
0.00136468
0.00136822
0.00137135
0.00137408
0.00137643
0.00137839
0.00137998
0.00138121
0.00138207
0.00138258
0.00138274
0.00138254
0.00138198
0.00138107
0.00137979
0.00137814
0.00137612
0.00137372
0.00137092
0.00136772
0.00136411
0.00136006
0.00135558
0.00135063
0.00134521
0.00133931
0.00133289
0.00132595
0.00131846
0.00131041
0.00130177
0.00129254
0.00128269
0.0012722
0.00126105
0.00124924
0.00123675
0.00122356
0.00120966
0.00119504
0.0011797
0.00116364
0.00114684
0.00112933
0.0011111
0.00109217
0.00107256
0.00105229
0.00103139
0.00100991
0.000987891
0.000965391
0.00094248
0.000919238
0.00089576
0.000872157
0.000848556
0.000825106
0.00080198
0.000779379
0.000757538
0.000736731
0.000717284
0.000699586
0.000684106
0.00067142
0.000662252
0.000657531
0.000658494
0.00066684
0.000685027
0.000716807
0.00076835
0.000850781
0.000986874
0.00123273
0.00177561
0.0037617
0.00418845
0.00197682
0.00137163
0.00109681
0.000943931
0.000850535
0.000791296
0.000753854
0.000731367
0.000719682
0.000716087
0.000718708
0.00072619
0.000737514
0.000751888
0.000768685
0.000787394
0.000807594
0.000828935
0.00085112
0.000873897
0.000897052
0.000920399
0.00094378
0.000967058
0.000990118
0.00101286
0.0010352
0.00105705
0.00107838
0.00109911
0.00111922
0.00113867
0.00115743
0.00117548
0.00119282
0.00120943
0.00122531
0.00124045
0.00125488
0.00126858
0.00128158
0.00129388
0.0013055
0.00131645
0.00132675
0.00133642
0.00134548
0.00135394
0.00136183
0.00136915
0.00137594
0.00138222
0.00138799
0.00139328
0.0013981
0.00140247
0.00140641
0.00140993
0.00141304
0.00141575
0.00141807
0.00142002
0.0014216
0.00142282
0.00142367
0.00142417
0.00142432
0.00142412
0.00142356
0.00142264
0.00142136
0.00141972
0.0014177
0.00141531
0.00141252
0.00140933
0.00140572
0.00140169
0.00139722
0.00139229
0.00138689
0.001381
0.0013746
0.00136767
0.00136021
0.00135218
0.00134357
0.00133436
0.00132453
0.00131407
0.00130296
0.00129117
0.00127871
0.00126554
0.00125168
0.00123709
0.00122179
0.00120576
0.001189
0.00117153
0.00115334
0.00113446
0.00111491
0.0010947
0.00107387
0.00105247
0.00103054
0.00100815
0.000985368
0.000962276
0.000938976
0.000915584
0.000892233
0.000869083
0.000846314
0.000824141
0.000802811
0.000782619
0.000763911
0.000747104
0.000732702
0.000721327
0.000713761
0.000711016
0.000714435
0.000725878
0.000748036
0.000785033
0.000843657
0.00093617
0.00108769
0.00136015
0.00196025
0.00415342
0.00456871
0.00215612
0.0014954
0.00119481
0.001027
0.000923882
0.000857846
0.000815426
0.000789177
0.000774585
0.000768708
0.000769517
0.000775548
0.000785703
0.000799131
0.000815161
0.000833246
0.000852939
0.000873867
0.000895716
0.00091822
0.000941152
0.000964319
0.000987554
0.00101072
0.00103368
0.00105634
0.00107862
0.00110042
0.0011217
0.0011424
0.00116248
0.0011819
0.00120064
0.00121867
0.00123599
0.00125258
0.00126844
0.00128357
0.00129797
0.00131166
0.00132464
0.00133692
0.00134852
0.00135945
0.00136973
0.00137938
0.00138841
0.00139685
0.00140472
0.00141203
0.0014188
0.00142505
0.00143081
0.00143608
0.00144088
0.00144524
0.00144916
0.00145266
0.00145576
0.00145846
0.00146077
0.00146271
0.00146428
0.00146548
0.00146633
0.00146683
0.00146697
0.00146676
0.00146619
0.00146527
0.00146399
0.00146235
0.00146033
0.00145793
0.00145514
0.00145195
0.00144835
0.00144432
0.00143985
0.00143493
0.00142953
0.00142365
0.00141725
0.00141033
0.00140287
0.00139485
0.00138625
0.00137704
0.00136722
0.00135677
0.00134566
0.00133388
0.00132142
0.00130826
0.0012944
0.00127982
0.00126452
0.0012485
0.00123175
0.00121429
0.00119611
0.00117724
0.0011577
0.00113752
0.00111672
0.00109535
0.00107347
0.00105113
0.00102842
0.00100542
0.00098223
0.000958977
0.000935801
0.000912867
0.000890364
0.000868519
0.000847594
0.000827899
0.000809802
0.000793746
0.00078027
0.000770039
0.000763895
0.000762923
0.000768577
0.000782867
0.000808712
0.000850591
0.000915887
0.00101795
0.00118414
0.00148194
0.00213666
0.00452757
0.00492971
0.00232638
0.00161297
0.00128794
0.001106
0.000993707
0.000921277
0.000874196
0.000844446
0.000827167
0.000819198
0.000818362
0.000823089
0.000832206
0.000844807
0.000860176
0.000877733
0.000897005
0.000917598
0.000939181
0.000961476
0.000984243
0.00100728
0.00103042
0.0010535
0.00107641
0.00109903
0.00112127
0.00114306
0.00116432
0.00118501
0.00120508
0.0012245
0.00124323
0.00126126
0.00127857
0.00129516
0.00131102
0.00132614
0.00134054
0.00135422
0.00136719
0.00137947
0.00139106
0.00140198
0.00141225
0.00142189
0.00143092
0.00143935
0.0014472
0.0014545
0.00146126
0.0014675
0.00147324
0.0014785
0.0014833
0.00148764
0.00149156
0.00149505
0.00149813
0.00150082
0.00150313
0.00150505
0.00150662
0.00150781
0.00150865
0.00150914
0.00150928
0.00150906
0.00150849
0.00150756
0.00150628
0.00150463
0.00150261
0.0015002
0.00149741
0.00149422
0.00149061
0.00148658
0.00148211
0.00147718
0.00147178
0.00146589
0.00145949
0.00145257
0.00144511
0.00143708
0.00142847
0.00141926
0.00140944
0.00139897
0.00138786
0.00137607
0.00136361
0.00135044
0.00133657
0.00132198
0.00130667
0.00129064
0.00127388
0.00125641
0.00123822
0.00121935
0.0011998
0.00117961
0.00115881
0.00113745
0.00111558
0.00109327
0.00107059
0.00104764
0.00102452
0.00100136
0.00097831
0.000955533
0.000933234
0.000911646
0.000891046
0.00087176
0.000854177
0.000838765
0.000826095
0.000816875
0.000812001
0.000812633
0.000820327
0.00083724
0.000866506
0.000912941
0.000984494
0.00109554
0.00127558
0.00159735
0.00230377
0.00488188
0.00526982
0.00248683
0.00172379
0.00137575
0.00118053
0.00105962
0.000981201
0.00092977
0.000896765
0.000877002
0.000867111
0.000864774
0.000868323
0.000876512
0.00088838
0.000903171
0.000920274
0.000939189
0.000959504
0.000980873
0.001003
0.00102565
0.00104859
0.00107166
0.0010947
0.00111757
0.00114017
0.0011624
0.00118418
0.00120544
0.00122613
0.00124621
0.00126563
0.00128437
0.00130241
0.00131973
0.00133632
0.00135218
0.00136731
0.00138171
0.0013954
0.00140837
0.00142064
0.00143223
0.00144315
0.00145342
0.00146305
0.00147207
0.00148049
0.00148834
0.00149563
0.00150238
0.00150862
0.00151435
0.0015196
0.00152439
0.00152873
0.00153263
0.00153612
0.00153919
0.00154187
0.00154417
0.00154609
0.00154764
0.00154883
0.00154967
0.00155015
0.00155027
0.00155005
0.00154947
0.00154854
0.00154725
0.00154559
0.00154356
0.00154115
0.00153835
0.00153515
0.00153154
0.0015275
0.00152302
0.00151809
0.00151268
0.00150678
0.00150037
0.00149344
0.00148597
0.00147793
0.00146931
0.00146009
0.00145026
0.00143978
0.00142865
0.00141685
0.00140437
0.00139119
0.0013773
0.0013627
0.00134737
0.00133131
0.00131454
0.00129704
0.00127884
0.00125994
0.00124038
0.00122017
0.00119936
0.00117799
0.00115612
0.00113381
0.00111115
0.00108822
0.00106514
0.00104205
0.00101908
0.000996419
0.000974276
0.000952895
0.000932562
0.00091362
0.000896476
0.000881623
0.000869663
0.000861343
0.000857612
0.000859701
0.000869261
0.000888589
0.000921021
0.000971694
0.00104909
0.00116854
0.00136156
0.00170583
0.0024608
0.00521474
0.00558797
0.00263695
0.00182751
0.00145795
0.00125031
0.00112136
0.00103736
0.000981882
0.000945859
0.000923801
0.000912143
0.000908434
0.000910912
0.000918263
0.000929477
0.000943757
0.000960463
0.000979072
0.000999152
0.00102034
0.00104234
0.00106488
0.00108776
0.00111078
0.00113379
0.00115664
0.00117923
0.00120146
0.00122325
0.00124452
0.00126522
0.00128531
0.00130474
0.00132349
0.00134154
0.00135887
0.00137547
0.00139134
0.00140648
0.00142088
0.00143457
0.00144755
0.00145982
0.00147141
0.00148233
0.00149259
0.00150223
0.00151124
0.00151966
0.0015275
0.00153479
0.00154154
0.00154776
0.00155349
0.00155874
0.00156352
0.00156785
0.00157174
0.00157522
0.00157829
0.00158096
0.00158325
0.00158517
0.00158671
0.00158789
0.00158872
0.00158919
0.00158931
0.00158908
0.00158849
0.00158755
0.00158625
0.00158459
0.00158255
0.00158013
0.00157732
0.00157411
0.00157049
0.00156644
0.00156195
0.001557
0.00155159
0.00154568
0.00153926
0.00153232
0.00152483
0.00151678
0.00150815
0.00149891
0.00148906
0.00147857
0.00146742
0.00145561
0.0014431
0.0014299
0.00141599
0.00140137
0.00138602
0.00136994
0.00135314
0.00133562
0.00131739
0.00129847
0.00127888
0.00125865
0.00123782
0.00121643
0.00119454
0.00117223
0.00114956
0.00112665
0.00110359
0.00108054
0.00105763
0.00103506
0.00101304
0.000991829
0.000971721
0.000953072
0.00093631
0.000921948
0.000910617
0.000903104
0.000900405
0.000903819
0.000915088
0.000936636
0.000971992
0.00102659
0.0011094
0.00123668
0.00144179
0.00180702
0.00260725
0.00552508
0.00588359
0.00277649
0.00192391
0.00153436
0.00131519
0.00117877
0.00108959
0.00103037
0.00099156
0.000967386
0.000954103
0.000949138
0.000950641
0.000957234
0.000967859
0.000981683
0.000998037
0.00101638
0.00103625
0.00105729
0.00107918
0.00110165
0.00112447
0.00114745
0.00117044
0.00119329
0.00121588
0.00123811
0.0012599
0.00128119
0.0013019
0.001322
0.00134145
0.00136022
0.00137828
0.00139562
0.00141223
0.00142811
0.00144325
0.00145766
0.00147136
0.00148433
0.00149661
0.0015082
0.00151912
0.00152938
0.00153901
0.00154803
0.00155644
0.00156428
0.00157156
0.0015783
0.00158453
0.00159025
0.00159549
0.00160026
0.00160458
0.00160847
0.00161194
0.00161501
0.00161767
0.00161995
0.00162186
0.0016234
0.00162457
0.00162539
0.00162585
0.00162596
0.00162572
0.00162513
0.00162418
0.00162287
0.00162119
0.00161914
0.00161672
0.0016139
0.00161068
0.00160704
0.00160298
0.00159848
0.00159352
0.00158809
0.00158217
0.00157574
0.00156878
0.00156128
0.00155321
0.00154456
0.00153531
0.00152544
0.00151493
0.00150377
0.00149193
0.00147941
0.00146619
0.00145225
0.0014376
0.00142223
0.00140613
0.0013893
0.00137175
0.0013535
0.00133455
0.00131493
0.00129467
0.00127382
0.00125241
0.0012305
0.00120817
0.0011855
0.00116258
0.00113954
0.00111651
0.00109365
0.00107115
0.00104923
0.00102816
0.00100825
0.000989852
0.000973423
0.000959496
0.000948729
0.000941942
0.000940179
0.000944799
0.000957629
0.000981213
0.00101926
0.00107747
0.00116529
0.0012998
0.00151609
0.00190072
0.00274283
0.00581234
0.00615655
0.00290535
0.00201295
0.00160494
0.00137512
0.0012318
0.00113785
0.00107517
0.00103379
0.00100767
0.000992897
0.000986782
0.000987394
0.000993298
0.00100339
0.0010168
0.00103284
0.00105095
0.00107065
0.00109155
0.00111335
0.00113575
0.00115853
0.00118148
0.00120446
0.0012273
0.00124989
0.00127214
0.00129394
0.00131524
0.00133597
0.00135608
0.00137554
0.00139432
0.00141239
0.00142974
0.00144636
0.00146225
0.0014774
0.00149182
0.00150552
0.0015185
0.00153077
0.00154236
0.00155328
0.00156355
0.00157317
0.00158218
0.0015906
0.00159843
0.00160571
0.00161244
0.00161866
0.00162437
0.00162961
0.00163437
0.00163869
0.00164257
0.00164604
0.00164909
0.00165175
0.00165402
0.00165592
0.00165745
0.00165862
0.00165942
0.00165988
0.00165998
0.00165973
0.00165912
0.00165816
0.00165684
0.00165516
0.0016531
0.00165066
0.00164783
0.00164459
0.00164095
0.00163687
0.00163236
0.00162739
0.00162194
0.001616
0.00160956
0.00160259
0.00159507
0.00158699
0.00157832
0.00156905
0.00155916
0.00154864
0.00153745
0.00152559
0.00151305
0.0014998
0.00148585
0.00147117
0.00145577
0.00143964
0.00142279
0.00140522
0.00138693
0.00136796
0.00134831
0.00132803
0.00130715
0.00128571
0.00126378
0.00124143
0.00121875
0.00119583
0.00117279
0.00114978
0.00112695
0.00110451
0.00108268
0.00106173
0.00104198
0.00102381
0.00100767
0.000994134
0.000983873
0.000977741
0.000976826
0.000982543
0.000996797
0.00102224
0.00106275
0.00112428
0.00121669
0.00135785
0.00158442
0.00198688
0.0028675
0.00607639
0.00640707
0.00302365
0.00209469
0.00166973
0.00143012
0.00128047
0.00118213
0.00111628
0.00107254
0.00104464
0.0010285
0.00102134
0.00102114
0.00102641
0.00103602
0.00104906
0.00106482
0.00108271
0.00110225
0.00112305
0.00114476
0.0011671
0.00118984
0.00121278
0.00123574
0.00125859
0.00128118
0.00130343
0.00132525
0.00134656
0.0013673
0.00138743
0.0014069
0.00142569
0.00144378
0.00146114
0.00147777
0.00149366
0.00150882
0.00152324
0.00153694
0.00154992
0.0015622
0.00157379
0.0015847
0.00159497
0.00160459
0.0016136
0.001622
0.00162983
0.0016371
0.00164383
0.00165004
0.00165575
0.00166098
0.00166574
0.00167005
0.00167392
0.00167738
0.00168042
0.00168307
0.00168534
0.00168723
0.00168875
0.0016899
0.0016907
0.00169115
0.00169124
0.00169098
0.00169036
0.00168939
0.00168806
0.00168636
0.00168429
0.00168184
0.00167899
0.00167575
0.00167209
0.001668
0.00166347
0.00165848
0.00165302
0.00164707
0.00164061
0.00163362
0.00162609
0.00161799
0.0016093
0.00160002
0.00159011
0.00157956
0.00156835
0.00155648
0.00154391
0.00153064
0.00151666
0.00150196
0.00148654
0.00147038
0.0014535
0.0014359
0.00141759
0.00139859
0.00137892
0.00135861
0.0013377
0.00131624
0.00129429
0.00127192
0.00124922
0.00122629
0.00120325
0.00118025
0.00115745
0.00113506
0.0011133
0.00109245
0.00107285
0.00105487
0.001039
0.00102581
0.00101601
0.00101047
0.00101032
0.00101703
0.00103258
0.00105972
0.00110248
0.00116704
0.00126364
0.00141086
0.00164682
0.00206557
0.00298134
0.00631747
0.00663566
0.00313162
0.0021693
0.00172886
0.00148031
0.00132488
0.00122252
0.00115378
0.00110788
0.00107835
0.00106096
0.00105284
0.0010519
0.0010566
0.00106577
0.00107848
0.00109398
0.00111168
0.00113108
0.00115177
0.00117341
0.0011957
0.00121841
0.00124133
0.00126429
0.00128713
0.00130973
0.00133199
0.00135382
0.00137514
0.00139589
0.00141603
0.00143552
0.00145432
0.00147241
0.00148978
0.00150642
0.00152231
0.00153747
0.0015519
0.0015656
0.00157858
0.00159086
0.00160245
0.00161336
0.00162362
0.00163324
0.00164224
0.00165064
0.00165847
0.00166573
0.00167246
0.00167866