/*--------------------------------*- C++ -*----------------------------------*\
  =========                 |
  \\      /  F ield         | OpenFOAM: The Open Source CFD Toolbox
   \\    /   O peration     | Website:  https://openfoam.org
    \\  /    A nd           | Version:  12
     \\/     M anipulation  |
\*---------------------------------------------------------------------------*/
FoamFile
{
    format      ascii;
    class       volScalarField;
    location    "5";
    object      k;
}
// * * * * * * * * * * * * * * * * * * * * * * * * * * * * * * * * * * * * * //

dimensions      [0 2 -2 0 0 0 0];

internalField   nonuniform List<scalar> 
18225
(
1.96721e-10
1.33134e-09
2.96773e-09
4.92246e-09
7.11045e-09
9.47736e-09
1.1982e-08
1.45901e-08
1.72714e-08
1.99988e-08
2.27481e-08
2.54978e-08
2.82298e-08
3.09294e-08
3.35865e-08
3.61954e-08
3.87559e-08
4.12736e-08
4.37601e-08
4.62338e-08
4.87201e-08
5.12517e-08
5.38692e-08
5.66218e-08
5.95672e-08
6.27728e-08
6.6316e-08
7.02854e-08
7.47811e-08
7.99161e-08
8.58168e-08
9.26245e-08
1.00496e-07
1.09604e-07
1.20138e-07
1.32307e-07
1.46335e-07
1.62467e-07
1.80964e-07
2.02104e-07
2.26183e-07
2.53513e-07
2.84418e-07
3.19237e-07
3.5832e-07
4.02027e-07
4.50726e-07
5.04791e-07
5.64599e-07
6.30532e-07
7.02971e-07
7.82295e-07
8.6888e-07
9.63092e-07
1.06529e-06
1.17582e-06
1.29501e-06
1.42317e-06
1.5606e-06
1.70754e-06
1.86425e-06
2.03092e-06
2.20775e-06
2.39488e-06
2.59245e-06
2.80053e-06
3.0192e-06
3.2485e-06
3.48843e-06
3.73899e-06
4.00013e-06
4.27179e-06
4.55388e-06
4.84629e-06
5.14887e-06
5.46145e-06
5.78382e-06
6.11573e-06
6.45689e-06
6.80696e-06
7.16552e-06
7.53207e-06
7.90605e-06
8.28674e-06
8.67333e-06
9.06484e-06
9.46013e-06
9.85785e-06
1.02564e-05
1.0654e-05
1.10485e-05
1.14373e-05
1.18176e-05
1.21862e-05
1.25395e-05
1.28732e-05
1.31829e-05
1.34634e-05
1.3709e-05
1.39136e-05
1.40704e-05
1.4167e-05
1.4206e-05
1.41946e-05
1.41079e-05
1.39419e-05
1.36945e-05
1.33642e-05
1.2951e-05
1.24567e-05
1.18853e-05
1.12437e-05
1.0541e-05
9.7888e-06
9.00061e-06
8.19127e-06
7.37628e-06
6.57094e-06
5.78961e-06
5.04491e-06
4.34721e-06
3.70422e-06
3.12086e-06
2.59932e-06
2.13934e-06
1.7386e-06
1.39315e-06
1.09798e-06
8.47328e-07
6.35349e-07
4.56471e-07
3.05939e-07
1.80555e-07
8.01059e-08
1.18143e-08
1.48694e-09
1.18573e-08
2.66316e-08
4.42462e-08
6.39523e-08
8.52654e-08
1.07816e-07
1.31297e-07
1.55436e-07
1.79989e-07
2.04739e-07
2.29492e-07
2.54083e-07
2.78383e-07
3.02299e-07
3.25781e-07
3.48825e-07
3.71483e-07
3.93859e-07
4.16118e-07
4.38488e-07
4.61265e-07
4.84813e-07
5.09575e-07
5.3607e-07
5.64905e-07
5.96776e-07
6.3248e-07
6.72918e-07
7.19106e-07
7.72184e-07
8.33421e-07
9.04228e-07
9.8616e-07
1.08093e-06
1.1904e-06
1.31661e-06
1.46174e-06
1.62816e-06
1.81836e-06
2.03502e-06
2.28092e-06
2.559e-06
2.87232e-06
3.22401e-06
3.61731e-06
4.05555e-06
4.54207e-06
5.08029e-06
5.67363e-06
6.32552e-06
7.03938e-06
7.81859e-06
8.66645e-06
9.58619e-06
1.05809e-05
1.16536e-05
1.2807e-05
1.40437e-05
1.53662e-05
1.67765e-05
1.82765e-05
1.98679e-05
2.1552e-05
2.333e-05
2.52026e-05
2.71705e-05
2.92341e-05
3.13933e-05
3.36481e-05
3.59981e-05
3.84428e-05
4.09813e-05
4.36126e-05
4.63353e-05
4.91481e-05
5.20488e-05
5.50355e-05
5.81053e-05
6.12552e-05
6.44815e-05
6.77798e-05
7.11448e-05
7.45702e-05
7.80487e-05
8.15715e-05
8.51284e-05
8.87073e-05
9.22939e-05
9.58717e-05
9.94215e-05
0.000102921
0.000106344
0.000109662
0.000112842
0.000115847
0.000118635
0.000121162
0.000123376
0.00012522
0.000126628
0.000127485
0.000127822
0.000127711
0.000126918
0.000125414
0.000123177
0.000120197
0.000116471
0.000112017
0.000106873
0.000101098
9.47759e-05
8.80102e-05
8.09221e-05
7.36448e-05
6.63174e-05
5.90773e-05
5.20532e-05
4.53584e-05
3.9086e-05
3.33053e-05
2.80604e-05
2.33711e-05
1.92352e-05
1.56318e-05
1.25255e-05
9.87041e-06
7.61611e-06
5.70977e-06
4.10111e-06
2.74716e-06
1.61878e-06
7.12934e-07
8.926e-08
3.15916e-09
2.70896e-08
6.12388e-08
1.01956e-07
1.47501e-07
1.96754e-07
2.48862e-07
3.03115e-07
3.58885e-07
4.15611e-07
4.72787e-07
5.29966e-07
5.86769e-07
6.42893e-07
6.98124e-07
7.52345e-07
8.05551e-07
8.57856e-07
9.09501e-07
9.60868e-07
1.01248e-06
1.06502e-06
1.11934e-06
1.17645e-06
1.23754e-06
1.30403e-06
1.37751e-06
1.45984e-06
1.55308e-06
1.65958e-06
1.78198e-06
1.9232e-06
2.0865e-06
2.27548e-06
2.49408e-06
2.74663e-06
3.03781e-06
3.37269e-06
3.75671e-06
4.19566e-06
4.6957e-06
5.26331e-06
5.90525e-06
6.62859e-06
7.4406e-06
8.34878e-06
9.36079e-06
1.04844e-05
1.17276e-05
1.30982e-05
1.46043e-05
1.62537e-05
1.80543e-05
2.00138e-05
2.21397e-05
2.44392e-05
2.69193e-05
2.95865e-05
3.24469e-05
3.55061e-05
3.87691e-05
4.22404e-05
4.59239e-05
4.98229e-05
5.394e-05
5.82774e-05
6.28365e-05
6.76182e-05
7.26228e-05
7.78501e-05
8.32992e-05
8.89689e-05
9.48571e-05
0.000100961
0.000107279
0.000113805
0.000120535
0.000127464
0.000134586
0.000141892
0.000149373
0.000157018
0.000164815
0.000172748
0.000180798
0.000188946
0.000197167
0.000205431
0.000213706
0.000221952
0.000230124
0.000238171
0.000246033
0.000253644
0.000260926
0.000267796
0.00027416
0.000279914
0.000284941
0.000289116
0.000292298
0.000294196
0.000294908
0.000294612
0.000292737
0.000289223
0.00028403
0.000277128
0.000268515
0.000258229
0.000246355
0.000233031
0.000218449
0.000202845
0.0001865
0.00016972
0.000152826
0.000136133
0.00011994
0.000104507
9.00491e-05
7.67257e-05
6.46384e-05
5.38327e-05
4.43029e-05
3.60006e-05
2.88441e-05
2.27283e-05
1.75355e-05
1.31437e-05
9.43703e-06
6.31641e-06
3.71472e-06
1.62565e-06
1.89291e-07
5.1686e-09
4.54264e-08
1.03185e-07
1.72144e-07
2.49299e-07
3.32737e-07
4.21009e-07
5.1291e-07
6.07378e-07
7.03457e-07
8.00292e-07
8.97123e-07
9.93307e-07
1.08833e-06
1.18182e-06
1.27359e-06
1.36362e-06
1.45211e-06
1.53946e-06
1.62631e-06
1.71356e-06
1.80235e-06
1.89413e-06
1.99059e-06
2.09379e-06
2.20608e-06
2.33018e-06
2.46921e-06
2.62669e-06
2.80658e-06
3.01334e-06
3.25193e-06
3.52786e-06
3.84722e-06
4.21671e-06
4.64363e-06
5.13594e-06
5.70222e-06
6.35171e-06
7.09422e-06
7.94021e-06
8.90066e-06
9.98707e-06
1.12114e-05
1.25861e-05
1.41238e-05
1.58377e-05
1.77409e-05
1.9847e-05
2.21694e-05
2.47217e-05
2.75176e-05
3.05704e-05
3.38933e-05
3.74992e-05
4.14006e-05
4.56095e-05
5.01371e-05
5.4994e-05
6.01899e-05
6.57337e-05
7.16332e-05
7.78954e-05
8.45259e-05
9.15297e-05
9.89104e-05
0.000106671
0.000114812
0.000123334
0.000132237
0.00014152
0.000151178
0.000161209
0.000171606
0.000182363
0.000193472
0.000204923
0.000216704
0.000228803
0.000241204
0.000253887
0.000266834
0.000280018
0.000293411
0.000306982
0.000320693
0.000334501
0.000348356
0.000362201
0.000375973
0.000389595
0.000402983
0.00041604
0.000428656
0.000440708
0.00045206
0.000462558
0.000472036
0.000480307
0.000487165
0.000492386
0.000495447
0.000496554
0.000496037
0.000492873
0.000486977
0.000478281
0.000466729
0.000452309
0.000435075
0.000415161
0.000392794
0.000368287
0.000342039
0.000314518
0.000286243
0.000257758
0.000229601
0.000202279
0.000176235
0.000151837
0.000129355
0.000108962
9.07352e-05
7.46636e-05
6.06648e-05
4.85999e-05
3.8291e-05
2.9538e-05
2.21349e-05
1.58858e-05
1.06237e-05
6.23625e-06
2.71651e-06
3.08634e-07
7.45334e-09
6.61655e-08
1.50815e-07
2.52059e-07
3.65403e-07
4.87999e-07
6.17706e-07
7.52744e-07
8.91547e-07
1.03271e-06
1.17497e-06
1.31721e-06
1.45848e-06
1.59802e-06
1.73528e-06
1.86998e-06
2.00209e-06
2.13188e-06
2.25997e-06
2.38729e-06
2.51515e-06
2.64523e-06
2.77963e-06
2.92088e-06
3.07195e-06
3.23632e-06
3.41799e-06
3.6215e-06
3.85205e-06
4.11544e-06
4.41823e-06
4.76769e-06
5.17193e-06
5.63989e-06
6.18142e-06
6.80728e-06
7.52915e-06
8.35967e-06
9.31244e-06
1.04019e-05
1.16436e-05
1.30535e-05
1.46487e-05
1.64469e-05
1.84664e-05
2.0726e-05
2.3245e-05
2.6043e-05
2.914e-05
3.25562e-05
3.63117e-05
4.04266e-05
4.49211e-05
4.98149e-05
5.51273e-05
6.08771e-05
6.70823e-05
7.37599e-05
8.0926e-05
8.85954e-05
9.67815e-05
0.000105496
0.00011475
0.000124552
0.00013491
0.000145827
0.000157309
0.000169355
0.000181967
0.000195141
0.000208873
0.000223156
0.000237981
0.000253335
0.000269206
0.000285575
0.000302424
0.00031973
0.000337466
0.000355605
0.000374112
0.000392953
0.000412086
0.000431467
0.000451043
0.00047076
0.000490554
0.000510355
0.000530084
0.000549651
0.000568956
0.000587885
0.000606307
0.000624076
0.000641029
0.000656982
0.000671731
0.000685047
0.000696684
0.000706358
0.000713746
0.000718104
0.000719679
0.000719058
0.000714682
0.000706413
0.000694143
0.000677771
0.000657253
0.000632639
0.0006041
0.00057194
0.000536596
0.000498636
0.000458738
0.00041766
0.000376203
0.000335167
0.000295305
0.000257282
0.000221647
0.000188805
0.000159017
0.000132395
0.000108928
8.84933e-05
7.08854e-05
5.58428e-05
4.30715e-05
3.22694e-05
2.31498e-05
1.54692e-05
9.06617e-06
3.93623e-06
4.42792e-07
9.97058e-09
8.8933e-08
2.03216e-07
3.40153e-07
4.93575e-07
6.59575e-07
8.35226e-07
1.0181e-06
1.20608e-06
1.39724e-06
1.58987e-06
1.78244e-06
1.97366e-06
2.1625e-06
2.3482e-06
2.53038e-06
2.709e-06
2.88442e-06
3.05747e-06
3.2294e-06
3.40198e-06
3.5775e-06
3.75879e-06
3.94927e-06
4.15297e-06
4.37457e-06
4.6195e-06
4.89392e-06
5.20482e-06
5.56009e-06
5.96858e-06
6.44017e-06
6.98582e-06
7.61768e-06
8.34907e-06
9.19459e-06
1.01701e-05
1.12928e-05
1.25812e-05
1.40549e-05
1.57348e-05
1.76431e-05
1.98029e-05
2.22382e-05
2.49741e-05
2.80363e-05
3.14511e-05
3.52456e-05
3.9447e-05
4.4083e-05
4.91815e-05
5.47702e-05
6.08768e-05
6.75289e-05
7.47531e-05
8.25757e-05
9.10217e-05
0.000100115
0.000109878
0.000120332
0.000131494
0.000143383
0.000156012
0.000169392
0.000183533
0.000198441
0.000214118
0.000230564
0.000247774
0.000265741
0.000284453
0.000303893
0.000324041
0.000344873
0.00036636
0.000388467
0.000411158
0.000434391
0.000458121
0.000482297
0.000506868
0.000531775
0.000556959
0.000582356
0.000607896
0.000633506
0.000659109
0.000684618
0.000709941
0.000734975
0.000759604
0.000783698
0.00080711
0.000829672
0.000851195
0.000871462
0.00089023
0.000907223
0.000922146
0.000934633
0.000944287
0.000950197
0.000952431
0.000952014
0.000946838
0.000936614
0.000921186
0.000900384
0.000874101
0.000842352
0.000805314
0.000763343
0.000716986
0.000666971
0.000614187
0.000559648
0.000504435
0.000449641
0.000396304
0.000345348
0.000297539
0.000253447
0.00021344
0.000177685
0.00014617
0.000118733
9.5097e-05
7.49086e-05
5.77701e-05
4.32735e-05
3.10332e-05
2.07229e-05
1.21296e-05
5.25407e-06
5.88273e-07
1.26934e-08
1.1351e-07
2.59845e-07
4.35483e-07
6.32436e-07
8.45624e-07
1.07125e-06
1.30618e-06
1.54766e-06
1.79322e-06
2.04064e-06
2.28795e-06
2.53347e-06
2.77586e-06
3.01415e-06
3.24784e-06
3.47685e-06
3.70167e-06
3.92332e-06
4.14345e-06
4.3643e-06
4.58883e-06
4.82065e-06
5.06415e-06
5.32452e-06
5.60776e-06
5.92083e-06
6.27165e-06
6.66919e-06
7.12359e-06
7.64622e-06
8.24976e-06
8.94834e-06
9.75755e-06
1.06946e-05
1.17782e-05
1.30289e-05
1.44689e-05
1.61219e-05
1.80135e-05
2.01706e-05
2.26218e-05
2.53972e-05
2.85279e-05
3.20464e-05
3.59861e-05
4.03814e-05
4.52674e-05
5.06799e-05
5.66549e-05
6.32289e-05
7.04387e-05
7.83205e-05
8.69106e-05
9.62445e-05
0.000106357
0.000117281
0.000129048
0.000141687
0.000155227
0.000169691
0.0001851
0.000201472
0.00021882
0.000237152
0.000256474
0.000276782
0.00029807
0.000320325
0.000343525
0.000367644
0.000392648
0.000418496
0.00044514
0.000472527
0.000500596
0.000529282
0.000558516
0.000588225
0.000618333
0.000648763
0.000679435
0.000710271
0.000741192
0.000772117
0.000802966
0.000833656
0.000864102
0.000894213
0.000923887
0.000953016
0.000981471
0.00100911
0.00103576
0.00106122
0.00108527
0.00110764
0.00112801
0.00114605
0.00116131
0.00117334
0.00118119
0.00118443
0.00118459
0.0011793
0.00116784
0.00115003
0.0011256
0.00109437
0.00105627
0.00101145
0.000960298
0.000903423
0.000841694
0.000776197
0.000708191
0.000639049
0.000570173
0.000502914
0.000438491
0.000377922
0.000321982
0.000271174
0.000225742
0.000185689
0.000150819
0.000120785
9.51346e-05
7.33616e-05
5.49444e-05
3.93915e-05
2.62897e-05
1.53724e-05
6.6479e-06
7.42469e-07
1.56055e-08
1.39763e-07
3.20368e-07
5.37462e-07
7.81112e-07
1.04497e-06
1.3243e-06
1.61518e-06
1.91417e-06
2.2182e-06
2.5245e-06
2.8306e-06
3.13441e-06
3.43425e-06
3.72892e-06
4.01776e-06
4.30068e-06
4.57827e-06
4.85181e-06
5.12331e-06
5.39557e-06
5.67222e-06
5.95776e-06
6.25762e-06
6.5782e-06
6.92696e-06
7.31249e-06
7.74459e-06
8.23438e-06
8.79442e-06
9.43878e-06
1.01832e-05
1.10452e-05
1.20442e-05
1.32014e-05
1.45403e-05
1.60862e-05
1.78669e-05
1.9912e-05
2.22532e-05
2.49243e-05
2.79611e-05
3.14009e-05
3.52831e-05
3.96482e-05
4.45382e-05
4.99965e-05
5.60672e-05
6.27954e-05
7.02269e-05
7.8408e-05
8.73851e-05
9.72047e-05
0.000107913
0.000119554
0.000132174
0.000145813
0.000160512
0.000176308
0.000193235
0.000211321
0.00023059
0.000251062
0.000272748
0.000295653
0.000319774
0.000345098
0.000371604
0.00039926
0.000428023
0.000457841
0.000488649
0.000520374
0.000552935
0.000586239
0.000620191
0.000654688
0.000689626
0.000724901
0.000760409
0.00079605
0.000831729
0.000867358
0.000902852
0.000938136
0.000973138
0.00100779
0.00104203
0.00107578
0.00110898
0.00114153
0.00117334
0.00120427
0.00123418
0.00126287
0.0012901
0.0013156
0.00133903
0.00135999
0.00137799
0.0013925
0.00140269
0.00140747
0.00140847
0.00140384
0.00139198
0.00137271
0.00134568
0.00131058
0.00126726
0.00121581
0.00115657
0.00109022
0.00101771
0.000940281
0.000859421
0.000776773
0.000694046
0.000612918
0.000534926
0.000461378
0.000393285
0.00033133
0.000275862
0.000226926
0.000184308
0.000147596
0.000116245
8.96339e-05
6.71237e-05
4.81124e-05
3.20959e-05
1.87531e-05
8.10054e-06
9.03373e-07
1.86972e-08
1.67613e-07
3.8459e-07
6.45736e-07
9.39069e-07
1.25689e-06
1.59344e-06
1.94395e-06
2.30426e-06
2.67062e-06
3.03965e-06
3.40838e-06
3.77424e-06
4.1352e-06
4.48977e-06
4.83714e-06
5.17721e-06
5.51067e-06
5.83906e-06
6.16481e-06
6.49129e-06
6.82288e-06
7.165e-06
7.52419e-06
7.90817e-06
8.32594e-06
8.78783e-06
9.30568e-06
9.89289e-06
1.05646e-05
1.13378e-05
1.22315e-05
1.32669e-05
1.44673e-05
1.58587e-05
1.74692e-05
1.93298e-05
2.1474e-05
2.39378e-05
2.67599e-05
2.99813e-05
3.36456e-05
3.77985e-05
4.2488e-05
4.77636e-05
5.36771e-05
6.02814e-05
6.7631e-05
7.57815e-05
8.47892e-05
9.47115e-05
0.000105606
0.000117529
0.000130539
0.000144691
0.00016004
0.000176637
0.00019453
0.000213764
0.000234377
0.000256401
0.000279862
0.000304773
0.000331142
0.000358962
0.000388215
0.000418868
0.000450875
0.000484173
0.000518686
0.000554321
0.00059097
0.000628516
0.000666828
0.000705768
0.000745196
0.000784968
0.000824943
0.000864988
0.000904977
0.0009448
0.000984358
0.00102357
0.00106237
0.0011007
0.00113852
0.00117581
0.00121254
0.00124869
0.00128422
0.00131909
0.00135323
0.00138656
0.00141893
0.00145017
0.00148005
0.00150826
0.00153443
0.00155814
0.00157884
0.00159592
0.00160867
0.00161545
0.00161754
0.00161424
0.00160277
0.00158295
0.00155437
0.00151659
0.00146934
0.00141263
0.00134674
0.00127234
0.00119043
0.00110236
0.00100979
0.000914583
0.000818747
0.000724274
0.000633028
0.000546632
0.000466373
0.000393151
0.000327464
0.000269432
0.000218849
0.000175258
0.000138026
0.000106422
7.96877e-05
5.71074e-05
3.80834e-05
2.22386e-05
9.59831e-06
1.06941e-06
2.19633e-08
1.97021e-07
4.52409e-07
7.60115e-07
1.10601e-06
1.48097e-06
1.87813e-06
2.29184e-06
2.71713e-06
3.14954e-06
3.58504e-06
4.02008e-06
4.45159e-06
4.87714e-06
5.29495e-06
5.70405e-06
6.10431e-06
6.49653e-06
6.88252e-06
7.26515e-06
7.64843e-06
8.03751e-06
8.4388e-06
8.86005e-06
9.31036e-06
9.80037e-06
1.03423e-05
1.09501e-05
1.16396e-05
1.24288e-05
1.33376e-05
1.43888e-05
1.56072e-05
1.70207e-05
1.86599e-05
2.05584e-05
2.2753e-05
2.52835e-05
2.81928e-05
3.15272e-05
3.53356e-05
3.96702e-05
4.45857e-05
5.01396e-05
5.63916e-05
6.34038e-05
7.12401e-05
7.99661e-05
8.96491e-05
0.000100357
0.00011216
0.000125127
0.000139327
0.00015483
0.000171702
0.000190009
0.00020981
0.000231163
0.000254116
0.000278712
0.000304981
0.000332944
0.000362607
0.000393962
0.000426982
0.000461625
0.000497824
0.000535495
0.000574532
0.000614807
0.000656173
0.000698468
0.000741516
0.00078513
0.000829121
0.000873299
0.000917482
0.000961501
0.0010052
0.00104846
0.00109116
0.00113323
0.00117462
0.00121531
0.00125527
0.00129455
0.00133315
0.00137112
0.00140848
0.00144527
0.00148149
0.0015171
0.00155206
0.00158623
0.00161946
0.0016515
0.00168203
0.00171067
0.00173691
0.00176019
0.00177983
0.00179511
0.00180423
0.0018076
0.00180603
0.0017956
0.00177605
0.0017469
0.0017076
0.00165777
0.00159729
0.00152638
0.00144563
0.00135603
0.00125898
0.00115624
0.00104986
0.000942085
0.000835194
0.000731377
0.000632584
0.000540408
0.000456009
0.000380079
0.000312854
0.000254175
0.000203564
0.000160317
0.000123602
9.25422e-05
6.63087e-05
4.42075e-05
2.58036e-05
1.11305e-05
1.23936e-06
2.54023e-08
2.27974e-07
5.23792e-07
8.80531e-07
1.28182e-06
1.71703e-06
2.17815e-06
2.65856e-06
3.15244e-06
3.65454e-06
4.16016e-06
4.66509e-06
5.16575e-06
5.65926e-06
6.14353e-06
6.61741e-06
7.08073e-06
7.53442e-06
7.98058e-06
8.42256e-06
8.86502e-06
9.31396e-06
9.77685e-06
1.02627e-05
1.07821e-05
1.13474e-05
1.19728e-05
1.26746e-05
1.34712e-05
1.43835e-05
1.54349e-05
1.66515e-05
1.80627e-05
1.97009e-05
2.16018e-05
2.38049e-05
2.63532e-05
2.92933e-05
3.26759e-05
3.65549e-05
4.09884e-05
4.60376e-05
5.17673e-05
5.82453e-05
6.55424e-05
7.37322e-05
8.28905e-05
9.30953e-05
0.000104427
0.000116966
0.000130795
0.000145997
0.000162655
0.000180849
0.000200657
0.000222156
0.000245413
0.00027049
0.000297441
0.000326303
0.000357104
0.000389852
0.000424536
0.000461123
0.000499554
0.000539747
0.000581589
0.000624942
0.00066964
0.000715491
0.000762282
0.000809782
0.00085775
0.000905941
0.000954112
0.00100204
0.0010495
0.00109632
0.00114235
0.00118748
0.00123163
0.00127477
0.00131691
0.00135808
0.00139836
0.00143782
0.00147657
0.00151471
0.00155233
0.00158952
0.00162631
0.00166273
0.00169871
0.00173416
0.0017689
0.00180267
0.00183515
0.0018659
0.00189438
0.00191998
0.00194199
0.00195961
0.00197118
0.00197601
0.00197617
0.00196734
0.00194871
0.00191986
0.00188015
0.00182907
0.00176638
0.00169216
0.00160691
0.00151153
0.00140742
0.00129635
0.0011805
0.00106228
0.000944223
0.000828815
0.00071834
0.000614721
0.000519413
0.00043335
0.000356935
0.000290097
0.00023237
0.000183007
0.000141086
0.000105621
7.56672e-05
5.0435e-05
2.94288e-05
1.26889e-05
1.41229e-06
2.90152e-08
2.60483e-07
5.9876e-07
1.00701e-06
1.46652e-06
1.9651e-06
2.49351e-06
3.0441e-06
3.61014e-06
4.18557e-06
4.7649e-06
5.34327e-06
5.91651e-06
6.48128e-06
7.03515e-06
7.57675e-06
8.10589e-06
8.62364e-06
9.13241e-06
9.63606e-06
1.01399e-05
1.0651e-05
1.11777e-05
1.17306e-05
1.23217e-05
1.29653e-05
1.36777e-05
1.44775e-05
1.5386e-05
1.64271e-05
1.76279e-05
1.90183e-05
2.06323e-05
2.25071e-05
2.46843e-05
2.72092e-05
3.01316e-05
3.35059e-05
3.73904e-05
4.18482e-05
4.69467e-05
5.27573e-05
5.93556e-05
6.68207e-05
7.52356e-05
8.46864e-05
9.5262e-05
0.000107054
0.000120156
0.000134664
0.000150673
0.000168281
0.000187584
0.000208673
0.00023164
0.000256567
0.00028353
0.000312593
0.000343806
0.000377202
0.000412793
0.000450566
0.000490481
0.000532469
0.000576424
0.000622209
0.00066965
0.000718537
0.000768631
0.000819662
0.000871341
0.000923364
0.000975424
0.00102722
0.00107847
0.00112892
0.00117835
0.0012266
0.00127353
0.00131909
0.00136327
0.0014061
0.00144767
0.0014881
0.00152755
0.00156618
0.00160416
0.00164167
0.00167884
0.00171581
0.00175263
0.00178933
0.00182588
0.00186216
0.00189799
0.00193308
0.00196707
0.0019995
0.0020298
0.00205733
0.00208131
0.00210091
0.00211481
0.00212141
0.00212288
0.00211607
0.0020989
0.00207113
0.00203203
0.00198098
0.0019176
0.00184182
0.00175397
0.00165485
0.00154574
0.00142838
0.00130496
0.00117801
0.00105027
0.000924473
0.000803236
0.00068882
0.000583013
0.000487035
0.000401508
0.000326497
0.000261594
0.000206033
0.000158824
0.000118882
8.51515e-05
5.67441e-05
3.31013e-05
1.4268e-05
1.58757e-06
3.28051e-08
2.94578e-07
6.77382e-07
1.13966e-06
1.66026e-06
2.22535e-06
2.82441e-06
3.4487e-06
4.09051e-06
4.74288e-06
5.39954e-06
6.05488e-06
6.70412e-06
7.3434e-06
7.96992e-06
8.58212e-06
9.17977e-06
9.76407e-06
1.03378e-05
1.09053e-05
1.14728e-05
1.2048e-05
1.26409e-05
1.32631e-05
1.39285e-05
1.46533e-05
1.54561e-05
1.63581e-05
1.73834e-05
1.85593e-05
1.99165e-05
2.14895e-05
2.33166e-05
2.54408e-05
2.79092e-05
3.07741e-05
3.40925e-05
3.79266e-05
4.23438e-05
4.74166e-05
5.32225e-05
5.98442e-05
6.73689e-05
7.58882e-05
8.54982e-05
9.62986e-05
0.000108393
0.000121887
0.000136889
0.00015351
0.000171861
0.000192052
0.000214193
0.000238389
0.000264738
0.000293331
0.000324245
0.000357542
0.000393265
0.000431429
0.000472024
0.000515005
0.000560289
0.000607753
0.000657232
0.000708516
0.000761352
0.000815447
0.000870474
0.000926079
0.000981893
0.00103754
0.00109265
0.0011469
0.00119996
0.00125159
0.0013016
0.00134985
0.00139629
0.00144092
0.00148384
0.00152515
0.00156507
0.00160379
0.00164156
0.00167862
0.0017152
0.00175153
0.00178779
0.00182411
0.00186057
0.0018972
0.00193394
0.00197065
0.00200712
0.00204306
0.00207806
0.00211165
0.00214324
0.00217217
0.00219765
0.00221883
0.00223468
0.00224302
0.00224561
0.00224101
0.00222574
0.00219971
0.00216216
0.00211234
0.00204972
0.00197407
0.00188553
0.00178471
0.00167271
0.00155116
0.0014222
0.00128839
0.00115258
0.00101776
0.000886827
0.00076239
0.000646598
0.000541001
0.000446494
0.000363331
0.000291205
0.000229372
0.000176797
0.000132308
9.47464e-05
6.3123e-05
3.68137e-05
1.58644e-05
1.76482e-06
3.67771e-08
3.30305e-07
7.59761e-07
1.27865e-06
1.86329e-06
2.4981e-06
3.17123e-06
3.87279e-06
4.59403e-06
5.32703e-06
6.06465e-06
6.80051e-06
7.52915e-06
8.24617e-06
8.9484e-06
9.63403e-06
1.03028e-05
1.09561e-05
1.1597e-05
1.22306e-05
1.28637e-05
1.35052e-05
1.41663e-05
1.48602e-05
1.56026e-05
1.64116e-05
1.73083e-05
1.83167e-05
1.94639e-05
2.07808e-05
2.2302e-05
2.40666e-05
2.61181e-05
2.85049e-05
3.12809e-05
3.45051e-05
3.82425e-05
4.25641e-05
4.75467e-05
5.3273e-05
5.98318e-05
6.73177e-05
7.58305e-05
8.54756e-05
9.63631e-05
0.000108608
0.000122327
0.000137644
0.000154683
0.000173569
0.000194429
0.000217388
0.000242566
0.00027008
0.000300035
0.000332524
0.000367623
0.000405385
0.000445834
0.000488962
0.000534721
0.00058302
0.00063372
0.000686628
0.0007415
0.00079804
0.000855901
0.000914696
0.000974004
0.00103338
0.00109239
0.00115058
0.00120756
0.00126296
0.00131649
0.00136793
0.00141714
0.00146406
0.00150873
0.00155126
0.00159184
0.00163071
0.00166816
0.00170449
0.00174002
0.00177505
0.00180987
0.00184471
0.00187978
0.00191519
0.00195102
0.00198727
0.00202384
0.00206058
0.00209724
0.00213351
0.00216896
0.00220312
0.0022354
0.00226514
0.00229159
0.0023139
0.00233118
0.00234116
0.00234477
0.00234234
0.00232933
0.00230562
0.00227043
0.00222292
0.00216242
0.00208849
0.00200108
0.00190053
0.00178772
0.00166409
0.00153164
0.00139289
0.00125074
0.00110835
0.00096887
0.000835273
0.000710081
0.000595215
0.000491894
0.000400616
0.000321226
0.000253043
0.000195016
0.000145905
0.000104452
6.95697e-05
4.0564e-05
1.74771e-05
1.9439e-06
4.09376e-08
3.67724e-07
8.46037e-07
1.42422e-06
2.07592e-06
2.78377e-06
3.5345e-06
4.317e-06
5.1214e-06
5.93879e-06
6.76107e-06
7.58104e-06
8.39251e-06
9.19052e-06
9.97147e-06
1.07333e-05
1.14758e-05
1.22004e-05
1.29108e-05
1.36125e-05
1.43132e-05
1.50231e-05
1.57546e-05
1.65225e-05
1.73445e-05
1.82409e-05
1.92353e-05
2.03545e-05
2.16291e-05
2.30935e-05
2.47869e-05
2.67529e-05
2.90406e-05
3.17045e-05
3.48051e-05
3.84095e-05
4.25909e-05
4.74295e-05
5.30125e-05
5.94338e-05
6.67941e-05
7.52009e-05
8.4768e-05
9.56152e-05
0.000107868
0.000121656
0.000137116
0.000154384
0.000173602
0.000194911
0.000218453
0.000244366
0.000272783
0.000303826
0.000337606
0.000374212
0.00041371
0.000456138
0.000501491
0.000549724
0.000600739
0.000654384
0.000710443
0.000768641
0.000828637
0.000890035
0.000952385
0.0010152
0.00107796
0.00114014
0.00120124
0.00126078
0.00131834
0.00137358
0.00142624
0.00147616
0.00152331
0.00156773
0.00160957
0.00164907
0.00168654
0.00172231
0.00175678
0.00179033
0.00182333
0.00185614
0.00188903
0.00192224
0.00195597
0.0019903
0.00202528
0.00206087
0.00209693
0.00213329
0.00216967
0.00220573
0.00224106
0.00227518
0.00230753
0.00233748
0.00236432
0.00238727
0.0024055
0.002417
0.0024216
0.00242113
0.00241065
0.00238973
0.0023576
0.00231334
0.00225613
0.00218536
0.00210072
0.00200228
0.00189064
0.00176697
0.00163306
0.00149128
0.00134454
0.00119607
0.00104927
0.000907437
0.000773479
0.000649727
0.000537775
0.000438423
0.000351722
0.000277099
0.00021352
0.000159696
0.000114282
7.60909e-05
4.4355e-05
1.9107e-05
2.12493e-06
4.52949e-08
4.06908e-07
9.36377e-07
1.57664e-06
2.29856e-06
3.08289e-06
3.91488e-06
4.78209e-06
5.67351e-06
6.57913e-06
7.48985e-06
8.39757e-06
9.29536e-06
1.01776e-05
1.10403e-05
1.18812e-05
1.26999e-05
1.34983e-05
1.42803e-05
1.50521e-05
1.58226e-05
1.66029e-05
1.74069e-05
1.82513e-05
1.91557e-05
2.01428e-05
2.12387e-05
2.24736e-05
2.38813e-05
2.55004e-05
2.73746e-05
2.95525e-05
3.20892e-05
3.50456e-05
3.84897e-05
4.24965e-05
4.71485e-05
5.2536e-05
5.87571e-05
6.59177e-05
7.41316e-05
8.35201e-05
9.42119e-05
0.000106342
0.000120053
0.000135492
0.00015281
0.000172163
0.000193709
0.000217605
0.000244006
0.000273064
0.000304918
0.000339697
0.000377508
0.000418433
0.00046252
0.000509778
0.000560165
0.000613581
0.000669865
0.000728785
0.000790035
0.000853238
0.000917946
0.000983651
0.00104979
0.00111579
0.00118102
0.00124492
0.00130692
0.00136654
0.00142339
0.00147716
0.00152769
0.00157493
0.00161894
0.00165991
0.00169813
0.00173396
0.00176782
0.00180014
0.00183141
0.00186205
0.00189247
0.00192301
0.00195396
0.00198552
0.00201784
0.00205098
0.00208492
0.00211959
0.00215481
0.00219038
0.002226
0.00226134
0.00229599
0.0023295
0.00236134
0.00239094
0.00241765
0.00244076
0.00245947
0.00247232
0.00247814
0.0024791
0.00247143
0.00245362
0.00242509
0.00238483
0.0023319
0.00226549
0.00218506
0.00209037
0.0019817
0.0018599
0.00172645
0.00158354
0.00143393
0.00128091
0.00112805
0.000978936
0.00083688
0.000704648
0.000584257
0.000476867
0.000382795
0.000301621
0.000232369
0.000173724
0.000124262
8.2701e-05
4.81938e-05
2.07569e-05
2.30819e-06
4.98583e-08
4.47942e-07
1.03098e-06
1.73624e-06
2.53168e-06
3.39609e-06
4.31312e-06
5.26899e-06
6.25142e-06
7.24923e-06
8.25227e-06
9.25148e-06
1.02391e-05
1.12089e-05
1.21565e-05
1.30792e-05
1.39767e-05
1.48511e-05
1.57069e-05
1.6551e-05
1.73932e-05
1.8246e-05
1.91249e-05
2.00483e-05
2.10379e-05
2.21191e-05
2.33209e-05
2.46765e-05
2.62237e-05
2.80052e-05
3.00694e-05
3.24708e-05
3.52702e-05
3.85358e-05
4.23434e-05
4.67768e-05
5.19282e-05
5.78988e-05
6.47984e-05
7.27459e-05
8.1869e-05
9.2304e-05
0.000104195
0.000117695
0.000132963
0.000150162
0.000169465
0.000191042
0.000215068
0.000241717
0.000271157
0.000303547
0.000339034
0.000377745
0.000419779
0.000465201
0.000514032
0.00056624
0.00062173
0.000680334
0.00074181
0.000805829
0.000871981
0.000939773
0.00100864
0.00107795
0.00114705
0.00121526
0.00128189
0.00134631
0.00140798
0.00146643
0.00152132
0.00157244
0.00161975
0.00166331
0.00170335
0.0017402
0.00177429
0.00180608
0.00183612
0.00186492
0.00189299
0.00192079
0.00194872
0.00197711
0.0020062
0.00203614
0.00206704
0.0020989
0.00213165
0.00216516
0.00219924
0.00223365
0.0022681
0.00230225
0.00233573
0.00236813
0.00239897
0.00242774
0.00245389
0.00247675
0.00249559
0.00250952
0.00251664
0.0025187
0.0025139
0.00249942
0.00247482
0.00243911
0.00239118
0.00233009
0.00225504
0.0021655
0.00206138
0.00194316
0.00181198
0.00166972
0.00151895
0.00136291
0.00120526
0.00104986
0.000900409
0.000760124
0.000631493
0.000516094
0.000414571
0.000326713
0.000251642
0.000188042
0.000134427
8.94208e-05
5.20912e-05
2.24311e-05
2.49414e-06
5.46383e-08
4.90922e-07
1.13006e-06
1.90339e-06
2.77583e-06
3.72407e-06
4.73013e-06
5.77875e-06
6.85632e-06
7.95043e-06
9.04979e-06
1.01443e-05
1.12254e-05
1.22862e-05
1.33216e-05
1.43289e-05
1.53079e-05
1.62607e-05
1.71925e-05
1.81109e-05
1.90269e-05
1.99544e-05
2.09105e-05
2.19155e-05
2.29936e-05
2.41727e-05
2.54848e-05
2.69667e-05
2.86601e-05
3.06122e-05
3.28767e-05
3.55138e-05
3.85909e-05
4.21838e-05
4.63766e-05
5.12625e-05
5.69443e-05
6.35345e-05
7.11559e-05
7.9941e-05
9.00326e-05
0.000101583
0.000114753
0.000129713
0.000146641
0.000165718
0.000187134
0.000211079
0.000237742
0.000267312
0.000299968
0.000335875
0.000375181
0.000418005
0.000464432
0.000514498
0.000568185
0.000625408
0.000686002
0.000749716
0.000816209
0.000885043
0.000955686
0.00102752
0.00109986
0.00117196
0.00124307
0.00131241
0.00137929
0.00144305
0.00150317
0.00155925
0.00161105
0.0016585
0.00170168
0.00174084
0.00177634
0.00180868
0.00183839
0.00186607
0.00189234
0.00191773
0.00194279
0.00196796
0.0019936
0.00202003
0.0020474
0.00207581
0.00210531
0.00213582
0.00216725
0.00219941
0.00223209
0.00226505
0.00229799
0.00233059
0.00236254
0.00239345
0.00242292
0.00245048
0.00247565
0.00249788
0.00251656
0.00253103
0.00253954
0.00254264
0.00254064
0.0025296
0.00250906
0.0024782
0.00243575
0.00238063
0.00231184
0.00222854
0.00213029
0.00201715
0.00188987
0.00174994
0.00159965
0.0014421
0.00128097
0.00112031
0.000964196
0.00081631
0.000679647
0.000556265
0.000447195
0.000352495
0.00027143
0.000202716
0.000144821
9.62763e-05
5.60608e-05
2.41349e-05
2.68339e-06
5.96469e-08
5.35954e-07
1.23387e-06
2.07851e-06
3.0316e-06
4.06763e-06
5.16688e-06
6.31254e-06
7.48957e-06
8.68425e-06
9.88407e-06
1.10779e-05
1.22561e-05
1.34112e-05
1.45377e-05
1.56326e-05
1.66955e-05
1.77291e-05
1.8739e-05
1.9734e-05
2.0726e-05
2.17303e-05
2.2766e-05
2.38555e-05
2.50254e-05
2.63064e-05
2.77338e-05
2.9348e-05
3.11949e-05
3.33268e-05
3.58025e-05
3.86886e-05
4.20596e-05
4.59992e-05
5.06004e-05
5.59667e-05
6.2212e-05
6.94612e-05
7.78505e-05
8.75274e-05
9.86504e-05
0.000111389
0.000125922
0.000142437
0.000161132
0.000182208
0.000205871
0.00023233
0.000261789
0.000294447
0.000330493
0.000370093
0.000413391
0.00046049
0.00051145
0.000566269
0.000624875
0.000687115
0.000752738
0.000821396
0.000892631
0.000965881
0.00104048
0.0011157
0.00119071
0.00126467
0.00133674
0.00140612
0.00147208
0.001534
0.00159142
0.00164406
0.00169182
0.00173477
0.00177318
0.00180745
0.00183812
0.0018658
0.00189117
0.00191489
0.0019376
0.00195987