/*--------------------------------*- C++ -*----------------------------------*\
  =========                 |
  \\      /  F ield         | OpenFOAM: The Open Source CFD Toolbox
   \\    /   O peration     | Website:  https://openfoam.org
    \\  /    A nd           | Version:  12
     \\/     M anipulation  |
\*---------------------------------------------------------------------------*/
FoamFile
{
    format      ascii;
    class       volScalarField;
    location    "5";
    object      p;
}
// * * * * * * * * * * * * * * * * * * * * * * * * * * * * * * * * * * * * * //

dimensions      [0 2 -2 0 0 0 0];

internalField   nonuniform List<scalar> 
18225
(
-5.79706e-08
9.03717e-06
2.59401e-05
4.70072e-05
6.90968e-05
9.01117e-05
0.000108449
0.000122882
0.00013249
0.000136606
0.000134771
0.000126698
0.000112249
9.14066e-05
6.42606e-05
3.09886e-05
-8.1554e-06
-5.2856e-05
-0.000102748
-0.00015743
-0.000216481
-0.00027947
-0.000345972
-0.000415577
-0.000487889
-0.00056256
-0.000639308
-0.000717939
-0.000798332
-0.000880437
-0.000964281
-0.00104996
-0.00113768
-0.00122769
-0.00132035
-0.00141612
-0.00151552
-0.00161916
-0.00172773
-0.00184202
-0.00196285
-0.00209114
-0.00222786
-0.00237405
-0.00253078
-0.00269918
-0.00288042
-0.0030757
-0.00328627
-0.0035134
-0.0037584
-0.00402258
-0.00430731
-0.00461398
-0.00494398
-0.00529872
-0.00567962
-0.00608807
-0.00652541
-0.00699293
-0.00749179
-0.00802301
-0.00858742
-0.00918557
-0.00981768
-0.0104835
-0.0111825
-0.0119133
-0.0126741
-0.0134621
-0.014274
-0.0151052
-0.0159503
-0.0168029
-0.0176553
-0.0184986
-0.0193228
-0.0201166
-0.0208677
-0.0215625
-0.0221865
-0.0227241
-0.0231592
-0.0234749
-0.0236542
-0.0236799
-0.0235349
-0.0232028
-0.0226682
-0.0219166
-0.0209355
-0.0197143
-0.0182449
-0.0165223
-0.0145448
-0.0123143
-0.00983661
-0.00712631
-0.00420071
-0.00107173
0.00223062
0.00566866
0.0092088
0.0128085
0.0164212
0.0199974
0.0234852
0.0268324
0.0299874
0.0329018
0.0355318
0.0378408
0.0398006
0.0413936
0.0426132
0.043465
0.0439659
0.0441438
0.0440356
0.0436855
0.0431419
0.0424554
0.0416757
0.0408493
0.0400181
0.0392179
0.038478
0.0378213
0.0372655
0.0368226
0.0365013
0.0363064
0.0362361
0.0362774
0.0363767
6.22607e-07
8.75082e-06
2.3835e-05
4.27548e-05
6.26455e-05
8.157e-05
9.80179e-05
0.000110812
0.000119054
0.000122082
0.000119432
0.000110809
9.60577e-05
7.51442e-05
4.81371e-05
1.51919e-05
-2.34615e-05
-6.75321e-05
-0.00011668
-0.000170528
-0.000228679
-0.000290727
-0.000356269
-0.000424913
-0.000496285
-0.000570048
-0.000645938
-0.000723771
-0.000803436
-0.000884889
-0.000968158
-0.00105335
-0.00114063
-0.00123029
-0.00132267
-0.00141819
-0.00151738
-0.00162083
-0.00172921
-0.00184328
-0.00196385
-0.0020918
-0.00222807
-0.00237368
-0.00252967
-0.00269713
-0.00287722
-0.00307108
-0.00327995
-0.00350506
-0.00374767
-0.0040091
-0.00429067
-0.00459373
-0.00491964
-0.0052698
-0.00564558
-0.00604833
-0.00647938
-0.00693997
-0.00743127
-0.00795429
-0.0085098
-0.00909835
-0.00972017
-0.0103751
-0.0110625
-0.0117811
-0.0125291
-0.013304
-0.0141023
-0.0149197
-0.015751
-0.0165897
-0.0174284
-0.0182583
-0.0190698
-0.0198517
-0.0205919
-0.0212769
-0.0218925
-0.0224234
-0.0228536
-0.0231665
-0.0233452
-0.0233727
-0.0232321
-0.0229072
-0.0223826
-0.0216439
-0.0206788
-0.0194767
-0.0180297
-0.0163325
-0.0143835
-0.0121845
-0.00974121
-0.00706929
-0.00418384
-0.00109374
0.00216349
0.00555612
0.00905035
0.0126041
0.0161714
0.0197036
0.0231499
0.0264587
0.0295796
0.032465
0.0350721
0.0373649
0.039316
0.0409081
0.0421351
0.0430022
0.0435261
0.0437341
0.0436622
0.0433532
0.0428545
0.042215
0.0414828
0.0407032
0.0399167
0.0391579
0.038455
0.0378302
0.0373004
0.0368769
0.0365672
0.036375
0.0362973
0.0363231
0.0364074
-4.18872e-07
7.10854e-06
2.06242e-05
3.75299e-05
5.52612e-05
7.20664e-05
8.65579e-05
9.76288e-05
0.000104417
0.000106276
0.000102742
9.35122e-05
7.84199e-05
5.74131e-05
3.05395e-05
-2.06857e-06
-4.02063e-05
-8.36084e-05
-0.000131961
-0.000184915
-0.000242097
-0.000303126
-0.000367624
-0.00043522
-0.000505557
-0.000578316
-0.000653247
-0.000730178
-0.000809009
-0.000889702
-0.000972287
-0.00105687
-0.00114362
-0.00123281
-0.00132477
-0.00141992
-0.00151876
-0.00162188
-0.0017299
-0.00184358
-0.00196367
-0.00209106
-0.00222665
-0.0023714
-0.00252634
-0.00269252
-0.00287105
-0.00306306
-0.00326974
-0.00349228
-0.00373192
-0.00398993
-0.00426759
-0.00456623
-0.00488719
-0.00523179
-0.0056014
-0.00599732
-0.00642088
-0.00687331
-0.00735572
-0.00786908
-0.00841421
-0.00899166
-0.00960166
-0.0102441
-0.0109183
-0.0116232
-0.0123571
-0.0131174
-0.0139009
-0.0147034
-0.0155199
-0.016344
-0.0171685
-0.0179851
-0.018784
-0.0195545
-0.0202845
-0.0209611
-0.02157
-0.0220963
-0.0225241
-0.022837
-0.0230183
-0.0230511
-0.0229188
-0.0226052
-0.0220948
-0.0213737
-0.0204292
-0.0192509
-0.0178308
-0.0161636
-0.0142476
-0.0120845
-0.00967976
-0.00705034
-0.0042049
-0.00115833
0.00205124
0.00539758
0.00884528
0.012353
0.0158756
0.0193651
0.0227716
0.0260443
0.0291336
0.0319927
0.0345795
0.0368588
0.0388035
0.0403967
0.0416324
0.0425157
0.0430632
0.0433013
0.0432654
0.0429973
0.0425432
0.0419507
0.0412666
0.0405346
0.0397941
0.0390784
0.0384147
0.0378238
0.0373219
0.0369195
0.0366229
0.0364346
0.0363511
0.0363657
0.0364445
-3.7378e-06
3.86809e-06
1.65385e-05
3.20816e-05
4.82335e-05
6.3407e-05
7.63372e-05
8.59968e-05
9.15706e-05
9.24349e-05
8.81367e-05
7.8372e-05
6.29662e-05
4.18555e-05
1.50721e-05
-1.72697e-05
-5.49851e-05
-9.783e-05
-0.000145512
-0.000197703
-0.000254052
-0.000314198
-0.000377784
-0.000444454
-0.000513866
-0.000585716
-0.000659767
-0.000735858
-0.000813896
-0.000893846
-0.000975743
-0.00105969
-0.00114585
-0.00123449
-0.00132594
-0.0014206
-0.00151895
-0.00162156
-0.00172905
-0.00184213
-0.00196155
-0.00208816
-0.00222282
-0.00236648
-0.00252012
-0.00268477
-0.0028615
-0.00305141
-0.00325565
-0.00347538
-0.00371181
-0.00396618
-0.00423973
-0.00453376
-0.00484957
-0.00518847
-0.00555176
-0.00594081
-0.00635686
-0.00680111
-0.0072747
-0.0077786
-0.00831362
-0.00888036
-0.00947908
-0.0101097
-0.0107717
-0.0114641
-0.0121851
-0.0129325
-0.0137031
-0.0144929
-0.015297
-0.0161095
-0.0169231
-0.0177297
-0.0185199
-0.0192832
-0.0200076
-0.0206803
-0.0212875
-0.0218141
-0.0222447
-0.0225627
-0.0227517
-0.0227948
-0.0226754
-0.0223773
-0.0218851
-0.0211848
-0.0202636
-0.019111
-0.0177189
-0.0160819
-0.014198
-0.012069
-0.00970029
-0.00710698
-0.00429605
-0.00128966
0.00188208
0.00519132
0.0086027
0.0120756
0.0155654
0.0190246
0.0224039
0.0256531
0.0287229
0.031567
0.0341436
0.0364175
0.0383621
0.0399604
0.0412061
0.0421045
0.0426716
0.0429338
0.0429259
0.0426891
0.0422691
0.0417126
0.0410657
0.0403713
0.0396676
0.038987
0.0383557
0.0377937
0.0373158
0.0369318
0.0366471
0.0364637
0.0363786
0.0363901
0.0364725
-9.05098e-06
-7.14895e-07
1.17191e-05
2.64261e-05
4.14719e-05
5.54193e-05
6.71215e-05
7.56354e-05
8.01989e-05
8.02195e-05
7.52594e-05
6.50196e-05
4.93232e-05
2.80993e-05
1.36878e-06
-3.07674e-05
-6.814e-05
-0.000110521
-0.000157637
-0.000209176
-0.000264804
-0.00032418
-0.00038696
-0.000452802
-0.000521379
-0.000592396
-0.000665627
-0.00074092
-0.000818188
-0.000897401
-0.000978592
-0.00106186
-0.00114738
-0.0012354
-0.00132623
-0.00142027
-0.001518
-0.00161994
-0.00172672
-0.00183902
-0.00195756
-0.00208315
-0.00221666
-0.00235898
-0.00251108
-0.00267395
-0.00284862
-0.00303617
-0.00323772
-0.00345439
-0.00368735
-0.00393782
-0.00420701
-0.00449618
-0.00480661
-0.0051396
-0.00549643
-0.00587843
-0.00628684
-0.00672285
-0.0071876
-0.00768212
-0.00820723
-0.00876356
-0.00935146
-0.00997092
-0.0106215
-0.0113023
-0.0120119
-0.0127479
-0.0135075
-0.0142869
-0.0150813
-0.015885
-0.016691
-0.0174914
-0.018277
-0.0190374
-0.0197609
-0.0204348
-0.0210454
-0.0215779
-0.0220166
-0.0223453
-0.0225474
-0.0226061
-0.0225047
-0.0222269
-0.0217572
-0.0210815
-0.0201868
-0.0190625
-0.0177003
-0.0160945
-0.014243
-0.0121472
-0.00981249
-0.00725165
-0.00447435
-0.00150214
0.00163784
0.00491667
0.0082994
0.0117461
0.0152124
0.0186514
0.022014
0.0252503
0.0283112
0.0311504
0.0337262
0.0360034
0.0379549
0.0395635
0.0408229
0.0417378
0.042324
0.0426076
0.0426232
0.042412
0.042019
0.0414909
0.0408734
0.0402088
0.0395347
0.0388829
0.0382787
0.0377413
0.0372842
0.0369166
0.036643
0.0364651
0.0363808
0.0363935
0.0364829
-1.58205e-05
-6.34939e-06
6.30522e-06
2.05709e-05
3.48651e-05
4.78939e-05
5.8624e-05
6.6197e-05
6.99079e-05
6.92002e-05
6.36557e-05
5.29855e-05
3.7014e-05
1.56673e-05
-1.10411e-05
-4.302e-05
-8.0112e-05
-0.000122103
-0.000168731
-0.000219701
-0.000274695
-0.000333382
-0.000395433
-0.000460518
-0.000528319
-0.000598552
-0.000670998
-0.000745514
-0.000822017
-0.000900481
-0.000980937
-0.00106349
-0.00114829
-0.0012356
-0.00132571
-0.00141902
-0.00151598
-0.00161711
-0.00172301
-0.00183432
-0.00195179
-0.00207616
-0.00220829
-0.00234905
-0.00249936
-0.00266019
-0.00283255
-0.00301747
-0.00321605
-0.00342937
-0.00365859
-0.00390486
-0.0041694
-0.00445343
-0.0047582
-0.005085
-0.00543512
-0.00580981
-0.00621035
-0.00663797
-0.00709381
-0.00757893
-0.00809422
-0.00864037
-0.00921782
-0.00982667
-0.0104666
-0.0111369
-0.0118362
-0.0125625
-0.0133131
-0.0140843
-0.0148717
-0.0156696
-0.0164716
-0.0172697
-0.0180549
-0.018817
-0.0195446
-0.0202251
-0.0208447
-0.0213886
-0.0218413
-0.0221866
-0.0224076
-0.0224875
-0.0224094
-0.022157
-0.0217146
-0.0210677
-0.0202034
-0.0191106
-0.0177808
-0.0162082
-0.0143902
-0.012328
-0.0100269
-0.00749795
-0.00475268
-0.00181127
0.00130039
0.00455308
0.0079123
0.0113387
0.0147885
0.0182147
0.0215687
0.0248006
0.0278614
0.0307048
0.0332886
0.0355773
0.0375434
0.0391691
0.0404475
0.0413829
0.0419907
0.0422967
0.0423352
0.0421473
0.0417781
0.0412744
0.0406816
0.040042
0.0393929
0.0387655
0.0381846
0.0376686
0.03723
0.0368771
0.0366138
0.0364418
0.0363597
0.0363748
0.0364706
-2.36449e-05
-1.27596e-05
4.59104e-07
1.46019e-05
2.84381e-05
4.08081e-05
5.07869e-05
5.75981e-05
6.05957e-05
5.92613e-05
5.32012e-05
4.2139e-05
2.59052e-05
4.42559e-06
-2.22896e-05
-5.4156e-05
-9.10246e-05
-0.000132691
-0.000178905
-0.000229382
-0.000283816
-0.000341888
-0.000403278
-0.000467668
-0.000534745
-0.000604234
-0.000675925
-0.000749679
-0.000825416
-0.000903114
-0.000982803
-0.00106458
-0.00114861
-0.00123512
-0.00132442
-0.00141687
-0.00151293
-0.00161309
-0.00171794
-0.00182811
-0.0019443
-0.00206725
-0.00219779
-0.00233675
-0.00248504
-0.00264359
-0.00281338
-0.00299542
-0.00319076
-0.00340046
-0.00362565
-0.00386746
-0.00412707
-0.00440569
-0.00470454
-0.00502489
-0.00536802
-0.00573521
-0.00612774
-0.00654687
-0.00699379
-0.0074696
-0.00797528
-0.00851161
-0.00907915
-0.00967814
-0.0103085
-0.0109695
-0.0116602
-0.0123787
-0.0131226
-0.0138884
-0.0146719
-0.0154678
-0.0162697
-0.01707
-0.0178598
-0.0186291
-0.0193664
-0.0200593
-0.0206939
-0.0212556
-0.0217286
-0.0220966
-0.0223426
-0.0224496
-0.0224006
-0.0221788
-0.0217685
-0.0211548
-0.0203247
-0.0192667
-0.017972
-0.0164346
-0.0146516
-0.0126239
-0.0103564
-0.0078592
-0.00514454
-0.00223173
0.000854239
0.00408421
0.00742406
0.0108352
0.0142742
0.0176942
0.0210468
0.0242822
0.0273513
0.0302074
0.032808
0.0351169
0.0371058
0.0387563
0.0400606
0.0410221
0.0416559
0.0419871
0.04205
0.0418856
0.0415393
0.0410577
0.0404868
0.0398689
0.0392413
0.038635
0.0380743
0.0375768
0.0371547
0.0368149
0.0365611
0.0363948
0.0363151
0.0363325
0.0364325
-3.21943e-05
-1.97005e-05
-5.65755e-06
8.62458e-06
2.22521e-05
3.41898e-05
4.36134e-05
4.98246e-05
5.22354e-05
5.03678e-05
4.38545e-05
3.24353e-05
1.59494e-05
-5.67406e-06
-3.24251e-05
-6.4223e-05
-0.000100924
-0.00014233
-0.000188199
-0.000238256
-0.000292202
-0.000349728
-0.000410524
-0.000474275
-0.000540677
-0.000609461
-0.000680422
-0.000753425
-0.000828395
-0.000905309
-0.000984197
-0.00106515
-0.00114833
-0.00123397
-0.00132235
-0.00141384
-0.00150886
-0.00160791
-0.00171155
-0.0018204
-0.00193513
-0.00205647
-0.0021852
-0.00232215
-0.0024682
-0.00262423
-0.00279122
-0.00297013
-0.00316198
-0.00336782
-0.00358873
-0.00382582
-0.00408025
-0.0043532
-0.00464591
-0.0049596
-0.00529559
-0.00565516
-0.00603963
-0.0064503
-0.00688841
-0.00735517
-0.00785164
-0.00837874
-0.00893719
-0.00952742
-0.0101495
-0.010803
-0.0114872
-0.0122004
-0.0129405
-0.0137043
-0.0144879
-0.0152861
-0.0160928
-0.0169005
-0.0177005
-0.0184829
-0.0192363
-0.0199481
-0.0206045
-0.0211906
-0.0216906
-0.0220879
-0.0223652
-0.0225054
-0.022491
-0.0223051
-0.0219315
-0.0213553
-0.0205629
-0.0195427
-0.0182857
-0.0167854
-0.0150387
-0.0130462
-0.0108123
-0.00834657
-0.00566135
-0.00277526
0.000287435
0.00349785
0.00682222
0.0102227
0.0136563
0.0170764
0.0204344
0.0236809
0.0267665
0.0296439
0.0322702
0.0346081
0.0366286
0.0383121
0.0396498
0.0406442
0.0413095
0.0416703
0.0417606
0.0416213
0.0412981
0.040838
0.0402874
0.0396889
0.0390801
0.038492
0.0379487
0.0374674
0.0370594
0.0367312
0.0364859
0.0363246
0.0362471
0.0362655
0.0363672
-4.11565e-05
-2.69457e-05
-1.18919e-05
2.73954e-06
1.63663e-05
2.80657e-05
3.7105e-05
4.28593e-05
4.47963e-05
4.24787e-05
3.55673e-05
2.38207e-05
7.08944e-06
-1.46907e-05
-4.15075e-05
-7.328e-05
-0.000109867
-0.000151075
-0.000196666
-0.000246371
-0.000299898
-0.000356946
-0.000417207
-0.000480374
-0.000546146
-0.000614259
-0.000684512
-0.000756775
-0.000830973
-0.000907083
-0.000985134
-0.00106522
-0.00114749
-0.00123216
-0.00131953
-0.00140994
-0.0015038
-0.0016016
-0.00170388
-0.00181124
-0.00192434
-0.00204387
-0.0021706
-0.00230534
-0.00244892
-0.00260223
-0.00276619
-0.00294174
-0.00312987
-0.00333161
-0.00354801
-0.00378017
-0.0040292
-0.0042963
-0.00458268
-0.00488959
-0.00521835
-0.00557028
-0.00594675
-0.00634911
-0.00677871
-0.00723686
-0.00772477
-0.00824353
-0.00879403
-0.00937693
-0.00999255
-0.0106408
-0.011321
-0.0120321
-0.0127719
-0.0135378
-0.014326
-0.0151316
-0.0159486
-0.0167697
-0.0175863
-0.0183885
-0.0191648
-0.0199026
-0.0205878
-0.0212054
-0.0217392
-0.0221724
-0.0224873
-0.0226665
-0.0226921
-0.0225469
-0.0222145
-0.0216795
-0.020928
-0.0199484
-0.0187311
-0.0172694
-0.0155601
-0.0136032
-0.0114029
-0.00896818
-0.00631124
-0.00345017
-0.000408499
0.00278534
0.0060979
0.00949196
0.0129253
0.0163512
0.0197214
0.0229862
0.026096
0.0290032
0.0316638
0.0340398
0.0361009
0.0378261
0.0392054
0.0402401
0.0409434
0.0413391
0.0414609
0.0413497
0.0410511
0.040613
0.040082
0.0395015
0.0389095
0.0383374
0.037809
0.0373415
0.0369456
0.0366273
0.0363891
0.036232
0.0361558
0.0361737
0.0362741
-5.02816e-05
-3.42954e-05
-1.81011e-05
-2.95654e-06
1.08389e-05
2.24619e-05
3.12625e-05
3.66832e-05
3.82441e-05
3.55483e-05
2.82856e-05
1.62352e-05
-7.38445e-07
-2.26905e-05
-4.96036e-05
-8.13941e-05
-0.00011792
-0.000158989
-0.000204367
-0.000253786
-0.000306959
-0.000363589
-0.000423372
-0.000486004
-0.000551187
-0.00061866
-0.000688226
-0.000759754
-0.000833173
-0.000908458
-0.000985638
-0.0010648
-0.00114609
-0.00122973
-0.00131598
-0.0014052
-0.00149778
-0.0015942
-0.00169497
-0.00180068
-0.00191197
-0.00202952
-0.00215407
-0.0022864
-0.00242732
-0.00257769
-0.00273841
-0.00291039
-0.00309461
-0.00329204
-0.00350373
-0.00373076
-0.00397423
-0.00423533
-0.00451528
-0.00481535
-0.00513689
-0.00548127
-0.00584992
-0.0062443
-0.00666588
-0.0071161
-0.00759636
-0.00810795
-0.00865201
-0.00922945
-0.00984087
-0.0104865
-0.011166
-0.0118785
-0.0126223
-0.013395
-0.014193
-0.0150117
-0.0158452
-0.0166864
-0.0175265
-0.0183556
-0.0191622
-0.0199333
-0.0206546
-0.0213107
-0.0218852
-0.0223606
-0.0227192
-0.0229428
-0.0230134
-0.0229134
-0.0226259
-0.0221353
-0.0214275
-0.0204905
-0.0193146
-0.0178928
-0.0162215
-0.0143005
-0.0121336
-0.00972929
-0.00709953
-0.00426192
-0.00123925
0.00194065
0.00524471
0.0086362
0.0120737
0.0155108
0.0188991
0.022189
0.0253306
0.0282755
0.0309791
0.033402
0.0355126
0.0372886
0.0387182
0.0398014
0.04055
0.0409872
0.0411457
0.0410664
0.0407953
0.0403805
0.0398695
0.0393064
0.03873
0.0381719
0.0376564
0.0372006
0.0368148
0.0365046
0.036272
0.0361178
0.0360418
0.0360572
0.0361534
-5.93453e-05
-4.15698e-05
-2.41532e-05
-8.37219e-06
5.72723e-06
1.74066e-05
2.60909e-05
3.1282e-05
3.255e-05
2.95363e-05
2.19606e-05
9.62364e-06
-7.59395e-06
-2.97362e-05
-5.67775e-05
-8.86293e-05
-0.000125146
-0.000166135
-0.00021136
-0.000260556
-0.000313437
-0.000369707
-0.000429065
-0.000491208
-0.00055584
-0.0006227
-0.000691593
-0.000762392
-0.000835023
-0.000909461
-0.000985732
-0.00106392
-0.00114417
-0.00122669
-0.00131174
-0.00139966
-0.00149084
-0.00158574
-0.00168486
-0.00178878
-0.0018981
-0.0020135
-0.00213569
-0.00226542
-0.0024035
-0.00255075
-0.00270804
-0.00287627
-0.00305637
-0.00324932
-0.00345614
-0.00367789
-0.00391569
-0.00417071
-0.00444419
-0.00473745
-0.00505187
-0.00538891
-0.00575009
-0.006137
-0.00655125
-0.00699448
-0.0074683
-0.00797425
-0.00851375
-0.00908801
-0.00969797
-0.0103442
-0.0110267
-0.011745
-0.0124976
-0.0132825
-0.0140962
-0.0149343
-0.0157911
-0.0166594
-0.0175304
-0.0183939
-0.0192382
-0.02005
-0.0208146
-0.0215162
-0.0221378
-0.0226616
-0.0230693
-0.0233423
-0.0234622
-0.0234111
-0.0231717
-0.0227282
-0.0220662
-0.0211735
-0.0200401
-0.0186589
-0.0170261
-0.015141
-0.0130074
-0.0106329
-0.00802944
-0.00521397
-0.00220863
0.000959466
0.00425775
0.00764988
0.0110953
0.0145483
0.01796
0.021281
0.0244612
0.0274514
0.0302061
0.0326848
0.0348541
0.0366901
0.0381792
0.0393198
0.0401221
0.0406079
0.0408096
0.0407674
0.0405275
0.0401386
0.0396489
0.0391035
0.0385419
0.0379966
0.0374923
0.037046
0.0366684
0.0363644
0.0361358
0.035983
0.0359057
0.0359166
0.0360059
-6.81614e-05
-4.86135e-05
-2.99286e-05
-1.34205e-05
1.08801e-06
1.2931e-05
2.15986e-05
2.66466e-05
2.76903e-05
2.44079e-05
1.65486e-05
3.93597e-06
-1.35317e-05
-3.58852e-05
-6.30884e-05
-9.50453e-05
-0.000131605
-0.00017257
-0.000217702
-0.000266734
-0.000319381
-0.000375346
-0.000434329
-0.000496025
-0.000560139
-0.000626412
-0.000694647
-0.000764717
-0.000836549
-0.000910116
-0.000985442
-0.00106261
-0.00114175
-0.00122307
-0.00130683
-0.00139336
-0.00148303
-0.00157628
-0.00167362
-0.00177559
-0.0018828
-0.00199588
-0.00211555
-0.00224253
-0.00237759
-0.00252154
-0.00267523
-0.00283954
-0.00301538
-0.0032037
-0.00340553
-0.0036219
-0.00385396
-0.00410288
-0.00436994
-0.00465651
-0.00496405
-0.00529411
-0.00564833
-0.00602847
-0.00643633
-0.00687377
-0.00734267
-0.00784485
-0.00838207
-0.0089559
-0.00956763
-0.0102182
-0.010908
-0.0116369
-0.0124038
-0.0132067
-0.0140426
-0.0149071
-0.0157944
-0.0166972
-0.0176066
-0.0185122
-0.0194017
-0.0202615
-0.0210764
-0.02183
-0.0225047
-0.0230823
-0.023544
-0.0238707
-0.0240436
-0.0240444
-0.0238556
-0.0234611
-0.0228465
-0.0219992
-0.0209092
-0.0195692
-0.017975
-0.016126
-0.0140254
-0.0116805
-0.00910265
-0.00630846
-0.00331929
-0.000161495
0.00313298
0.0065282
0.00998461
0.0134571
0.0168968
0.0202542
0.0234791
0.0265218
0.0293355
0.0318784
0.0341156
0.0360211
0.0375794
0.0387869
0.039652
0.0401951
0.0404472
0.0404484
0.0402447
0.0398852
0.0394191
0.0388924
0.0383456
0.0378122
0.0373176
0.0368793
0.0365078
0.0362081
0.0359817
0.0358287
0.0357485
0.035753
0.0358328
-7.65677e-05
-5.52883e-05
-3.53181e-05
-1.8021e-05
-3.02451e-06
9.06633e-06
1.77972e-05
2.27719e-05
2.36463e-05
2.01337e-05
1.20118e-05
-8.72085e-07
-1.86009e-05
-4.11897e-05
-6.85905e-05
-0.000100697
-0.000137351
-0.000178347
-0.000223444
-0.000272371
-0.000324839
-0.000380552
-0.000439205
-0.000500494
-0.000564122
-0.000629827
-0.000697416
-0.000766758
-0.00083778
-0.000910452
-0.000984796
-0.00106089
-0.00113886
-0.00121892
-0.0013013
-0.00138633
-0.00147438
-0.00156588
-0.0016613
-0.0017612
-0.00186614
-0.00197677
-0.00209376
-0.00221783
-0.00234972
-0.00249023
-0.00264017
-0.00280041
-0.00297186
-0.00315545
-0.00335219
-0.00356314
-0.00378945
-0.00403233
-0.00429311
-0.00457323
-0.00487424
-0.00519782
-0.00554579
-0.00592008
-0.00632273
-0.00675587
-0.00722169
-0.00772237
-0.00826003
-0.00883662
-0.00945386
-0.0101131
-0.0108151
-0.01156
-0.0123471
-0.0131746
-0.0140395
-0.0149375
-0.0158628
-0.0168078
-0.0177634
-0.0187185
-0.0196606
-0.0205753
-0.021447
-0.0222586
-0.0229919
-0.023628
-0.0241477
-0.0245316
-0.0247603
-0.0248153
-0.024679
-0.024335
-0.0237687
-0.0229676
-0.0219215
-0.0206231
-0.0190679
-0.0172551
-0.0151875
-0.0128721
-0.0103198
-0.00754658
-0.00457308
-0.00142487
0.00186698
0.00526699
0.00873643
0.0122311
0.0157025
0.0191009
0.022376
0.0254775
0.0283576
0.0309732
0.0332874
0.0352722
0.03691
0.0381946
0.0391324
0.039742
0.0400532
0.0401051
0.0399436
0.0396182
0.0391789
0.0386727
0.0381414
0.0376196
0.0371336
0.0367016
0.0363344
0.0360371
0.035811
0.035656
0.0355711
0.0355673
0.0356355
-8.44316e-05
-6.1476e-05
-4.02246e-05
-2.20995e-05
-6.55782e-06
5.84418e-06
1.47001e-05
1.96555e-05
2.04027e-05
1.66877e-05
8.31605e-06
-4.84094e-06
-2.28462e-05
-4.5698e-05
-7.33339e-05
-0.000105635
-0.000142434
-0.000183517
-0.000228635
-0.000277512
-0.000329856
-0.000385364
-0.000443732
-0.00050465
-0.00056782
-0.000632979
-0.000699931
-0.000768544
-0.000838742
-0.000910495
-0.000983821
-0.00105879
-0.00113554
-0.00121425
-0.00129518
-0.00137862
-0.00146495
-0.00155457
-0.00164797
-0.00174566
-0.00184822
-0.00195626
-0.00207044
-0.00219145
-0.00232004
-0.00245696
-0.00260303
-0.0027591
-0.00292605
-0.00310484
-0.00329646
-0.00350199
-0.00372261
-0.00395959
-0.00421432
-0.00448833
-0.00478331
-0.00510109
-0.00544369
-0.00581328
-0.00621217
-0.00664283
-0.00710777
-0.00760959
-0.00815081
-0.00873383
-0.00936079
-0.0100334
-0.010753
-0.0115198
-0.0123335
-0.0131925
-0.0140937
-0.0150328
-0.0160037
-0.0169986
-0.0180078
-0.0190198
-0.0200214
-0.0209976
-0.0219319
-0.0228067
-0.0236031
-0.0243018
-0.0248828
-0.0253265
-0.0256132
-0.0257241
-0.0256414
-0.0253488
-0.0248316
-0.0240772
-0.0230754
-0.0218188
-0.0203029
-0.0185266
-0.0164925
-0.014207
-0.0116807
-0.00892878
-0.00597117
-0.00283259
0.000456954
0.00386258
0.00734625
0.0108649
0.0143708
0.0178139
0.0211439
0.02431
0.0272636
0.0299599
0.0323602
0.0344343
0.0361619
0.0375344
0.0385557
0.0392421
0.0396218
0.0397329
0.0396207
0.0393351
0.0389267
0.0384437
0.0379292
0.0374192
0.0369411
0.036514
0.0361494
0.0358525
0.0356247
0.0354658
0.0353746
0.0353609
0.0354155
-9.1637e-05
-6.70721e-05
-4.45605e-05
-2.55877e-05
-9.4631e-06
3.29538e-06
1.23221e-05
1.72979e-05
1.79482e-05
1.40487e-05
5.43236e-06
-8.00588e-06
-2.63077e-05
-4.94531e-05
-7.73635e-05
-0.000109907
-0.000146901
-0.000188125
-0.000233319
-0.0002822
-0.00033447
-0.000389822
-0.000447946
-0.000508528
-0.000571267
-0.000635897
-0.000702219
-0.0007701
-0.000839462
-0.000910272
-0.000982546
-0.00105635
-0.00113182
-0.00120912
-0.00128851
-0.00137028
-0.00145479
-0.00154244
-0.0016337
-0.00172907
-0.00182912
-0.00193444
-0.00204569
-0.00216353
-0.00228868
-0.00242192
-0.00256402
-0.00271582
-0.00287823
-0.00305217
-0.00323868
-0.00343886
-0.00365393
-0.00388523
-0.00413424
-0.00440262
-0.00469221
-0.00500504
-0.00534337
-0.00570965
-0.00610651
-0.00653679
-0.00700342
-0.00750941
-0.00805776
-0.00865132
-0.00929269
-0.00998404
-0.0107269
-0.0115221
-0.0123692
-0.0132667
-0.0142117
-0.0151995
-0.0162237
-0.0172759
-0.018346
-0.0194218
-0.0204892
-0.0215325
-0.0225347
-0.0234772
-0.0243405
-0.0251048
-0.0257497
-0.026255
-0.0266012
-0.0267691
-0.0267409
-0.0265002
-0.0260324
-0.0253251
-0.024368
-0.0231536
-0.0216775
-0.0199384
-0.0179384
-0.0156837
-0.0131843
-0.0104547
-0.0075139
-0.00438575
-0.00109908
0.00231208
0.00581035
0.00935394
0.012896
0.0163868
0.0197757
0.0230117
0.026045
0.0288297
0.0313251
0.0334983
0.0353265
0.0367982
0.0379143
0.0386887
0.0391474
0.0393271
0.0392725
0.0390332
0.0386607
0.0382044
0.0377088
0.0372113
0.0367408
0.0363175
0.0359537
0.0356554
0.035424
0.0352593
0.03516
0.0351347
0.0351741
-9.80901e-05
-7.19881e-05
-4.82484e-05
-2.84232e-05
-1.16941e-05
1.45067e-06
1.06788e-05
1.57016e-05
1.62738e-05
1.21984e-05
3.33473e-06
-1.03987e-05
-2.90216e-05
-5.24945e-05
-8.07209e-05
-0.000113553
-0.000150795
-0.000192213
-0.000237537
-0.000286475
-0.000338721
-0.000393961
-0.00045188
-0.000512158
-0.00057449
-0.000638607
-0.000704307
-0.000771453
-0.000839966
-0.00090981
-0.000980997
-0.00105359
-0.00112772
-0.00120355
-0.00128133
-0.00136135
-0.00144395
-0.00152953
-0.00161855
-0.0017115
-0.00180893
-0.00191143
-0.00201963
-0.00213419
-0.00225582
-0.00238527
-0.00252332
-0.00267082
-0.00282864
-0.00299776
-0.00317922
-0.00337417
-0.0035839
-0.00380983
-0.00405356
-0.00431692
-0.00460192
-0.00491085
-0.00524623
-0.00561083
-0.00600769
-0.00644003
-0.00691125
-0.00742485
-0.0079843
-0.00859295
-0.00925385
-0.00996958
-0.010742
-0.0115721
-0.0124597
-0.0134033
-0.0143995
-0.0154435
-0.0165284
-0.0176451
-0.0187829
-0.0199286
-0.0210676
-0.0221832
-0.0232574
-0.0242711
-0.0252044
-0.0260366
-0.026747
-0.0273154
-0.0277218
-0.0279472
-0.0279738
-0.0277853
-0.0273673
-0.0267072
-0.0257951
-0.0246236
-0.023188
-0.021487
-0.0195224
-0.0172999
-0.0148288
-0.012123
-0.00920066
-0.00608447
-0.00280205
0.000613677
0.00412609
0.00769475
0.0112739
0.0148142
0.0182651
0.0215753
0.0246944
0.0275747
0.0301736
0.0324559
0.0343955
0.0359778
0.0372007
0.0380749
0.038624
0.0388827
0.0388948
0.0387096
0.0383791
0.0379537
0.0374796
0.0369958
0.036533
0.0361127
0.0357484
0.0354468
0.0352098
0.0350374
0.0349283
0.0348897
0.0349128
-0.000103708
-7.6145e-05
-5.12184e-05
-3.05487e-05
-1.32076e-05
3.39388e-07
9.78659e-06
1.48715e-05
1.53738e-05
1.11227e-05
2.00172e-06
-1.20464e-05
-3.10193e-05
-5.48565e-05
-8.34426e-05
-0.000116612
-0.000154154
-0.000195818
-0.000241325
-0.000290371
-0.000342641
-0.000397813
-0.000455563
-0.000515568
-0.000577517
-0.000641135
-0.000706218
-0.000772627
-0.000840278
-0.000909132
-0.0009792
-0.00105054
-0.00112328
-0.00119759
-0.00127369
-0.00135188
-0.00143249
-0.00151592
-0.0016026
-0.00169304
-0.00178775
-0.00188733
-0.00199239
-0.00210358
-0.00222161
-0.00234721
-0.00248117
-0.00262432
-0.00277758
-0.00294193
-0.00311846
-0.00330838
-0.00351305
-0.00373402
-0.00397305
-0.00423213
-0.00451352
-0.00481977
-0.00515374
-0.00551858
-0.00591774
-0.00635491
-0.006834
-0.007359
-0.00793392
-0.00856259
-0.00924853
-0.00999467
-0.0108032
-0.0116752
-0.0126105
-0.0136074
-0.0146623
-0.0157698
-0.0169224
-0.0181104
-0.019322
-0.0205433
-0.0217587
-0.0229507
-0.0241004
-0.0251882
-0.0261934
-0.0270951
-0.0278721
-0.0285041
-0.0289712
-0.0292543
-0.0293357
-0.0291995
-0.0288313
-0.0282189
-0.0273523
-0.0262243
-0.0248302
-0.0231685
-0.0212407
-0.0190521
-0.0166114
-0.0139315
-0.0110297
-0.00792765
-0.00465156
-0.00123302
0.0022923
0.00588531
0.00950151
0.0130923
0.0166074
0.0199954
0.0232051
0.0261875
0.0288981
0.0312989
0.0333608
0.0350655
0.0364074
0.0373939
0.0380455
0.0383946
0.0384834
0.0383609
0.0380792
0.03769
0.0372408
0.0367726
0.0363179
0.0359001
0.035534
0.0352273
0.0349829
0.0348009
0.0346805
0.0346271
0.0346329
-0.000108424
-7.94757e-05
-5.34089e-05
-3.19124e-05
-1.39626e-05
-9.65161e-09
9.6627e-06
1.48135e-05
1.5245e-05
1.08096e-05
1.41474e-06
-1.29731e-05
-3.2329e-05
-5.65704e-05
-8.55616e-05
-0.000119118
-0.000157011
-0.000198975
-0.000244717
-0.000293921
-0.00034626
-0.000401405
-0.000459023
-0.000518784
-0.00058037
-0.000643504
-0.000707976
-0.000773643
-0.000840419
-0.000908262
-0.000977181
-0.00104723
-0.00111853
-0.00119125
-0.00126562
-0.00134191
-0.00142046
-0.00150165
-0.00158593
-0.00167376
-0.00176568
-0.00186225
-0.00196409
-0.00207185
-0.00218621
-0.00230791
-0.00243776
-0.00257659
-0.00272533
-0.00288502
-0.00305679
-0.00324195
-0.00344195
-0.00365848
-0.00389348
-0.00414918
-0.00442809
-0.00473311
-0.00506745
-0.00543469
-0.00583876
-0.00628386
-0.00677442
-0.00731499
-0.00791011
-0.0085641
-0.00928089
-0.0100638
-0.0109151
-0.011836
-0.0128262
-0.0138837
-0.0150045
-0.0161825
-0.0174094
-0.0186747
-0.0199656
-0.0212673
-0.0225631
-0.0238348
-0.0250627
-0.0262265
-0.027305
-0.0282769
-0.029121
-0.0298167
-0.0303443
-0.030685
-0.0308212
-0.0307372
-0.0304189
-0.0298545
-0.0290339
-0.0279502
-0.0265988
-0.0249779
-0.0230888
-0.0209361
-0.0185281
-0.0158767
-0.0129981
-0.00991285
-0.00664579
-0.0032269
0.000309342
0.00392511
0.00757739
0.0112187
0.0147991
0.0182675
0.021572
0.0246622
0.0274919
0.0300202
0.0322147
0.0340536
0.0355271
0.0366387
0.0374055
0.0378571
0.0380337
0.0379834
0.0377584
0.0374112
0.0369911
0.0365409
0.0360953
0.0356798
0.0353108
0.0349976
0.0347439
0.0345503
0.0344172
0.0343477
0.0343354
-0.000112177
-8.19197e-05
-5.47636e-05
-3.24662e-05
-1.39211e-05
4.31324e-07
1.03247e-05
1.55357e-05
1.58865e-05
1.12508e-05
1.55933e-06
-1.31986e-05
-3.29742e-05
-5.76627e-05
-8.71063e-05
-0.0001211
-0.000159397
-0.000201714
-0.000247741
-0.000297151
-0.000349605
-0.000404762
-0.000462281
-0.000521826
-0.00058307
-0.000645732
-0.000709597
-0.000774519
-0.000840409
-0.000907221
-0.000974963
-0.00104369
-0.00111351
-0.0011846
-0.00125717
-0.0013315
-0.00140792
-0.00148681
-0.00156859
-0.00165375
-0.0017428
-0.0018363
-0.00193486
-0.00203913
-0.00214979
-0.00226759
-0.00239332
-0.00252788
-0.00267221
-0.00282739
-0.00299465
-0.00317537
-0.00337117
-0.00358389
-0.00381569
-0.00406905
-0.00434682
-0.00465224
-0.00498896
-0.00536105
-0.00577292
-0.00622934
-0.00673532
-0.00729596
-0.00791631
-0.0086012
-0.00935492
-0.010181
-0.0110819
-0.0120588
-0.0131111
-0.0142362
-0.0154297
-0.0166847
-0.0179919
-0.0193398
-0.0207147
-0.0221007
-0.0234801
-0.0248339
-0.0261418
-0.0273827
-0.0285351
-0.0295774
-0.0304885
-0.0312478
-0.0318356
-0.0322334
-0.032424
-0.032392
-0.0321238
-0.0316076
-0.0308338
-0.0297954
-0.0284879
-0.0269095
-0.025061
-0.0229466
-0.0205738
-0.0179537
-0.0151015
-0.0120362
-0.00878135
-0.00536524
-0.00182085
0.00181527
0.00550187
0.00919284
0.0128388
0.0163889
0.0197911
0.022994
0.0259491
0.0286132
0.0309505
0.0329349
0.0345524
0.0358024
0.0366976
0.0372645
0.0375408
0.0375732
0.0374135
0.0371151
0.0367289
0.0362998
0.0358648
0.0354517
0.0350792
0.034758
0.0344932
0.0342864
0.034139
0.0340522
0.0340212
-0.000114918
-8.34252e-05
-5.52326e-05
-3.21657e-05
-1.30467e-05
1.68994e-06
1.17908e-05
1.70475e-05
1.72995e-05
1.24406e-05
2.42333e-06
-1.27396e-05
-3.29758e-05
-5.81568e-05
-8.8102e-05
-0.000122585
-0.000161337
-0.000204059
-0.000250423