/*--------------------------------*- C++ -*----------------------------------*\
  =========                 |
  \\      /  F ield         | OpenFOAM: The Open Source CFD Toolbox
   \\    /   O peration     | Website:  https://openfoam.org
    \\  /    A nd           | Version:  12
     \\/     M anipulation  |
\*---------------------------------------------------------------------------*/
FoamFile
{
    format      ascii;
    class       surfaceScalarField;
    location    "5";
    object      phi;
}
// * * * * * * * * * * * * * * * * * * * * * * * * * * * * * * * * * * * * * //

dimensions      [0 3 -1 0 0 0 0];

internalField   nonuniform List<scalar> 
36180
(
-5.01609e-11
5.11164e-11
-8.39133e-11
3.3729e-11
-5.97537e-11
-2.42129e-11
3.2973e-11
-9.27822e-11
1.93077e-10
-1.60152e-10
4.14813e-10
-2.21773e-10
6.90614e-10
-2.75827e-10
1.01228e-09
-3.21685e-10
1.37154e-09
-3.59264e-10
1.76027e-09
-3.88728e-10
2.17068e-09
-4.10405e-10
2.59541e-09
-4.24712e-10
3.02757e-09
-4.32153e-10
3.46086e-09
-4.3328e-10
3.88957e-09
-4.28708e-10
4.30865e-09
-4.19081e-10
4.71373e-09
-4.0508e-10
5.10112e-09
-3.874e-10
5.46786e-09
-3.66747e-10
5.81167e-09
-3.43817e-10
6.13095e-09
-3.19296e-10
6.42477e-09
-2.93829e-10
6.69279e-09
-2.68029e-10
6.93525e-09
-2.42456e-10
7.15289e-09
-2.17638e-10
7.34696e-09
-1.94053e-10
7.51906e-09
-1.72094e-10
7.67112e-09
-1.52058e-10
7.80529e-09
-1.34174e-10
7.9239e-09
-1.18604e-10
8.02934e-09
-1.05444e-10
8.12406e-09
-9.47144e-11
8.21042e-09
-8.6361e-11
8.29067e-09
-8.02507e-11
8.36684e-09
-7.61738e-11
8.44069e-09
-7.38443e-11
8.51359e-09
-7.29018e-11
8.5865e-09
-7.29124e-11
8.65988e-09
-7.3379e-11
8.7336e-09
-7.37168e-11
8.80696e-09
-7.33595e-11
8.87851e-09
-7.15546e-11
8.94619e-09
-6.76793e-11
9.00709e-09
-6.08967e-11
9.05763e-09
-5.05415e-11
9.09341e-09
-3.57763e-11
9.10924e-09
-1.58315e-11
9.09917e-09
1.00658e-11
9.05652e-09
4.26549e-11
8.9738e-09
8.27134e-11
8.84281e-09
1.30997e-10
8.65455e-09
1.88256e-10
8.39929e-09
2.55255e-10
8.06652e-09
3.32773e-10
7.64489e-09
4.21627e-10
7.12228e-09
5.22612e-10
6.48563e-09
6.36651e-10
5.72101e-09
7.64617e-10
4.81369e-09
9.07322e-10
3.7479e-09
1.0658e-09
2.50708e-09
1.24081e-09
1.07383e-09
1.43325e-09
-5.70006e-10
1.64384e-09
-2.44317e-09
1.87316e-09
-4.56484e-09
2.12167e-09
-6.9543e-09
2.38946e-09
-9.63063e-09
2.67633e-09
-1.26125e-08
2.98187e-09
-1.59177e-08
3.30524e-09
-1.95629e-08
3.64518e-09
-2.35629e-08
3.99999e-09
-2.79304e-08
4.36746e-09
-3.26753e-08
4.7449e-09
-3.78044e-08
5.12909e-09
-4.33207e-08
5.51633e-09
-4.92231e-08
5.90243e-09
-5.55059e-08
6.28273e-09
-6.2158e-08
6.65215e-09
-6.91632e-08
7.00524e-09
-7.64995e-08
7.33625e-09
-8.41387e-08
7.63918e-09
-9.20465e-08
7.90784e-09
-1.00182e-07
8.13595e-09
-1.085e-07
8.31721e-09
-1.16945e-07
8.4453e-09
-1.25459e-07
8.51403e-09
-1.33976e-07
8.51736e-09
-1.42426e-07
8.44944e-09
-1.50731e-07
8.3047e-09
-1.58808e-07
8.07791e-09
-1.66573e-07
7.76426e-09
-1.73932e-07
7.35942e-09
-1.80792e-07
6.85973e-09
-1.87054e-07
6.26225e-09
-1.92619e-07
5.56496e-09
-1.97385e-07
4.76599e-09
-2.01243e-07
3.85809e-09
-2.04096e-07
2.85276e-09
-2.05873e-07
1.77685e-09
-2.06472e-07
5.99315e-10
-2.05804e-07
-6.68383e-10
-2.03812e-07
-1.99117e-09
-2.00443e-07
-3.36907e-09
-1.95666e-07
-4.77766e-09
-1.89474e-07
-6.19198e-09
-1.81888e-07
-7.58558e-09
-1.7296e-07
-8.92842e-09
-1.62773e-07
-1.01872e-08
-1.51446e-07
-1.13267e-08
-1.39135e-07
-1.23113e-08
-1.26028e-07
-1.31068e-08
-1.12345e-07
-1.36823e-08
-9.83331e-08
-1.40123e-08
-8.42543e-08
-1.40788e-08
-7.03808e-08
-1.38735e-08
-5.69822e-08
-1.33986e-08
-4.43139e-08
-1.26683e-08
-3.2606e-08
-1.17079e-08
-2.20527e-08
-1.05533e-08
-1.2804e-08
-9.24879e-09
-4.95967e-09
-7.84428e-09
1.43233e-09
-6.392e-09
6.37548e-09
-4.94315e-09
9.91949e-09
-3.54401e-09
1.21544e-08
-2.23488e-09
1.32017e-08
-1.04735e-09
1.32056e-08
-3.84075e-12
1.23269e-08
8.7869e-10
1.07394e-08
1.58744e-09
8.62992e-09
2.10951e-09
6.21253e-09
2.41739e-09
3.75029e-09
2.46225e-09
1.5865e-09
2.16378e-09
1.96615e-10
1.38989e-09
1.96614e-10
-7.84569e-11
1.29587e-10
-1.0594e-10
6.11767e-11
1.30894e-11
-1.43305e-10
3.093e-10
-3.8906e-10
7.841e-10
-6.35013e-10
1.42523e-09
-8.62954e-10
2.2143e-09
-1.06493e-09
3.13023e-09
-1.23763e-09
4.151e-09
-1.38004e-09
5.25462e-09
-1.49235e-09
6.4197e-09
-1.57547e-09
7.62579e-09
-1.63079e-09
8.85372e-09
-1.66007e-09
1.00858e-08
-1.66534e-09
1.13059e-08
-1.64884e-09
1.24998e-08
-1.61299e-09
1.36551e-08
-1.56034e-09
1.47612e-08
-1.49352e-09
1.58096e-08
-1.41519e-09
1.67938e-08
-1.32797e-09
1.77089e-08
-1.23444e-09
1.85521e-08
-1.13706e-09
1.93222e-08
-1.03815e-09
2.00196e-08
-9.39831e-10
2.06461e-08
-8.4407e-10
2.12046e-08
-7.52604e-10
2.16994e-08
-6.66897e-10
2.21355e-08
-5.88117e-10
2.25185e-08
-5.17153e-10
2.28545e-08
-4.54624e-10
2.31499e-08
-4.0087e-10
2.34111e-08
-3.55945e-10
2.36444e-08
-3.19606e-10
2.38555e-08
-2.91313e-10
2.40495e-08
-2.70228e-10
2.42309e-08
-2.55219e-10
2.44028e-08
-2.44864e-10
2.45674e-08
-2.37458e-10
2.47251e-08
-2.31042e-10
2.48747e-08
-2.23357e-10
2.50134e-08
-2.12105e-10
2.51363e-08
-1.94451e-10
2.52365e-08
-1.67828e-10
2.53047e-08
-1.29098e-10
2.53296e-08
-7.54745e-11
2.52977e-08
-3.82658e-12
2.51928e-08
8.90171e-11
2.49969e-08
2.05977e-10
2.46894e-08
3.5012e-10
2.42477e-08
5.24466e-10
2.36467e-08
7.32021e-10
2.28591e-08
9.75778e-10
2.18557e-08
1.25875e-09
2.06044e-08
1.584e-09
1.90714e-08
1.95469e-09
1.72201e-08
2.3739e-09
1.50116e-08
2.84508e-09
1.24049e-08
3.37141e-09
9.35607e-09
3.95611e-09
5.81938e-09
4.60248e-09
1.74688e-09
5.31331e-09
-2.91144e-09
6.09157e-09
-8.20766e-09
6.94006e-09
-1.41946e-08
7.86007e-09
-2.09248e-08
8.85186e-09
-2.84506e-08
9.91528e-09
-3.68233e-08
1.1049e-08
-4.60918e-08
1.22504e-08
-5.63015e-08
1.35149e-08
-6.7493e-08
1.48367e-08
-7.97008e-08
1.62078e-08
-9.2952e-08
1.76186e-08
-1.07265e-07
1.90576e-08
-1.22647e-07
2.05112e-08
-1.39095e-07
2.19643e-08
-1.56592e-07
2.33996e-08
-1.75108e-07
2.47986e-08
-1.94597e-07
2.61414e-08
-2.14999e-07
2.74067e-08
-2.36235e-07
2.85724e-08
-2.58211e-07
2.96159e-08
-2.80818e-07
3.05143e-08
-3.03926e-07
3.12443e-08
-3.27392e-07
3.17833e-08
-3.51056e-07
3.21089e-08
-3.74741e-07
3.21995e-08
-3.98258e-07
3.20343e-08
-4.21403e-07
3.15939e-08
-4.43958e-07
3.08602e-08
-4.65697e-07
2.98164e-08
-4.86381e-07
2.84481e-08
-5.05764e-07
2.67425e-08
-5.23594e-07
2.46897e-08
-5.39614e-07
2.22828e-08
-5.53567e-07
1.9518e-08
-5.65196e-07
1.63946e-08
-5.74246e-07
1.29082e-08
-5.8045e-07
9.05665e-09
-5.83622e-07
4.94908e-09
-5.83555e-07
5.3249e-10
-5.80077e-07
-4.1471e-09
-5.73014e-07
-9.05346e-09
-5.62276e-07
-1.41077e-08
-5.47814e-07
-1.92398e-08
-5.29644e-07
-2.4362e-08
-5.07849e-07
-2.93799e-08
-4.82589e-07
-3.41887e-08
-4.54103e-07
-3.86734e-08
-4.22716e-07
-4.27132e-08
-3.8884e-07
-4.6187e-08
-3.52968e-07
-4.89789e-08
-3.15666e-07
-5.09843e-08
-2.77562e-07
-5.21171e-08
-2.39324e-07
-5.23168e-08
-2.01643e-07
-5.15542e-08
-1.65205e-07
-4.98366e-08
-1.30663e-07
-4.72103e-08
-9.86103e-08
-4.37605e-08
-6.95552e-08
-3.96083e-08
-4.38996e-08
-3.49044e-08
-2.19234e-08
-2.98204e-08
-3.77741e-09
-2.4538e-08
1.05172e-08
-1.92377e-08
2.10606e-08
-1.40874e-08
2.80604e-08
-9.23466e-09
3.18125e-08
-4.79948e-09
3.26839e-08
-8.75209e-10
3.10957e-08
2.46682e-09
2.75145e-08
5.16868e-09
2.24534e-08
7.17063e-09
1.65027e-08
8.36806e-09
1.03638e-08
8.60114e-09
4.90148e-09
7.62609e-09
1.16245e-09
5.12891e-09
1.35907e-09
-6.73171e-11
1.97038e-10
-3.33402e-11
2.72191e-11
2.21281e-10
-3.97971e-10
7.4021e-10
-9.08052e-10
1.52862e-09
-1.42348e-09
2.57118e-09
-1.90555e-09
3.84201e-09
-2.3358e-09
5.31013e-09
-2.70577e-09
6.94233e-09
-3.01225e-09
8.70492e-09
-3.25493e-09
1.05647e-08
-3.43528e-09
1.24899e-08
-3.55597e-09
1.44504e-08
-3.62053e-09
1.64183e-08
-3.63319e-09
1.83681e-08
-3.59867e-09
2.02773e-08
-3.52214e-09
2.21259e-08
-3.40903e-09
2.38974e-08
-3.26496e-09
2.55778e-08
-3.09564e-09
2.71565e-08
-2.90671e-09
2.86258e-08
-2.70371e-09
2.99807e-08
-2.49193e-09
3.12189e-08
-2.27636e-09
3.23406e-08
-2.06158e-09
3.33483e-08
-1.85178e-09
3.42464e-08
-1.65064e-09
3.50408e-08
-1.4613e-09
3.5739e-08
-1.28629e-09
3.63494e-08
-1.12755e-09
3.68811e-08
-9.86384e-10
3.73438e-08
-8.63512e-10
3.77468e-08
-7.58997e-10
3.80995e-08
-6.72263e-10
3.84102e-08
-6.02077e-10
3.86866e-08
-5.46556e-10
3.89345e-08
-5.03166e-10
3.91584e-08
-4.68742e-10
3.93604e-08
-4.39498e-10
3.95405e-08
-4.1108e-10
3.96956e-08
-3.78506e-10
3.98201e-08
-3.36614e-10
3.99049e-08
-2.79221e-10
3.99376e-08
-2.00512e-10
3.99022e-08
-9.37037e-11
3.97791e-08
4.75837e-11
3.9545e-08
2.30338e-10
3.91727e-08
4.61297e-10
3.86314e-08
7.47288e-10
3.78864e-08
1.09508e-09
3.68995e-08
1.51143e-09
3.56284e-08
2.00305e-09
3.40276e-08
2.57663e-09
3.20475e-08
3.23887e-09
2.96349e-08
3.99655e-09
2.6733e-08
4.85662e-09
2.32811e-08
5.82582e-09
1.92147e-08
6.91147e-09
1.4466e-08
8.12012e-09
8.96354e-09
9.45852e-09
2.63267e-09
1.09334e-08
-4.60562e-09
1.25516e-08
-1.28322e-08
1.43182e-08
-2.21285e-08
1.62363e-08
-3.25769e-08
1.83085e-08
-4.42598e-08
2.05348e-08
-5.72578e-08
2.29133e-08
-7.16481e-08
2.54393e-08
-8.75024e-08
2.81047e-08
-1.04886e-07
3.08982e-08
-1.23853e-07
3.38043e-08
-1.4445e-07
3.6804e-08
-1.66705e-07
3.98739e-08
-1.90634e-07
4.29866e-08
-2.16233e-07
4.61108e-08
-2.4348e-07
4.92111e-08
-2.7233e-07
5.2249e-08
-3.02713e-07
5.51826e-08
-3.3454e-07
5.79675e-08
-3.6769e-07
6.05573e-08
-4.02022e-07
6.29043e-08
-4.37366e-07
6.49598e-08
-4.73527e-07
6.66753e-08
-5.10285e-07
6.80028e-08
-5.47398e-07
6.88955e-08
-5.84597e-07
6.93082e-08
-6.21596e-07
6.91981e-08
-6.58086e-07
6.85249e-08
-6.93744e-07
6.72514e-08
-7.28228e-07
6.53442e-08
-7.61185e-07
6.27734e-08
-7.9225e-07
5.95138e-08
-8.21053e-07
5.55452e-08
-8.47216e-07
5.08528e-08
-8.70362e-07
4.54288e-08
-8.90117e-07
3.92724e-08
-9.06113e-07
3.23912e-08
-9.18004e-07
2.47986e-08
-9.254e-07
1.64534e-08
-9.28069e-07
7.6175e-09
-9.25745e-07
-1.79107e-09
-9.18161e-07
-1.17315e-08
-9.05151e-07
-2.20637e-08
-8.86607e-07
-3.26508e-08
-8.62501e-07
-4.33465e-08
-8.32891e-07
-5.39717e-08
-7.97937e-07
-6.43343e-08
-7.57902e-07
-7.42233e-08
-7.13166e-07
-8.34099e-08
-6.64223e-07
-9.16554e-08
-6.11689e-07
-9.8721e-08
-5.5629e-07
-1.04378e-07
-4.98852e-07
-1.08422e-07
-4.40286e-07
-1.10683e-07
-3.81562e-07
-1.11041e-07
-3.2368e-07
-1.09437e-07
-2.67634e-07
-1.05882e-07
-2.1438e-07
-1.00465e-07
-1.6479e-07
-9.335e-08
-1.19625e-07
-8.47738e-08
-7.94958e-08
-7.50333e-08
-4.4846e-08
-6.44702e-08
-1.59341e-08
-5.34499e-08
7.16823e-09
-4.23401e-08
2.45696e-08
-3.14888e-08
3.65416e-08
-2.12067e-08
4.34972e-08
-1.1755e-08
4.59647e-08
-3.34274e-09
4.45694e-08
3.86207e-09
4.00168e-08
9.72132e-09
3.30964e-08
1.4091e-08
2.47117e-08
1.67528e-08
1.59135e-08
1.73994e-08
7.94394e-09
1.55956e-08
2.21069e-09
1.08622e-08
3.56976e-09
-3.13526e-11
2.28458e-10
1.00401e-10
-1.04529e-10
5.20194e-10
-8.1781e-10
1.27754e-09
-1.66546e-09
2.37995e-09
-2.52596e-09
3.81012e-09
-3.33577e-09
5.5368e-09
-4.06252e-09
7.5213e-09
-4.69029e-09
9.72132e-09
-5.21228e-09
1.20934e-08
-5.62696e-09
1.45942e-08
-5.93612e-09
1.7182e-08
-6.1438e-09
1.98172e-08
-6.2557e-09
2.24628e-08
-6.27876e-09
2.50851e-08
-6.22091e-09
2.76537e-08
-6.09081e-09
3.01424e-08
-5.89768e-09
3.25284e-08
-5.65104e-09
3.47934e-08
-5.36058e-09
3.69226e-08
-5.03591e-09
3.89053e-08
-4.68645e-09
4.07346e-08
-4.32121e-09
4.24069e-08
-3.94869e-09
4.3922e-08
-3.57671e-09
4.52826e-08
-3.21237e-09
4.64939e-08
-2.86193e-09
4.75633e-08
-2.53072e-09
4.85001e-08
-2.22304e-09
4.93147e-08
-1.94219e-09
5.00188e-08
-1.6904e-09
5.06241e-08
-1.46882e-09
5.11425e-08
-1.27748e-09
5.15856e-08
-1.11532e-09
5.19636e-08
-9.80109e-10
5.22856e-08
-8.68503e-10
5.25584e-08
-7.76026e-10
5.27868e-08
-6.97093e-10
5.29723e-08
-6.25049e-10
5.31135e-08
-5.52247e-10
5.3205e-08
-4.69966e-10
5.32374e-08
-3.69057e-10
5.3197e-08
-2.38844e-10
5.30654e-08
-6.88824e-11
5.28192e-08
1.52523e-10
5.243e-08
4.36767e-10
5.18644e-08
7.95982e-10
5.10836e-08
1.24209e-09
5.00437e-08
1.78717e-09
4.86956e-08
2.44319e-09
4.69849e-08
3.22208e-09
4.48523e-08
4.13568e-09
4.22331e-08
5.19579e-09
3.90578e-08
6.41419e-09
3.52516e-08
7.80271e-09
3.07349e-08
9.37336e-09
2.54228e-08
1.11379e-08
1.92263e-08
1.3108e-08
1.20514e-08
1.5295e-08
3.79852e-09
1.77114e-08
-5.63566e-09
2.03675e-08
-1.63566e-08
2.32725e-08
-2.84721e-08
2.64337e-08
-4.20917e-08
2.9856e-08
-5.73245e-08
3.35413e-08
-7.42777e-08
3.7488e-08
-9.30542e-08
4.16898e-08
-1.13751e-07
4.61356e-08
-1.36454e-07
5.08084e-08
-1.61241e-07
5.56849e-08
-1.88172e-07
6.07352e-08
-2.1729e-07
6.59224e-08
-2.48619e-07
7.12026e-08
-2.82157e-07
7.6525e-08
-3.17879e-07
8.18322e-08
-3.55728e-07
8.70603e-08
-3.95619e-07
9.21402e-08
-4.37435e-07
9.6998e-08
-4.81023e-07
1.01556e-07
-5.26201e-07
1.05735e-07
-5.72748e-07
1.09452e-07
-6.20414e-07
1.12626e-07
-6.68915e-07
1.15176e-07
-7.17936e-07
1.17024e-07
-7.67135e-07
1.18094e-07
-8.16143e-07
1.18316e-07
-8.64566e-07
1.17622e-07
-9.11993e-07
1.15951e-07
-9.57991e-07
1.1325e-07
-1.00212e-06
1.09469e-07
-1.04391e-06
1.04568e-07
-1.08291e-06
9.8516e-08
-1.11866e-06
9.12877e-08
-1.15067e-06
8.287e-08
-1.1785e-06
7.326e-08
-1.2017e-06
6.24673e-08
-1.21982e-06
5.05148e-08
-1.23246e-06
3.74363e-08
-1.23925e-06
2.3247e-08
-1.23984e-06
8.20416e-09
-1.23394e-06
-7.69245e-09
-1.22131e-06
-2.43591e-08
-1.20179e-06
-4.15801e-08
-1.1753e-06
-5.91425e-08
-1.14184e-06
-7.68049e-08
-1.10154e-06
-9.4279e-08
-1.05462e-06
-1.11255e-07
-1.00144e-06
-1.27399e-07
-9.42502e-07
-1.42348e-07
-8.7843e-07
-1.55728e-07
-8.09987e-07
-1.67163e-07
-7.3807e-07
-1.76296e-07
-6.63689e-07
-1.82804e-07
-5.87953e-07
-1.86419e-07
-5.12043e-07
-1.86951e-07
-4.37178e-07
-1.84301e-07
-3.64578e-07
-1.78483e-07
-2.95416e-07
-1.69626e-07
-2.30784e-07
-1.57983e-07
-1.71637e-07
-1.4392e-07
-1.18768e-07
-1.27903e-07
-7.27654e-08
-1.10473e-07
-3.40009e-08
-9.22143e-08
-2.61662e-09
-7.37244e-08
2.14704e-08
-5.55758e-08
3.85523e-08
-3.82887e-08
4.91087e-08
-2.23113e-08
5.37793e-08
-8.01337e-09
5.33394e-08
4.30197e-09
4.86831e-08
1.43776e-08
4.08273e-08
2.19468e-08
3.09239e-08
2.66562e-08
2.0296e-08
2.80273e-08
1.04629e-08
2.54287e-08
3.11103e-09
1.8214e-08
6.68079e-09
1.89576e-11
2.09632e-10
2.73161e-10
-3.58691e-10
8.79161e-10
-1.42384e-09
1.88647e-09
-2.67283e-09
3.30273e-09
-3.94228e-09
5.1087e-09
-5.1418e-09
7.26893e-09
-6.22278e-09
9.73858e-09
-7.15995e-09
1.24679e-08
-7.94162e-09
1.54052e-08
-8.56424e-09
1.84987e-08
-9.02958e-09
2.16979e-08
-9.34302e-09
2.49548e-08
-9.51264e-09
2.82246e-08
-9.54852e-09
3.1466e-08
-9.46232e-09
3.46421e-08
-9.26688e-09
3.77203e-08
-8.97591e-09
4.06729e-08
-8.60363e-09
4.34768e-08
-8.16449e-09
4.61138e-08
-7.67291e-09
4.85703e-08
-7.14295e-09
5.08372e-08
-6.58814e-09
5.29097e-08
-6.0212e-09
5.47869e-08
-5.45388e-09
5.64713e-08
-4.8968e-09
5.79687e-08
-4.35932e-09
5.92874e-08
-3.8494e-09
6.04379e-08
-3.37349e-09
6.14322e-08
-2.9365e-09
6.22835e-08
-2.54173e-09
6.30055e-08
-2.1908e-09
6.36117e-08
-1.88367e-09
6.41149e-08
-1.61857e-09
6.45268e-08
-1.392e-09
6.4857e-08
-1.19871e-09
6.51128e-08
-1.03176e-09
6.52981e-08
-8.82476e-10
6.54137e-08
-7.4056e-10
6.54556e-08
-5.94184e-10
6.54156e-08
-4.29993e-10
6.52801e-08
-2.3358e-10
6.503e-08
1.12604e-11
6.46403e-08
3.20875e-10
6.40797e-08
7.1309e-10
6.33107e-08
1.20578e-09
6.22891e-08
1.81753e-09
6.09643e-08
2.56693e-09
5.92788e-08
3.47267e-09
5.71687e-08
4.55335e-09
5.45633e-08
5.82747e-09
5.13855e-08
7.31341e-09
4.75519e-08
9.02941e-09
4.29725e-08
1.09936e-08
3.75509e-08
1.32243e-08
3.11849e-08
1.57393e-08
2.37664e-08
1.85565e-08
1.51809e-08
2.16934e-08
5.30794e-09
2.5168e-08
-5.97684e-09
2.89962e-08
-1.88019e-08
3.31926e-08
-3.32989e-08
3.77696e-08
-4.96014e-08
4.27361e-08
-6.78426e-08
4.80972e-08
-8.8154e-08
5.38526e-08
-1.10662e-07
5.99962e-08
-1.35487e-07
6.65143e-08
-1.62737e-07
7.33854e-08
-1.92507e-07
8.05787e-08
-2.24875e-07
8.80535e-08
-2.59899e-07
9.57588e-08
-2.9761e-07
1.03633e-07
-3.38011e-07
1.11604e-07
-3.81075e-07
1.19589e-07
-4.26739e-07
1.27496e-07
-4.74904e-07
1.35225e-07
-5.25431e-07
1.42667e-07
-5.78142e-07
1.49708e-07
-6.32815e-07
1.5623e-07
-6.89192e-07
1.62111e-07
-7.4697e-07
1.6723e-07
-8.05812e-07
1.71468e-07
-8.65343e-07
1.74707e-07
-9.25155e-07
1.76836e-07
-9.8481e-07
1.7775e-07
-1.04385e-06
1.77351e-07
-1.10177e-06
1.7555e-07
-1.15809e-06
1.72269e-07
-1.21228e-06
1.67438e-07
-1.26381e-06
1.61002e-07
-1.31216e-06
1.52913e-07
-1.35678e-06
1.43139e-07
-1.39715e-06
1.31661e-07
-1.43276e-06
1.18473e-07
-1.46308e-06
1.03587e-07
-1.48765e-06
8.70308e-08
-1.50598e-06
6.88541e-08
-1.51767e-06
4.91243e-08
-1.52235e-06
2.79205e-08
-1.51964e-06
5.49436e-09
-1.50927e-06
-1.80623e-08
-1.49103e-06
-4.25923e-08
-1.46481e-06
-6.78065e-08
-1.43054e-06
-9.34065e-08
-1.3883e-06
-1.19048e-07
-1.33825e-06
-1.44325e-07
-1.28071e-06
-1.68801e-07
-1.2161e-06
-1.92009e-07
-1.145e-06
-2.13446e-07
-1.06814e-06
-2.32593e-07
-9.8637e-07
-2.48929e-07
-9.00706e-07
-2.6196e-07
-8.12275e-07
-2.71235e-07
-7.22315e-07
-2.7638e-07
-6.32143e-07
-2.77122e-07
-5.43127e-07
-2.73317e-07
-4.56641e-07
-2.6497e-07
-3.74019e-07
-2.52247e-07
-2.96515e-07
-2.35488e-07
-2.25245e-07
-2.1519e-07
-1.61152e-07
-1.91996e-07
-1.04962e-07
-1.66662e-07
-5.71609e-08
-1.40015e-07
-1.79778e-08
-1.12908e-07
1.26176e-08
-8.61711e-08
3.49028e-08
-6.05739e-08
4.9383e-08
-3.67916e-08
5.67643e-08
-1.53947e-08
5.79274e-08
3.13882e-09
5.39102e-08
1.83949e-08
4.59036e-08
2.99533e-08
3.52568e-08
3.73031e-08
2.35028e-08
3.97813e-08
1.23763e-08
3.65552e-08
3.80701e-09
2.67833e-08
1.04878e-08
7.7557e-11
1.32154e-10
4.69539e-10
-7.5065e-10
1.27562e-09
-2.22995e-09
2.54033e-09
-3.93759e-09
4.26899e-09
-5.671e-09
6.43992e-09
-7.31278e-09
9.0139e-09
-8.7968e-09
1.1941e-08
-1.00871e-08
1.51653e-08
-1.11659e-08
1.86282e-08
-1.20271e-08
2.22705e-08
-1.26719e-08
2.60344e-08
-1.31069e-08
2.98646e-08
-1.33428e-08
3.37091e-08
-1.3393e-08
3.75202e-08
-1.32734e-08
4.12548e-08
-1.30015e-08
4.48751e-08
-1.25962e-08
4.83485e-08
-1.2077e-08
5.16477e-08
-1.14638e-08
5.47512e-08
-1.07764e-08
5.76427e-08
-1.00345e-08
6.03111e-08
-9.25649e-09
6.275e-08
-8.46011e-09
6.49576e-08
-7.66157e-09
6.69364e-08
-6.87552e-09
6.8692e-08
-6.1149e-09
7.02332e-08
-5.39066e-09
7.15714e-08
-4.7117e-09
7.27197e-08
-4.08474e-09
7.36922e-08
-3.51424e-09
7.45037e-08
-3.00233e-09
7.51688e-08
-2.54878e-09
7.57012e-08
-2.15092e-09
7.61128e-08
-1.80365e-09
7.64135e-08
-1.49942e-09
7.661e-08
-1.22823e-09
7.67052e-08
-9.77712e-10
7.66978e-08
-7.33159e-10
7.65813e-08
-4.77693e-10
7.63437e-08
-1.92335e-10
7.59665e-08
1.43648e-10
7.54247e-08
5.53002e-10
7.46863e-08
1.05932e-09
7.37116e-08
1.68779e-09
7.24533e-08
2.46405e-09
7.08563e-08
3.41455e-09
6.88573e-08
4.56587e-09
6.63853e-08
5.94471e-09
6.3361e-08
7.57769e-09
5.96972e-08
9.49125e-09
5.5299e-08
1.17116e-08
5.00637e-08
1.42647e-08
4.38809e-08
1.71764e-08
3.66331e-08
2.04721e-08
2.81955e-08
2.4177e-08
1.84359e-08
2.83161e-08
7.21595e-09
3.29134e-08
-5.60821e-09
3.79921e-08
-2.01857e-08
4.35736e-08
-3.66692e-08
4.96761e-08
-5.52137e-08
5.63141e-08
-7.59748e-08
6.34972e-08
-9.91058e-08
7.12282e-08
-1.24756e-07
7.95024e-08
-1.53065e-07
8.83055e-08
-1.84163e-07
9.76126e-08
-2.18164e-07
1.07387e-07
-2.55163e-07
1.17577e-07
-2.95229e-07
1.2812e-07
-3.38405e-07
1.38935e-07
-3.847e-07
1.49928e-07
-4.34088e-07
1.60992e-07
-4.86501e-07
1.72002e-07
-5.4183e-07
1.82825e-07
-5.99918e-07
1.93314e-07
-6.60565e-07
2.03314e-07
-7.23518e-07
2.12662e-07
-7.88483e-07
2.21195e-07
-8.55116e-07
2.28744e-07
-9.2303e-07
2.35144e-07
-9.91799e-07
2.40237e-07
-1.06096e-06
2.43866e-07
-1.13001e-06
2.4589e-07
-1.19844e-06
2.46174e-07
-1.26568e-06
2.44599e-07
-1.33119e-06
2.41059e-07
-1.39439e-06
2.35462e-07
-1.45468e-06
2.27734e-07
-1.5115e-06
2.17816e-07
-1.56425e-06
2.05665e-07
-1.61237e-06
1.91258e-07
-1.65529e-06
1.74587e-07
-1.69249e-06
1.55667e-07
-1.72343e-06
1.34531e-07
-1.74764e-06
1.11238e-07
-1.76466e-06
8.58712e-08
-1.77408e-06
5.8542e-08
-1.77555e-06
2.93911e-08
-1.76874e-06
-1.31497e-09
-1.7534e-06
-3.33978e-08
-1.72938e-06
-6.66127e-08
-1.69659e-06
-1.00597e-07
-1.65503e-06
-1.34963e-07
-1.60482e-06
-1.6926e-07
-1.54618e-06
-2.02968e-07
-1.47946e-06
-2.3552e-07
-1.40515e-06
-2.66314e-07
-1.32389e-06
-2.9471e-07
-1.23644e-06
-3.2004e-07
-1.14373e-06
-3.41638e-07
-1.04683e-06
-3.58866e-07
-9.46919e-07
-3.71144e-07
-8.45317e-07
-3.77982e-07
-7.43422e-07
-3.79017e-07
-6.42693e-07
-3.74047e-07
-5.44606e-07
-3.63057e-07
-4.50612e-07
-3.46241e-07
-3.62085e-07
-3.24014e-07
-2.80276e-07
-2.96999e-07
-2.06255e-07
-2.66016e-07
-1.40879e-07
-2.32038e-07
-8.47498e-08
-1.96145e-07
-3.8194e-08
-1.59463e-07
-1.25572e-09
-1.23109e-07
2.63002e-08
-8.81298e-08
4.49706e-08
-5.5462e-08
5.5491e-08
-2.59151e-08
5.88086e-08
-1.78781e-10
5.60645e-08
2.1139e-08
4.85792e-08
3.74385e-08
3.78539e-08
4.80285e-08
2.55853e-08
5.20498e-08
1.36826e-08
4.8458e-08
4.29258e-09
3.61733e-08
1.47804e-08
1.40046e-10
-7.77409e-12
6.78142e-10
-1.2887e-09
1.6924e-09
-3.24423e-09
3.21822e-09
-5.46346e-09
5.25636e-09
-7.7092e-09
7.78176e-09
-9.83823e-09
1.07515e-08
-1.17666e-08
1.41112e-08
-1.34468e-08
1.77996e-08
-1.48544e-08
2.17522e-08
-1.59797e-08
2.59037e-08
-1.68233e-08
3.01896e-08
-1.73928e-08
3.45483e-08
-1.77015e-08
3.89218e-08
-1.77665e-08
4.32565e-08
-1.76081e-08
4.75039e-08
-1.7249e-08
5.16214e-08
-1.67136e-08
5.55719e-08
-1.60275e-08
5.93247e-08
-1.52165e-08
6.28548e-08
-1.43066e-08
6.61435e-08
-1.33232e-08
6.91777e-08
-1.22906e-08
7.19494e-08
-1.12319e-08
7.4456e-08
-1.01682e-08
7.66991e-08
-9.11865e-09
7.86844e-08
-8.10019e-09
8.04208e-08
-7.12707e-09
8.192e-08
-6.21085e-09
8.31955e-08
-5.36022e-09
8.42621e-08
-4.58086e-09
8.51352e-08
-3.87539e-09
8.58296e-08
-3.24324e-09
8.63594e-08
-2.68064e-09
8.67362e-08
-2.18055e-09
8.69695e-08
-1.73266e-09
8.70647e-08
-1.32343e-09
8.70231e-08
-9.36092e-10
8.68407e-08
-5.5081e-10
8.65078e-08
-1.44793e-10
8.6008e-08
3.07523e-10
8.53174e-08
8.34177e-10
8.44048e-08
1.46562e-09
8.32303e-08
2.23384e-09
8.17455e-08
3.17264e-09
7.98928e-08
4.31672e-09
7.76056e-08
5.70169e-09
7.4808e-08
7.36347e-09
7.14146e-08
9.33812e-09
6.73307e-08
1.16616e-08
6.24524e-08
1.43696e-08
5.66667e-08
1.74973e-08
4.98516e-08
2.10798e-08
4.18766e-08
2.51514e-08
3.26026e-08
2.97461e-08
2.18827e-08
3.48969e-08
9.56228e-09
4.06365e-08
-4.51996e-09
4.69956e-08
-2.05311e-08
5.40033e-08
-3.86427e-08
6.16853e-08
-5.90295e-08
7.00628e-08
-8.18667e-08
7.91514e-08
-1.07328e-07
8.89587e-08
-1.35583e-07
9.94832e-08
-1.66793e-07
1.10712e-07
-2.01105e-07
1.22618e-07
-2.38653e-07
1.35161e-07
-2.79547e-07
1.48281e-07
-3.23872e-07
1.61902e-07
-3.71681e-07
1.75928e-07
-4.22991e-07
1.90244e-07
-4.77777e-07
2.04715e-07
-5.35972e-07
2.19186e-07
-5.97458e-07
2.33488e-07
-6.62065e-07
2.47433e-07
-7.29573e-07
2.60822e-07
-7.99706e-07
2.73447e-07
-8.72137e-07
2.85093e-07
-9.46485e-07
2.95542e-07
-1.02232e-06
3.04581e-07
-1.09918e-06
3.11999e-07
-1.17654e-06
3.17596e-07
-1.25385e-06
3.21184e-07
-1.33055e-06
3.22591e-07
-1.40604e-06
3.21661e-07
-1.4797e-06
3.18259e-07
-1.55091e-06
3.1227e-07
-1.61905e-06
3.036e-07
-1.68349e-06
2.92177e-07
-1.74363e-06
2.77951e-07
-1.79886e-06
2.60893e-07
-1.8486e-06
2.40997e-07
-1.89229e-06
2.18281e-07
-1.92941e-06
1.92786e-07
-1.95946e-06
1.64578e-07
-1.98197e-06
1.33752e-07
-1.99653e-06
1.00433e-07
-2.00277e-06
6.47824e-08
-2.00038e-06
2.69993e-08
-1.98908e-06
-1.26192e-08
-1.96866e-06
-5.38127e-08
-1.93902e-06
-9.6251e-08
-1.90012e-06
-1.39498e-07
-1.85201e-06
-1.83076e-07
-1.79484e-06
-2.26434e-07
-1.72886e-06
-2.68943e-07
-1.65447e-06
-3.09911e-07
-1.57218e-06
-3.48606e-07
-1.48264e-06
-3.84251e-07
-1.38664e-06
-4.16036e-07
-1.28513e-06
-4.43149e-07
-1.17919e-06
-4.6481e-07
-1.07003e-06
-4.80302e-07
-9.58994e-07
-4.89015e-07
-8.47525e-07
-4.90486e-07
-7.37129e-07
-4.84442e-07
-6.2935e-07
-4.70835e-07
-5.2572e-07
-4.49871e-07
-4.27709e-07
-4.22024e-07
-3.36675e-07
-3.88034e-07
-2.53807e-07
-3.48884e-07
-1.80081e-07
-3.05764e-07
-1.16217e-07
-2.60009e-07
-6.26487e-08
-2.13032e-07
-1.95095e-08
-1.66249e-07
1.3371e-08
-1.2101e-07
3.64556e-08
-7.85466e-08
5.0479e-08
-3.99385e-08
5.64226e-08
-6.12243e-09
5.54935e-08
2.20681e-08
4.9106e-08
4.38261e-08
3.88766e-08
5.82578e-08
2.66302e-08
6.42962e-08
1.442e-08
6.06682e-08
4.58196e-09
4.60113e-08
1.93623e-08
2.03564e-10
-2.11261e-10
8.91104e-10
-1.9762e-09
2.11681e-09
-4.46996e-09
3.90411e-09
-7.25081e-09
6.24717e-09
-1.00523e-08
9.11649e-09
-1.27076e-08
1.24653e-08
-1.51154e-08
1.62349e-08
-1.72165e-08
2.03594e-08
-1.8979e-08
2.47692e-08
-2.03895e-08
2.93935e-08
-2.14475e-08
3.41623e-08
-2.21617e-08
3.90085e-08
-2.25476e-08
4.38685e-08
-2.26265e-08
4.86837e-08
-2.24233e-08
5.34009e-08
-2.19662e-08
5.79731e-08
-2.12858e-08
6.23594e-08
-2.04138e-08
6.65255e-08
-1.93827e-08
7.04438e-08
-1.82249e-08
7.40929e-08
-1.69723e-08
7.74577e-08
-1.56555e-08
8.05291e-08
-1.43032e-08
8.3303e-08
-1.29421e-08
8.57804e-08
-1.15961e-08
8.79665e-08
-1.02863e-08
8.98701e-08
-9.03065e-09
9.15028e-08
-7.84349e-09
9.28781e-08
-6.73557e-09
9.40111e-08
-5.71383e-09
9.4917e-08
-4.7813e-09
9.56107e-08
-3.93693e-09
9.61056e-08
-3.17559e-09
9.64131e-08
-2.48796e-09
9.65409e-08
-1.86054e-09
9.64932e-08
-1.27566e-09
9.62686e-08
-7.11558e-10
9.58603e-08
-1.42492e-10
9.52544e-08
4.61073e-10
9.44297e-08
1.13223e-09
9.33566e-08
1.90729e-09
9.19967e-08
2.82555e-09
9.0302e-08
3.92853e-09
8.82148e-08
5.25987e-09
8.56669e-08
6.86457e-09
8.25799e-08
8.78868e-09
7.88647e-08
1.10788e-08
7.44212e-08
1.37815e-08
6.91393e-08
1.69435e-08
6.2898e-08
2.06109e-08
5.55661e-08
2.48292e-08
4.70026e-08
2.96433e-08
3.70568e-08
3.50973e-08
2.55686e-08
4.12342e-08
1.23697e-08
4.80958e-08
-2.7163e-09
5.57225e-08
-1.98725e-08
6.41518e-08
-3.92873e-08
7.3418e-08
-6.11528e-08
8.35508e-08
-8.56626e-08
9.45727e-08
-1.13009e-07
1.06498e-07
-1.43381e-07
1.1933e-07
-1.76957e-07
1.33059e-07
-2.13905e-07
1.4766e-07
-2.54376e-07
1.63088e-07
-2.98495e-07
1.7928e-07
-3.46363e-07
1.96149e-07
-3.98044e-07
2.13583e-07
-4.53565e-07
2.31449e-07
-5.12907e-07
2.49586e-07
-5.76001e-07
2.67809e-07
-6.42726e-07
2.85912e-07
-7.12904e-07
3.03666e-07
-7.86298e-07
3.20826e-07
-8.62612e-07
3.37135e-07
-9.41491e-07
3.52325e-07
-1.02252e-06
3.66126e-07
-1.10525e-06
3.78266e-07
-1.18915e-06
3.88483e-07
-1.27367e-06
3.96524e-07
-1.35823e-06
4.02154e-07
-1.4422e-06
4.05156e-07
-1.52495e-06
4.05336e-07
-1.60581e-06
4.02527e-07
-1.68414e-06
3.96587e-07
-1.75928e-06
3.87404e-07
-1.83057e-06
3.7489e-07
-1.89738e-06
3.58988e-07
-1.95909e-06
3.39668e-07
-2.01513e-06
3.16926e-07
-2.06491e-06
2.90785e-07
-2.10793e-06
2.61293e-07
-2.14367e-06
2.28529e-07
-2.17169e-06
1.92597e-07
-2.19157e-06
1.53635e-07
-2.20295e-06
1.11813e-07
-2.20551e-06
6.73425e-08
-2.19899e-06
2.04786e-08
-2.18317e-06
-2.84428e-08
-2.15789e-06
-7.90861e-08
-2.1231e-06
-1.31044e-07
-2.07879e-06
-1.83811e-07
-2.02504e-06
-2.36825e-07
-1.96203e-06
-2.89442e-07
-1.89004e-06
-3.40932e-07
-1.80946e-06
-3.90489e-07
-1.72081e-06
-4.37258e-07
-1.62473e-06
-4.8033e-07
-1.52201e-06
-5.18758e-07
-1.41357e-06
-5.51588e-07
-1.30049e-06
-5.77895e-07
-1.18397e-06
-5.96824e-07
-1.06535e-06
-6.07635e-07
-9.46077e-07
-6.09755e-07
-8.27693e-07
-6.02827e-07
-7.11776e-07
-5.86752e-07
-5.99918e-07
-5.6173e-07
-4.93665e-07
-5.28277e-07
-3.94468e-07
-4.87231e-07
-3.03624e-07
-4.39729e-07
-2.22223e-07
-3.87164e-07
-1.51105e-07
-3.31128e-07
-9.08142e-08
-2.73322e-07
-4.15857e-08
-2.15477e-07
-3.32948e-09
-1.59267e-07
2.43627e-08
-1.06239e-07
4.22007e-08
-5.77765e-08
5.11734e-08
-1.50952e-08
5.25238e-08
2.07178e-08
4.77306e-08
4.86193e-08
3.84954e-08
6.7493e-08
2.67431e-08
7.60484e-08
1.46463e-08
7.27651e-08
4.69811e-09
5.59595e-08
2.40605e-08
2.66118e-10
-4.7727e-10
1.10272e-09
-2.81275e-09
2.53947e-09
-5.90672e-09
4.58584e-09
-9.29722e-09
7.22771e-09
-1.26943e-08
1.04302e-08
-1.59101e-08
1.41421e-08
-1.88273e-08
1.83007e-08
-2.1375e-08
2.28357e-08
-2.3514e-08
2.76729e-08
-2.52267e-08
3.27367e-08
-2.65113e-08
3.79524e-08
-2.73774e-08
4.32479e-08
-2.78431e-08
4.8555e-08
-2.79336e-08
5.38105e-08
-2.76788e-08
5.89571e-08
-2.71128e-08
6.39438e-08
-2.62725e-08
6.87263e-08
-2.51963e-08
7.32673e-08
-2.39236e-08
7.75363e-08
-2.2494e-08
8.151e-08
-2.0946e-08
8.51712e-08
-1.93167e-08
8.85093e-08
-1.76412e-08
9.1519e-08
-1.59518e-08
9.42005e-08
-1.42776e-08
9.65584e-08
-1.26441e-08
9.86008e-08
-1.1073e-08
1.00339e-07
-9.58166e-09
1.01786e-07
-8.18288e-09
1.02957e-07
-6.88487e-09
1.03867e-07
-5.69093e-09
1.04529e-07
-4.59938e-09
1.04957e-07
-3.60344e-09
1.0516e-07
-2.69115e-09
1.05145e-07
-1.84536e-09
1.04913e-07
-1.04374e-09
1.04461e-07
-2.58861e-10
1.03776e-07
5.41658e-10
1.02843e-07
1.39492e-09
1.01632e-07
2.34247e-09
1.0011e-07
3.42989e-09
9.82289e-08
4.70641e-09
9.59333e-08
6.22416e-09
9.31553e-08
8.03785e-09
8.98159e-08
1.0204e-08
8.58243e-08
1.27803e-08
8.10779e-08
1.58252e-08
7.54621e-08
1.93973e-08
6.88507e-08
2.3555e-08
6.11056e-08
2.83559e-08
5.20777e-08
3.3857e-08
4.16069e-08
4.01141e-08
2.95227e-08
4.71816e-08
1.56446e-08
5.51122e-08
-2.1628e-10
6.39568e-08
-1.82571e-08
7.37633e-08
-3.8681e-08
8.45757e-08
-6.16959e-08
9.64329e-08
-8.75118e-08
1.09367e-07
-1.16338e-07
1.23399e-07
-1.48381e-07
1.38541e-07
-1.83837e-07
1.54787e-07
-2.22893e-07
1.72115e-07
-2.65714e-07
1.90481e-07
-3.12445e-07
2.0982e-07
-3.63201e-07
2.30035e-07
-4.18058e-07
2.51006e-07
-4.77055e-07
2.7258e-07
-5.4018e-07
2.94574e-07
-6.07367e-07
3.16773e-07
-6.78494e-07
3.38936e-07
-7.53376e-07
3.60794e-07
-8.31766e-07
3.82056e-07
-9.13352e-07
4.02412e-07
-9.97755e-07
4.21539e-07
-1.08454e-06
4.3911e-07
-1.17321e-06
4.54797e-07
-1.26322e-06
4.68276e-07
-1.35398e-06
4.79241e-07
-1.44486e-06
4.87402e-07
-1.5352e-06
4.92495e-07
-1.62433e-06
4.94283e-07
-1.71155e-06
4.92562e-07
-1.79619e-06
4.87163e-07
-1.87755e-06
4.77952e-07
-1.95498e-06
4.64828e-07
-2.02781e-06
4.47726e-07
-2.09544e-06
4.26614e-07
-2.15726e-06
4.01492e-07
-2.21273e-06
3.72391e-07
-2.26131e-06
3.39372e-07
-2.30254e-06
3.02522e-07
-2.33598e-06
2.61961e-07
-2.36122e-06
2.17837e-07
-2.37791e-06
1.7033e-07
-2.38576e-06
1.19659e-07
-2.38449e-06
6.60797e-08
-2.37391e-06
9.89986e-09
-2.35385e-06
-4.85046e-08
-2.32421e-06
-1.08733e-07
-2.28494e-06
-1.70312e-07
-2.23608e-06
-2.32673e-07
-2.17772e-06
-2.95178e-07
-2.11006e-06
-3.57102e-07
-2.03337e-06
-4.17626e-07
-1.94802e-06
-4.75839e-07
-1.85451e-06
-5.30769e-07
-1.75345e-06