/*--------------------------------*- C++ -*----------------------------------*\
  =========                 |
  \\      /  F ield         | OpenFOAM: The Open Source CFD Toolbox
   \\    /   O peration     | Website:  https://openfoam.org
    \\  /    A nd           | Version:  12
     \\/     M anipulation  |
\*---------------------------------------------------------------------------*/
FoamFile
{
    format      ascii;
    class       volScalarField;
    location    "1.5";
    object      k;
}
// * * * * * * * * * * * * * * * * * * * * * * * * * * * * * * * * * * * * * //

dimensions      [0 2 -2 0 0 0 0];

internalField   nonuniform List<scalar> 
18225
(
1.71643e-09
1.16116e-08
2.58468e-08
4.27915e-08
6.16666e-08
8.19569e-08
1.03261e-07
1.25237e-07
1.47585e-07
1.70032e-07
1.92335e-07
2.14271e-07
2.35644e-07
2.56278e-07
2.76023e-07
2.94745e-07
3.12335e-07
3.28699e-07
3.43764e-07
3.5747e-07
3.69776e-07
3.80654e-07
3.9009e-07
3.98085e-07
4.04656e-07
4.0983e-07
4.13654e-07
4.16189e-07
4.17511e-07
4.17719e-07
4.16939e-07
4.15272e-07
4.12879e-07
4.09942e-07
4.06661e-07
4.03263e-07
3.99997e-07
3.97144e-07
3.95008e-07
3.93922e-07
3.94236e-07
3.96311e-07
4.00615e-07
4.07555e-07
4.1755e-07
4.31029e-07
4.48409e-07
4.7009e-07
4.9644e-07
5.27785e-07
5.64402e-07
6.0651e-07
6.54266e-07
7.0777e-07
7.67065e-07
8.32143e-07
9.0296e-07
9.79447e-07
1.06152e-06
1.14909e-06
1.2421e-06
1.34047e-06
1.44419e-06
1.55323e-06
1.66761e-06
1.78735e-06
1.9125e-06
2.0431e-06
2.17919e-06
2.32083e-06
2.46804e-06
2.62085e-06
2.77925e-06
2.94325e-06
3.1128e-06
3.28786e-06
3.46834e-06
3.65414e-06
3.84513e-06
4.04113e-06
4.24194e-06
4.44729e-06
4.65686e-06
4.87028e-06
5.08708e-06
5.30673e-06
5.52857e-06
5.75184e-06
5.97565e-06
6.19894e-06
6.4205e-06
6.63888e-06
6.85247e-06
7.05939e-06
7.25755e-06
7.44459e-06
7.61792e-06
7.77459e-06
7.91128e-06
8.02449e-06
8.11041e-06
8.16182e-06
8.18146e-06
8.17106e-06
8.11792e-06
8.01992e-06
7.87585e-06
7.68494e-06
7.44723e-06
7.16383e-06
6.83723e-06
6.47128e-06
6.07125e-06
5.64366e-06
5.19607e-06
4.73677e-06
4.27433e-06
3.81723e-06
3.37334e-06
2.94963e-06
2.5518e-06
2.1841e-06
1.84925e-06
1.54854e-06
1.28189e-06
1.0481e-06
8.4509e-07
6.70187e-07
5.20311e-07
3.92324e-07
2.83256e-07
1.90617e-07
1.12841e-07
5.01656e-08
7.40207e-09
1.29694e-08
1.03389e-07
2.31875e-07
3.84525e-07
5.54476e-07
7.37131e-07
9.28889e-07
1.12669e-06
1.32782e-06
1.52985e-06
1.73056e-06
1.92798e-06
2.12031e-06
2.306e-06
2.48368e-06
2.65215e-06
2.81043e-06
2.95767e-06
3.09322e-06
3.21654e-06
3.32725e-06
3.42511e-06
3.51e-06
3.58191e-06
3.641e-06
3.68753e-06
3.7219e-06
3.74467e-06
3.75653e-06
3.75835e-06
3.7513e-06
3.73626e-06
3.71469e-06
3.68822e-06
3.65866e-06
3.62804e-06
3.59862e-06
3.5729e-06
3.55364e-06
3.54384e-06
3.54664e-06
3.56528e-06
3.60399e-06
3.66643e-06
3.75637e-06
3.87766e-06
4.03406e-06
4.22918e-06
4.46633e-06
4.74843e-06
5.07798e-06
5.45694e-06
5.88674e-06
6.36826e-06
6.90188e-06
7.48753e-06
8.12482e-06
8.81312e-06
9.55166e-06
1.03397e-05
1.11766e-05
1.20617e-05
1.29949e-05
1.3976e-05
1.50052e-05
1.60825e-05
1.72085e-05
1.83836e-05
1.96081e-05
2.08824e-05
2.22069e-05
2.35817e-05
2.50069e-05
2.64823e-05
2.80078e-05
2.95827e-05
3.12065e-05
3.28781e-05
3.45964e-05
3.63597e-05
3.81663e-05
4.00137e-05
4.18992e-05
4.38192e-05
4.57697e-05
4.77458e-05
4.97417e-05
5.17506e-05
5.37643e-05
5.57734e-05
5.7767e-05
5.97322e-05
6.16544e-05
6.35168e-05
6.53004e-05
6.69843e-05
6.85449e-05
6.99561e-05
7.11876e-05
7.22081e-05
7.29789e-05
7.34338e-05
7.3603e-05
7.35048e-05
7.30201e-05
7.21319e-05
7.08299e-05
6.91073e-05
6.69645e-05
6.44117e-05
6.14714e-05
5.81782e-05
5.45796e-05
5.0734e-05
4.67095e-05
4.25801e-05
3.8423e-05
3.43141e-05
3.03242e-05
2.65157e-05
2.29396e-05
1.96344e-05
1.66244e-05
1.39211e-05
1.15239e-05
9.42205e-06
7.59685e-06
6.02389e-06
4.67613e-06
3.5253e-06
2.54458e-06
1.71143e-06
1.01157e-06
4.46419e-07
5.59148e-08
2.75245e-08
2.35926e-07
5.32582e-07
8.85058e-07
1.27742e-06
1.69907e-06
2.14168e-06
2.59821e-06
3.0624e-06
3.52863e-06
3.9918e-06
4.44733e-06
4.89112e-06
5.31955e-06
5.72944e-06
6.11809e-06
6.48317e-06
6.82277e-06
7.13535e-06
7.4197e-06
7.67493e-06
7.90049e-06
8.09609e-06
8.26176e-06
8.39781e-06
8.50488e-06
8.58391e-06
8.63614e-06
8.66322e-06
8.66714e-06
8.65065e-06
8.61567e-06
8.56566e-06
8.50438e-06
8.43601e-06
8.36521e-06
8.29723e-06
8.23784e-06
8.19342e-06
8.17087e-06
8.17747e-06
8.22061e-06
8.31024e-06
8.45471e-06
8.66275e-06
8.94324e-06
9.3049e-06
9.75603e-06
1.03043e-05
1.09565e-05
1.17183e-05
1.25944e-05
1.35879e-05
1.4701e-05
1.59345e-05
1.72883e-05
1.87616e-05
2.03528e-05
2.20602e-05
2.38823e-05
2.58175e-05
2.78646e-05
3.00232e-05
3.2293e-05
3.46743e-05
3.71678e-05
3.97745e-05
4.24953e-05
4.53313e-05
4.82834e-05
5.13523e-05
5.45385e-05
5.7842e-05
6.12625e-05
6.47993e-05
6.8451e-05
7.2216e-05
7.60918e-05
8.00752e-05
8.41625e-05
8.83489e-05
9.26286e-05
9.69946e-05
0.000101439
0.000105951
0.000110519
0.000115129
0.000119766
0.00012441
0.000129039
0.000133627
0.000138144
0.000142558
0.000146828
0.000150912
0.000154761
0.000158321
0.000161533
0.00016433
0.000166639
0.000168379
0.000169383
0.000169738
0.000169489
0.000168343
0.00016627
0.000163247
0.000159258
0.000154305
0.00014841
0.000141624
0.000134028
0.000125729
0.000116863
0.000107586
9.80687e-05
8.84882e-05
7.90198e-05
6.98266e-05
6.10524e-05
5.28148e-05
4.52017e-05
3.82695e-05
3.20444e-05
2.65246e-05
2.16852e-05
1.74831e-05
1.38623e-05
1.07597e-05
8.11015e-06
5.85176e-06
3.93264e-06
2.31989e-06
1.0173e-06
1.18509e-07
4.49617e-08
3.94994e-07
8.95997e-07
1.49206e-06
2.15577e-06
2.86902e-06
3.61771e-06
4.38989e-06
5.175e-06
5.9635e-06
6.74677e-06
7.51706e-06
8.26742e-06
8.99173e-06
9.68463e-06
1.03415e-05
1.09585e-05
1.15323e-05
1.20604e-05
1.25406e-05
1.29716e-05
1.33524e-05
1.36824e-05
1.39619e-05
1.41912e-05
1.43715e-05
1.45044e-05
1.4592e-05
1.46371e-05
1.4643e-05
1.46145e-05
1.45547e-05
1.44696e-05
1.43655e-05
1.42495e-05
1.41295e-05
1.40143e-05
1.39138e-05
1.38387e-05
1.38008e-05
1.38123e-05
1.38858e-05
1.40382e-05
1.42837e-05
1.46369e-05
1.5113e-05
1.57268e-05
1.64923e-05
1.74226e-05
1.85292e-05
1.98218e-05
2.13081e-05
2.29938e-05
2.48823e-05
2.69752e-05
2.92724e-05
3.17723e-05
3.44727e-05
3.73707e-05
4.04637e-05
4.37493e-05
4.72258e-05
5.08923e-05
5.47488e-05
5.8796e-05
6.30351e-05
6.74678e-05
7.20958e-05
7.69209e-05
8.19445e-05
8.71676e-05
9.25906e-05
9.82133e-05
0.000104035
0.000110052
0.000116264
0.000122664
0.00012925
0.000136013
0.000142946
0.000150041
0.000157284
0.000164664
0.000172166
0.00017977
0.000187456
0.0001952
0.000202974
0.000210746
0.000218478
0.000226128
0.000233648
0.00024098
0.000248063
0.000254826
0.000261189
0.000267065
0.000272358
0.000276961
0.000280754
0.000283608
0.000285219
0.000285767
0.000285334
0.000283395
0.00027991
0.00027484
0.000268155
0.000259852
0.000249965
0.000238576
0.000225816
0.000211864
0.000196946
0.000181324
0.000165289
0.00014914
0.000133175
0.000117671
0.000102873
8.89815e-05
7.61448e-05
6.44587e-05
5.39668e-05
4.46657e-05
3.65127e-05
2.94345e-05
2.33362e-05
1.81108e-05
1.3648e-05
9.84335e-06
6.60954e-06
3.89175e-06
1.69864e-06
1.93083e-07
6.4706e-08
5.74159e-07
1.30698e-06
2.18044e-06
3.15359e-06
4.19958e-06
5.29759e-06
6.43004e-06
7.58138e-06
8.7376e-06
9.88606e-06
1.10154e-05
1.21153e-05
1.31769e-05
1.41923e-05
1.51547e-05
1.60585e-05
1.68988e-05
1.7672e-05
1.83749e-05
1.90056e-05
1.95625e-05
2.0045e-05
2.04532e-05
2.07879e-05
2.10508e-05
2.12441e-05
2.1371e-05
2.14356e-05
2.14429e-05
2.14001e-05
2.13112e-05
2.11854e-05
2.10319e-05
2.08611e-05
2.06846e-05
2.05155e-05
2.03682e-05
2.02584e-05
2.02036e-05
2.02215e-05
2.03306e-05
2.05562e-05
2.09189e-05
2.14402e-05
2.21426e-05
2.30478e-05
2.41765e-05
2.55479e-05
2.71791e-05
2.90844e-05
3.12751e-05
3.37598e-05
3.65435e-05
3.96285e-05
4.30149e-05
4.67006e-05
5.06824e-05
5.49563e-05
5.95188e-05
6.43665e-05
6.94973e-05
7.49101e-05
8.06052e-05
8.65835e-05
9.2847e-05
9.93979e-05
0.000106239
0.000113371
0.000120797
0.000128516
0.000136528
0.00014483
0.000153419
0.00016229
0.000171436
0.000180848
0.000190516
0.000200426
0.000210564
0.000220914
0.000231455
0.000242167
0.000253024
0.000263998
0.000275058
0.000286169
0.00029729
0.000308376
0.000319377
0.000330233
0.00034088
0.000351241
0.000361233
0.000370761
0.000379718
0.000387986
0.000395434
0.000401918
0.000407273
0.000411312
0.000413597
0.000414373
0.000413815
0.000411108
0.000406193
0.00039901
0.000389503
0.000377654
0.000363498
0.00034714
0.000328759
0.000308607
0.000287008
0.000264341
0.000241032
0.000217523
0.000194256
0.000171643
0.000150048
0.000129771
0.000111034
9.39779e-05
7.86686e-05
6.51008e-05
5.32112e-05
4.28914e-05
3.40017e-05
2.63848e-05
1.98789e-05
1.43316e-05
9.61567e-06
5.65274e-06
2.4591e-06
2.76764e-07
8.63428e-08
7.69799e-07
1.75676e-06
2.93531e-06
4.24943e-06
5.66235e-06
7.14572e-06
8.67563e-06
1.0231e-05
1.17929e-05
1.3344e-05
1.48691e-05
1.63543e-05
1.77874e-05
1.91579e-05
2.04565e-05
2.16757e-05
2.2809e-05
2.38513e-05
2.47986e-05
2.5648e-05
2.63977e-05
2.70468e-05
2.75955e-05
2.80449e-05
2.83973e-05
2.86557e-05
2.88246e-05
2.89094e-05
2.89168e-05
2.8857e-05
2.87351e-05
2.85635e-05
2.83548e-05
2.81231e-05
2.78842e-05
2.76557e-05
2.74572e-05
2.731e-05
2.72376e-05
2.72643e-05
2.74148e-05
2.77241e-05
2.82197e-05
2.8931e-05
2.98883e-05
3.11214e-05
3.26584e-05
3.45255e-05
3.67458e-05
3.93389e-05
4.23204e-05
4.57018e-05
4.94902e-05
5.36889e-05
5.82981e-05
6.33153e-05
6.87363e-05
7.45562e-05
8.07703e-05
8.73746e-05
9.43664e-05
0.000101744
0.000109509
0.00011766
0.000126202
0.000135135
0.000144462
0.000154183
0.000164298
0.000174805
0.000185698
0.000196971
0.000208614
0.000220615
0.000232959
0.000245628
0.000258603
0.00027186
0.000285374
0.000299117
0.00031306
0.00032717
0.000341411
0.000355746
0.000370133
0.000384527
0.000398881
0.00041314
0.000427245
0.000441127
0.000454712
0.000467913
0.000480631
0.000492757
0.000504163
0.000514709
0.000524233
0.000532565
0.000539488
0.000544774
0.000547866
0.000548965
0.000548462
0.000545197
0.000539065
0.000529974
0.00051783
0.00050258
0.000484248
0.000462943
0.000438882
0.000412383
0.000383862
0.000353824
0.000322836
0.000291499
0.000260415
0.000230153
0.000201219
0.000174027
0.000148888
0.000126002
0.00010546
8.72595e-05
7.13141e-05
5.74776e-05
4.55608e-05
3.53508e-05
2.66295e-05
1.91919e-05
1.28679e-05
7.55481e-06
3.2789e-06
3.67303e-07
1.09592e-07
9.79591e-07
2.23965e-06
3.74689e-06
5.42898e-06
7.23826e-06
9.13808e-06
1.10976e-05
1.30897e-05
1.50899e-05
1.70761e-05
1.90286e-05
2.09296e-05
2.27636e-05
2.45168e-05
2.61777e-05
2.77363e-05
2.91847e-05
3.05161e-05
3.17256e-05
3.28094e-05
3.37654e-05
3.45924e-05
3.52907e-05
3.58619e-05
3.63087e-05
3.66354e-05
3.68475e-05
3.69522e-05
3.69581e-05
3.68786e-05
3.67195e-05
3.64974e-05
3.62284e-05
3.59306e-05
3.56243e-05
3.53321e-05
3.50791e-05
3.4893e-05
3.48039e-05
3.48427e-05
3.50418e-05
3.54465e-05
3.60915e-05
3.70151e-05
3.82566e-05
3.98541e-05
4.18443e-05
4.42608e-05
4.71337e-05
5.04884e-05
5.4345e-05
5.87185e-05
6.36183e-05
6.9049e-05
7.50108e-05
8.15008e-05
8.8514e-05
9.60444e-05
0.000104086
0.000112634
0.000121685
0.000131236
0.000141288
0.00015184
0.000162893
0.000174449
0.000186504
0.000199057
0.000212101
0.000225627
0.000239622
0.00025407
0.000268949
0.000284234
0.000299899
0.000315911
0.000332236
0.000348837
0.000365674
0.000382707
0.000399894
0.000417193
0.000434559
0.000451947
0.000469312
0.000486607
0.00050378
0.000520778
0.000537543
0.000554006
0.000570094
0.00058572
0.000600784
0.000615167
0.000628736
0.000641331
0.000652771
0.000662859
0.000671336
0.000677941
0.000682051
0.000683641
0.000683439
0.000679979
0.000673016
0.000662432
0.000648079
0.000629855
0.000607747
0.000581857
0.000552418
0.000519797
0.000484496
0.000447133
0.000408419
0.000369119
0.000330007
0.000291826
0.000255239
0.000220799
0.000188923
0.000159883
0.000133809
0.000110705
9.0467e-05
7.29084e-05
5.77883e-05
4.48348e-05
3.37693e-05
2.43308e-05
1.63045e-05
9.56275e-06
4.14358e-06
4.63001e-07
1.3426e-07
1.20192e-06
2.75169e-06
4.60829e-06
6.68204e-06
8.91361e-06
1.12574e-05
1.36749e-05
1.61326e-05
1.86e-05
2.10498e-05
2.34574e-05
2.5801e-05
2.80611e-05
3.02211e-05
3.22665e-05
3.41852e-05
3.59672e-05
3.76045e-05
3.90909e-05
4.0422e-05
4.1595e-05
4.26087e-05
4.34636e-05
4.41616e-05
4.47063e-05
4.51029e-05
4.53586e-05
4.5482e-05
4.54841e-05
4.53818e-05
4.51814e-05
4.49044e-05
4.45704e-05
4.4202e-05
4.38242e-05
4.34652e-05
4.3156e-05
4.2931e-05
4.28276e-05
4.28837e-05
4.31404e-05
4.3654e-05
4.44669e-05
4.56273e-05
4.71838e-05
4.91844e-05
5.16745e-05
5.46963e-05
5.82872e-05
6.24789e-05
6.72967e-05
7.27593e-05
7.88787e-05
8.56605e-05
9.31054e-05
0.00010121
0.000109968
0.000119372
0.000129415
0.00014009
0.000151391
0.000163315
0.000175859
0.00018902
0.000202795
0.000217179
0.000232165
0.000247741
0.000263889
0.000280589
0.000297812
0.000315526
0.000333693
0.000352271
0.00037121
0.000390463
0.000409975
0.000429693
0.000449564
0.000469534
0.000489553
0.00050957
0.000529541
0.00054942
0.000569166
0.000588739
0.000608098
0.000627201
0.000646
0.000664442
0.000682465
0.000699991
0.000716928
0.000733161
0.000748551
0.00076293
0.0007761
0.000787833
0.000797844
0.000805826
0.000811193
0.000813533
0.000813812
0.000810598
0.000803271
0.000791713
0.000775716
0.000755117
0.000729851
0.000699991
0.000665766
0.000627573
0.000585974
0.000541687
0.000495552
0.000448491
0.000401453
0.000355361
0.000311052
0.000269235
0.000230454
0.000195072
0.000163275
0.000135085
0.000110386
8.89572e-05
7.05057e-05
5.46987e-05
4.11947e-05
2.96745e-05
1.98768e-05
1.1649e-05
5.04172e-06
5.62529e-07
1.60206e-07
1.43559e-06
3.29001e-06
5.51444e-06
8.00107e-06
1.06782e-05
1.34905e-05
1.63916e-05
1.93407e-05
2.23011e-05
2.52398e-05
2.81272e-05
3.09369e-05
3.36456e-05
3.62332e-05
3.86824e-05
4.09787e-05
4.31102e-05
4.50673e-05
4.68427e-05
4.84313e-05
4.98298e-05
5.10369e-05
5.20532e-05
5.28814e-05
5.35257e-05
5.39928e-05
5.42911e-05
5.44314e-05
5.44269e-05
5.42983e-05
5.40527e-05
5.37165e-05
5.33135e-05
5.28707e-05
5.24185e-05
5.19908e-05
5.16251e-05
5.1363e-05
5.12497e-05
5.13303e-05
5.16561e-05
5.22946e-05
5.32967e-05
5.47211e-05
5.66271e-05
5.90725e-05
6.21129e-05
6.57994e-05
7.01774e-05
7.52855e-05
8.11545e-05
8.78071e-05
9.52577e-05
0.000103513
0.000112575
0.000122438
0.000133094
0.000144535
0.000156749
0.000169728
0.000183463
0.000197946
0.000213168
0.000229122
0.000245795
0.000263173
0.000281236
0.000299956
0.000319302
0.00033923
0.000359692
0.000380633
0.000401989
0.000423696
0.000445681
0.000467874
0.000490202
0.000512596
0.00053499
0.000557324
0.000579544
0.000601605
0.000623467
0.000645099
0.000666474
0.000687572
0.000708374
0.00072886
0.000749007
0.000768784
0.000788149
0.000807041
0.00082538
0.000843057
0.000859934
0.000875836
0.000890547
0.00090381
0.000915311
0.000924695
0.000931496
0.000934851
0.000935717
0.000933161
0.000925926
0.000913923
0.000896893
0.000874598
0.000846915
0.00081387
0.000775664
0.000732699
0.000685571
0.000635067
0.000582132
0.000527826
0.000473261
0.00041954
0.00036768
0.000318561
0.000272873
0.000231095
0.000193486
0.000160106
0.000130841
0.000105442
8.35702e-05
6.48319e-05
4.88227e-05
3.51636e-05
2.35458e-05
1.37913e-05
5.96406e-06
6.6482e-07
1.87324e-07
1.6797e-06
3.85245e-06
6.46154e-06
9.38033e-06
1.25241e-05
1.58274e-05
1.92352e-05
2.26991e-05
2.61758e-05
2.96263e-05
3.30155e-05
3.63122e-05
3.94891e-05
4.25225e-05
4.53921e-05
4.80809e-05
5.0575e-05
5.28634e-05
5.49376e-05
5.67915e-05
5.84218e-05
5.98269e-05
6.10079e-05
6.19679e-05
6.27124e-05
6.32491e-05
6.35882e-05
6.37427e-05
6.37286e-05
6.35697e-05
6.32751e-05
6.2876e-05
6.24004e-05
6.18804e-05
6.13519e-05
6.0855e-05
6.04344e-05
6.01389e-05
6.00223e-05
6.0137e-05
6.05465e-05
6.1329e-05
6.2545e-05
6.42645e-05
6.65581e-05
6.94947e-05
7.31403e-05
7.75557e-05
8.27951e-05
8.89042e-05
9.59195e-05
0.000103868
0.000112766
0.000122623
0.000133437
0.000145204
0.000157913
0.000171551
0.000186103
0.000201556
0.000217894
0.000235101
0.000253162
0.000272055
0.000291756
0.000312234
0.00033345
0.000355353
0.000377887
0.000400983
0.000424563
0.000448541
0.000472828
0.000497328
0.000521947
0.000546593
0.000571176
0.000595618
0.000619848
0.000643809
0.000667457
0.000690759
0.000713698
0.000736266
0.000758468
0.000780314
0.000801815
0.000822985
0.000843831
0.000864349
0.000884518
0.000904298
0.000923619
0.000942379
0.000960437
0.000977608
0.000993661
0.00100831
0.00102122
0.00103199
0.00104021
0.00104477
0.00104632
0.0010447
0.00103795
0.00102599
0.00100852
0.000985229
0.00095593
0.000920583
0.000879347
0.000832594
0.000780923
0.000725153
0.0006663
0.00060553
0.000544099
0.000483273
0.000424252
0.000368094
0.000315655
0.000267548
0.000224135
0.000185533
0.000151649
0.000122221
9.68702e-05
7.5148e-05
5.65878e-05
4.07509e-05
2.72802e-05
1.5972e-05
6.90309e-06
7.69022e-07
2.15534e-07
1.93355e-06
4.43733e-06
7.44664e-06
1.08154e-05
1.44452e-05
1.826e-05
2.21957e-05
2.61959e-05
3.02101e-05
3.41928e-05
3.81035e-05
4.19058e-05
4.55682e-05
4.90631e-05
5.23673e-05
5.54612e-05
5.83289e-05
6.09577e-05
6.33381e-05
6.54634e-05
6.73297e-05
6.89357e-05
7.02828e-05
7.13749e-05
7.22184e-05
7.28228e-05
7.32002e-05
7.33655e-05
7.33384e-05
7.31452e-05
7.27978e-05
7.23322e-05
7.17813e-05
7.11823e-05
7.0577e-05
7.00122e-05
6.95398e-05
6.9217e-05
6.91063e-05
6.92676e-05
6.97787e-05
7.07278e-05
7.21864e-05
7.42364e-05
7.69605e-05
8.04395e-05
8.47505e-05
8.99647e-05
9.61453e-05
0.000103346
0.000111608
0.000120964
0.000131431
0.000143019
0.000155725
0.000169543
0.000184456
0.000200446
0.000217493
0.000235574
0.000254663
0.000274734
0.000295754
0.000317688
0.000340489
0.000364102
0.000388461
0.000413486
0.000439087
0.000465161
0.000491596
0.000518273
0.000545071
0.000571868
0.000598547
0.000625
0.000651131
0.00067686
0.000702125
0.000726885
0.000751119
0.000774824
0.000798017
0.000820728
0.000843
0.000864881
0.000886423
0.000907673
0.000928669
0.000949431
0.000969961
0.00099023
0.00101018
0.0010297
0.00104865
0.00106683
0.00108399
0.00109982
0.00111398
0.00112603
0.00113553
0.00114139
0.00114366
0.00114309
0.00113715
0.00112565
0.00110829
0.00108469
0.00105459
0.00101788
0.000974653
0.000925217
0.000870139
0.00081023
0.000746535
0.00068029
0.000612857
0.000545649
0.000480039
0.000417265
0.000358363
0.000304106
0.000254978
0.000211185
0.000172674
0.000139189
0.000110323
8.55825e-05
6.44407e-05
4.64005e-05
3.10561e-05
1.8177e-05
7.85289e-06
8.74465e-07
2.44771e-07
2.19659e-06
5.04335e-06
8.46746e-06
1.23027e-05
1.64367e-05
2.07821e-05
2.52652e-05
2.98212e-05
3.43922e-05
3.89259e-05
4.33756e-05
4.77001e-05
5.1863e-05
5.58331e-05
5.95839e-05
6.30932e-05
6.63431e-05
6.93194e-05
7.20115e-05
7.44121e-05
7.65169e-05
7.8325e-05
7.9838e-05
8.10609e-05
8.20015e-05
8.26707e-05
8.30827e-05
8.3255e-05
8.32112e-05
8.29796e-05
8.25759e-05
8.20409e-05
8.14126e-05
8.07339e-05
8.00527e-05
7.9423e-05
7.89043e-05
7.85625e-05
7.84696e-05
7.86932e-05
7.93274e-05
8.04698e-05
8.22037e-05
8.46243e-05
8.78268e-05
9.19048e-05
9.69471e-05
0.000103036
0.000110244
0.000118631
0.000128247
0.000139126
0.000151287
0.000164739
0.000179478
0.000195489
0.000212753
0.000231242
0.000250925
0.000271767
0.000293728
0.000316762
0.000340819
0.000365834
0.000391736
0.000418436
0.000445832
0.000473808
0.000502233
0.000530965
0.000559855
0.000588749
0.000617497
0.000645954
0.000673991
0.000701493
0.000728371
0.000754558
0.000780016
0.000804736
0.000828733
0.000852049
0.000874746
0.0008969
0.000918598
0.00093993
0.000960984
0.00098184
0.00100256
0.00102318
0.00104372
0.00106415
0.00108441
0.00110439
0.00112394
0.00114284
0.00116082
0.00117758
0.00119272
0.00120582
0.0012164
0.00122352
0.00122662
0.00122695
0.00122211
0.00121143
0.00119468
0.00117143
0.00114134
0.00110422
0.00106007
0.00100911
0.00095185
0.000889039
0.000821706
0.000751111
0.00067869
0.000605971
0.00053448
0.000465639
0.000400671
0.000340525
0.00028584
0.000236933
0.000193821
0.000156273
0.000123874
9.60918e-05
7.23473e-05
5.20868e-05
3.48558e-05
2.03962e-05
8.80905e-06
9.80649e-07
2.74986e-07
2.46837e-06
5.66947e-06
9.52218e-06
1.38395e-05
1.84946e-05
2.33884e-05
2.8437e-05
3.35671e-05
3.87124e-05
4.3814e-05
4.88187e-05
5.36798e-05
5.83564e-05
6.28133e-05
6.70206e-05
7.09537e-05
7.45925e-05
7.79214e-05
8.09288e-05
8.36067e-05
8.59508e-05
8.79604e-05
8.96379e-05
9.09892e-05
9.20235e-05
9.27537e-05
9.31962e-05
9.33712e-05
9.33066e-05
9.30325e-05
9.25692e-05
9.19627e-05
9.1256e-05
9.04979e-05
8.97434e-05
8.90535e-05
8.84962e-05
8.81464e-05
8.80862e-05
8.8391e-05
8.91738e-05
9.05399e-05
9.25867e-05
9.54228e-05
9.91571e-05
0.000103896
0.000109742
0.000116786
0.000125113
0.00013479
0.00014587
0.000158392
0.000172374
0.000187824
0.000204732
0.000223076
0.000242827
0.000263946
0.000286386
0.000310094
0.000335009
0.000361062
0.000388171
0.000416242
0.000445165
0.000474811
0.000505035
0.000535677
0.000566562
0.000597506
0.000628323
0.000658829
0.000688852
0.000718235
0.000746845
0.000774582
0.000801374
0.000827188
0.000852026
0.000875924
0.000898949
0.000921196
0.000942778
0.000963819
0.00098445
0.0010048
0.00102498
0.0010451
0.00106524
0.00108543
0.0011057
0.00112601
0.0011463
0.00116644
0.00118626
0.00120556
0.00122404
0.00124138
0.0012572
0.00127105
0.00128243
0.00129067
0.00129469
0.00129571
0.00129215
0.00128261
0.00126693
0.00124464
0.00121533
0.00117872
0.0011347
0.0010834
0.0010252
0.000960768
0.000891064
0.000817327
0.000741019
0.000663754
0.000587188
0.000512917
0.000442354
0.000376648
0.000316611
0.000262703
0.000215038
0.000173438
0.000137494
0.000106652
8.02879e-05
5.77943e-05
3.86683e-05
2.26228e-05
9.76859e-06
1.08724e-06
3.0614e-07
2.74855e-06
6.31489e-06
1.06094e-05
1.54237e-05
2.06159e-05
2.60747e-05
3.1706e-05
3.74267e-05
4.31628e-05
4.88474e-05
5.44213e-05
5.98319e-05
6.50335e-05
6.99868e-05
7.46587e-05
7.9022e-05
8.30546e-05
8.67393e-05
9.00637e-05
9.30194e-05
9.5602e-05
9.78112e-05
9.96502e-05
0.000101126
0.00010225
0.000103037
0.000103505
0.000103678
0.000103588
0.000103268
0.000102742
0.000102062
0.000101277
0.000100442
9.9618e-05
9.88748e-05
9.82889e-05
9.79449e-05
9.79347e-05
9.83437e-05
9.93043e-05
0.000100929
0.000103331
0.000106632
0.000110957
0.000116425
0.00012315
0.000131238
0.000140781
0.000151853
0.000164513
0.000178799
0.000194731
0.00021231
0.000231518
0.000252325
0.000274685
0.000298543
0.000323832
0.000350475
0.000378383
0.000407453
0.000437568
0.000468591
0.000500367
0.000532721
0.000565458
0.00059837
0.000631237
0.000663836
0.000695948
0.000727369
0.000757914
0.000787431
0.000815804
0.000842959
0.000868864
0.000893536
0.00091703
0.000939442
0.000960896
0.000981543
0.00100155
0.00102108
0.00104031
0.00105939
0.00107845
0.00109761
0.00111695
0.00113649
0.00115626
0.0011762
0.00119623
0.00121622
0.00123599
0.00125533
0.00127394
0.0012915
0.00130764
0.00132192
0.00133388
0.00134295
0.00134788
0.0013495
0.0013473
0.00133916
0.00132494
0.00130417
0.00127635
0.00124112
0.00119824
0.00114772
0.0010898
0.00102501
0.000954208
0.000878559
0.000799509
0.000718714
0.000637935
0.000558925
0.000483294
0.000412395
0.000347244
0.000288469
0.000236313
0.000190675
0.000151178
0.000117258
8.8256e-05
6.35165e-05
4.24882e-05
2.48531e-05
1.07299e-05
1.19404e-06
3.382e-07
3.03685e-06
6.97896e-06
1.17279e-05
1.70535e-05
2.2798e-05
2.88378e-05
3.50675e-05
4.13947e-05
4.77362e-05
5.4018e-05
6.01736e-05
6.61448e-05
7.18809e-05
7.73386e-05
8.24815e-05
8.72796e-05
9.1709e-05
9.57512e-05
9.93928e-05
0.000102625
0.000105444
0.000107849
0.000109846
0.000111442
0.00011265
0.000113488
0.000113976
0.000114142
0.000114024
0.000113653
0.000113063
0.000112309
0.000111446
0.000110537
0.00010965
0.000108862
0.00010826
0.000107938
0.000107998
0.000108539
0.00010971
0.000111632
0.000114435
0.000118257
0.000123236
0.000129506
0.000137194
0.000146418
0.000157277
0.000169854
0.00018421
0.000200384
0.000218391
0.000238224
0.000259856
0.000283239
0.000308311
0.000334992
0.000363189
0.000392793
0.000423679
0.000455703
0.000488703
0.000522493
0.000556864
0.00059159
0.000626424
0.000661109
0.000695382
0.000728988
0.000761688
0.000793268
0.000823552
0.000852407
0.000879754
0.000905565
0.000929868
0.000952738
0.000974298
0.00099471
0.00101416
0.00103284
0.00105098
0.00106877
0.00108641
0.00110406
0.00112186
0.00113992
0.0011583
0.00117702
0.00119608
0.0012154
0.00123491
0.00125444
0.00127383
0.00129284
0.00131121
0.00132863
0.00134474
0.00135915
0.00137141
0.00138104
0.00138686
0.00138906
0.00138819
0.00138167
0.00136925
0.00135048
0.00132477
0.00129167
0.00125085
0.00120214
0.00114563
0.00108169
0.00101102
0.000934669
0.00085402
0.000770727
0.000686625
0.0006036
0.000523453
0.000447757
0.000377747
0.00031425
0.000257668
0.000208006
0.000164941
0.000127919
9.62571e-05
6.92552e-05
4.63153e-05
2.70866e-05
1.16925e-05
1.30101e-06
3.71144e-07
3.33306e-06
7.66118e-06
1.28769e-05
1.87274e-05
2.5039e-05
3.16748e-05
3.85181e-05
4.54662e-05
5.2427e-05
5.93184e-05
6.6067e-05
7.26085e-05
7.88872e-05
8.48557e-05
9.04742e-05
9.57101e-05
0.000100538
0.000104937
0.000108895
0.000112401
0.000115452
0.00011805
0.000120198
0.000121909
0.000123195
0.000124078
0.000124582
0.000124736
0.000124584
0.000124159
0.000123503
0.000122675
0.000121737
0.000120758
0.000119815
0.000118994
0.00011839
0.00011811
0.000118263
0.000118967
0.000120385
0.000122649
0.000125905
0.000130306
0.000136007
0.000143157
0.000151896
0.000162351
0.000174632
0.000188826
0.000204996
0.000223178
0.000243381
0.000265586
0.00028975
0.000315806
0.000343666
0.000373221
0.000404344
0.000436885
0.000470675
0.000505522
0.000541209
0.000577495
0.000614114
0.000650784
0.000687207
0.000723081
0.000758109
0.000792016
0.000824555
0.000855525
0.000884775
0.000912215
0.000937819
0.000961626
0.000983732
0.00100429
0.00102348
0.00104155
0.00105872
0.00107524
0.00109137
0.00110733
0.00112331
0.00113947
0.00115594
0.00117281
0.00119012
0.00120787
0.00122604
0.00124454
0.00126325
0.00128204
0.00130072
0.00131909
0.00133689
0.00135384
0.00136961
0.00138385
0.00139616
0.00140611
0.00141279
0.00141568
0.00141593
0.00141121
0.00140085
0.00138447
0.00136137
0.00133106
0.00129305
0.00124705
0.00119296
0.00113097
0.00106158
0.00098569
0.000904555
0.000819788
0.000733254
0.000646954
0.000562862
0.000482777
0.000408172
0.000340101
0.000279154
0.000225474
0.000178818
0.000138661
0.000104307
7.50199e-05
5.01545e-05
2.93253e-05
1.26571e-05
1.40823e-06
4.04951e-07
3.63702e-06
8.36117e-06
1.40557e-05
2.04445e-05
2.73374e-05
3.45835e-05
4.20547e-05
4.96374e-05
5.72302e-05
6.47426e-05
7.20941e-05
7.92142e-05
8.60421e-05
9.25261e-05
9.86233e-05
0.000104299
0.000109524
0.00011428
0.00011855
0.000122327
0.000125606
0.000128389
0.000130684
0.000132502
0.00013386
0.000134782
0.000135294
0.000135431
0.000135242
0.000134761
0.000134036
0.000133136
0.000132126
0.000131083
0.000130094
0.000129252
0.000128665
0.000128449
0.00012872
0.000129624
0.000131328
0.00013398
0.000137744
0.00014279
0.000149287
0.000157399
0.000167279
0.000179065
0.000192875
0.000208799
0.000226899
0.000247205
0.000269716
0.000294398
0.000321186
0.000349987
0.000380681
0.000413123
0.000447142
0.000482541
0.000519099
0.000556565
0.000594664
0.000633094
0.00067153
0.000709634
0.000747062
0.000783476
0.00081856
0.000852033
0.000883662
0.000913277
0.000940775
0.000966129
0.000989385
0.00101066
0.00103013
0.00104802
0.00106458
0.00108012
0.00109491
0.00110922
0.00112333
0.00113745
0.00115178
0.00116646
0.00118159
0.00119722
0.00121339
0.00123006
0.00124718
0.00126466
0.00128237
0.00130017
0.00131788
0.00133532
0.00135225
0.00136841
0.00138353
0.00139731
0.00140939
0.00141938
0.00142677
0.00143058
0.00143166
0.00142898
0.00142105
0.0014074
0.00138729
0.00136025
0.00132566
0.00128309
0.00123229
0.00117321
0.00110614
0.00103177
0.000951206
0.000865958
0.000777879
0.000689044
0.000601589
0.000517532
0.000438601
0.000366101
0.000300845
0.000243142
0.00019286
0.000149521
0.000112432
8.08263e-05
5.40146e-05
3.15738e-05
1.36256e-05
1.51587e-06
4.39608e-07
3.9486e-06
9.07864e-06
1.52638e-05
2.2204e-05
2.96917e-05
3.75623e-05
4.56749e-05
5.39051e-05
6.21417e-05
7.02854e-05
7.82485e-05
8.59542e-05
9.33365e-05
0.00010034
0.000106917
0.000113032
0.000118654
0.000123763
0.000128342
0.000132383
0.000135884
0.000138847
0.00014128
0.000143198
0.000144621
0.000145575
0.00014609
0.000146204
0.000145974
0.000145433
0.000144641
0.000143669
0.000142592
0.000141494
0.000140469
0.000139623
0.000139071
0.000138943
0.000139364
0.000140504
0.000142539
0.000145631
0.000149963
0.000155722
0.000163091
0.000172251
0.000183367
0.000196587
0.000212033
0.000229797
0.000249939
0.000272478
0.000297399
0.000324646
0.000354128
0.000385718
0.000419257
0.000454555
0.000491389
0.000529509
0.000568631
0.000608442
0.000648602
0.000688746
0.000728492
0.000767453
0.000805248
0.000841517
0.00087594
0.000908251
0.000938255
0.000965833
0.000990954
0.00101367
0.0010341
0.00105247
0.00106902
0.00108405
0.00109789
0.00111087
0.0011233
0.00113547
0.00114763
0.00116
0.00117276
0.00118601
0.00119982
0.00121421
0.00122919
0.0012447
0.00126066
0.00127697
0.00129351
0.00131013
0.00132669
0.00134299
0.00135883
0.00137403
0.00138837
0.00140157
0.00141334
0.00142331
0.00143111
0.00143579
0.00143751
0.00143647
0.00143094
0.00142028
0.00140375
0.0013804
0.00134965
0.00131107
0.00126422
0.00120884
0.00114499
0.00107312
0.000994104
0.000909326
0.00082057
0.000729943
0.000639714
0.000552112
0.00046913
0.000392347
0.000322829
0.000261087
0.000207126
0.000160544
0.000120663
8.66954e-05
5.7908e-05
3.38383e-05
1.46004e-05
1.62422e-06
4.75106e-07
4.26772e-06
9.8134e-06
1.65008e-05
2.40051e-05
3.21012e-05
4.06096e-05
4.93767e-05
5.82666e-05
6.71578e-05
7.59423e-05
8.45247e-05
9.28218e-05
0.000100762
0.000108287
0.000115345
0.000121898
0.000127914
0.000133371
0.000138254
0.000142554
0.000146269
0.000149403
0.000151968
0.000153978
0.000155458
0.000156436
0.000156947
0.000157033
0.000156759
0.000156156
0.000155297
0.000154256
0.000153118
0.000151974
0.000150927
0.000150093
0.000149599
0.000149586
0.000150191
0.000151609
0.00015402
0.000157608
0.000162572
0.000169115
0.000177438
0.000187735
0.000200184
0.000214939
0.000232127
0.000251841
0.000274129
0.000299001
0.000326418
0.000356299
0.000388518
0.000422908
0.000459262
0.000497338