/*--------------------------------*- C++ -*----------------------------------*\
  =========                 |
  \\      /  F ield         | OpenFOAM: The Open Source CFD Toolbox
   \\    /   O peration     | Website:  https://openfoam.org
    \\  /    A nd           | Version:  12
     \\/     M anipulation  |
\*---------------------------------------------------------------------------*/
FoamFile
{
    format      ascii;
    class       surfaceScalarField;
    location    "9.5";
    object      phi;
}
// * * * * * * * * * * * * * * * * * * * * * * * * * * * * * * * * * * * * * //

dimensions      [0 3 -1 0 0 0 0];

internalField   nonuniform List<scalar> 
11100
(
-2.75835e-11
2.7548e-11
4.47339e-10
-4.74959e-10
1.353e-09
-9.05697e-10
2.52221e-09
-1.16924e-09
3.82012e-09
-1.2979e-09
5.1465e-09
-1.32638e-09
6.43116e-09
-1.28466e-09
7.62694e-09
-1.19578e-09
8.70383e-09
-1.0769e-09
9.64424e-09
-9.40409e-10
1.04392e-08
-7.94935e-10
1.10852e-08
-6.46007e-10
1.15819e-08
-4.96756e-10
1.19303e-08
-3.48337e-10
1.21303e-08
-2.00085e-10
1.21811e-08
-5.07424e-11
1.2078e-08
1.03082e-10
1.18127e-08
2.65351e-10
1.13721e-08
4.40542e-10
1.07379e-08
6.34253e-10
9.88517e-09
8.52691e-10
8.78218e-09
1.10299e-09
7.38972e-09
1.39245e-09
5.66018e-09
1.72954e-09
3.53738e-09
2.1228e-09
9.55828e-10
2.58156e-09
-2.15944e-09
3.11527e-09
-5.8932e-09
3.73375e-09
-1.03399e-08
4.44668e-09
-1.5603e-08
5.26309e-09
-2.17942e-08
6.19121e-09
-2.90322e-08
7.238e-09
-3.74404e-08
8.4082e-09
-4.71439e-08
9.70354e-09
-5.82658e-08
1.11218e-08
-7.09216e-08
1.26558e-08
-8.52138e-08
1.42922e-08
-1.01224e-07
1.60105e-08
-1.19006e-07
1.77817e-08
-1.38574e-07
1.95682e-08
-1.59897e-07
2.13224e-08
-1.82884e-07
2.29872e-08
-2.0738e-07
2.44958e-08
-2.33152e-07
2.57727e-08
-2.59887e-07
2.67351e-08
-2.87182e-07
2.72945e-08
-3.14541e-07
2.73592e-08
-3.41379e-07
2.68381e-08
-3.67023e-07
2.56439e-08
-3.90721e-07
2.36981e-08
-4.11653e-07
2.09318e-08
-4.28913e-07
1.72603e-08
-4.4163e-07
1.27171e-08
-4.49094e-07
7.46319e-09
-4.50461e-07
1.36773e-09
-4.45013e-07
-5.44871e-09
-4.32382e-07
-1.26311e-08
-4.12393e-07
-1.99883e-08
-3.85227e-07
-2.71663e-08
-3.51458e-07
-3.37692e-08
-3.12087e-07
-3.9371e-08
-2.68533e-07
-4.35538e-08
-2.22576e-07
-4.5957e-08
-1.76246e-07
-4.63305e-08
-1.31663e-07
-4.45825e-08
-9.08513e-08
-4.08116e-08
-5.55419e-08
-3.53094e-08
-2.70106e-08
-2.85313e-08
-5.97165e-09
-2.10389e-08
7.46399e-09
-1.34356e-08
1.37521e-08
-6.28814e-09
1.392e-08
-1.6788e-10
9.61749e-09
4.30251e-09
3.57976e-09
6.03773e-09
3.57976e-09
2.82662e-10
-2.55178e-10
1.70741e-09
-1.89978e-09
4.13666e-09
-3.335e-09
7.22027e-09
-4.25287e-09
1.0638e-08
-4.71565e-09
1.4136e-08
-4.82435e-09
1.75269e-08
-4.67553e-09
2.06792e-08
-4.3481e-09
2.35052e-08
-3.90288e-09
2.59496e-08
-3.38481e-09
2.79802e-08
-2.82556e-09
2.95799e-08
-2.24574e-09
3.07402e-08
-1.65703e-09
3.14556e-08
-1.06369e-09
3.17189e-08
-4.63399e-10
3.15189e-08
1.4927e-10
3.08344e-08
7.87499e-10
2.96337e-08
1.46611e-09
2.78714e-08
2.20279e-09
2.54863e-08
3.01942e-09
2.23988e-08
3.94011e-09
1.85097e-08
4.99208e-09
1.3698e-08
6.20423e-09
7.81936e-09
7.60815e-09
7.05487e-10
9.23666e-09
-7.83811e-09
1.11251e-08
-1.80325e-08
1.33097e-08
-3.01239e-08
1.58252e-08
-4.43824e-08
1.87052e-08
-6.11011e-08
2.19817e-08
-8.05919e-08
2.5682e-08
-1.0318e-07
2.98264e-08
-1.29197e-07
3.44252e-08
-1.5897e-07
3.94759e-08
-1.92807e-07
4.49592e-08
-2.30986e-07
5.08352e-08
-2.73733e-07
5.70394e-08
-3.21202e-07
6.34791e-08
-3.7345e-07
7.00302e-08
-4.30418e-07
7.65353e-08
-4.91898e-07
8.28025e-08
-5.57517e-07
8.86064e-08
-6.26712e-07
9.36904e-08
-6.9871e-07
9.77715e-08
-7.72522e-07
1.00546e-07
-8.46928e-07
1.017e-07
-9.20486e-07
1.00917e-07
-9.9154e-07
9.78925e-08
-1.05824e-06
9.23473e-08
-1.11859e-06
8.40455e-08
-1.17046e-06
7.28047e-08
-1.21169e-06
5.84844e-08
-1.23996e-06
4.09932e-08
-1.25358e-06
2.10807e-08
-1.25078e-06
-1.43069e-09
-1.23017e-06
-2.60644e-08
-1.19085e-06
-5.19491e-08
-1.13276e-06
-7.80766e-08
-1.05663e-06
-1.03295e-07
-9.64129e-07
-1.26273e-07
-8.57903e-07
-1.45597e-07
-7.4156e-07
-1.59896e-07
-6.19525e-07
-1.67992e-07
-4.96785e-07
-1.6907e-07
-3.78541e-07
-1.62827e-07
-2.69776e-07
-1.49576e-07
-1.74817e-07
-1.30269e-07
-9.69374e-08
-1.06411e-07
-3.80793e-08
-7.98971e-08
1.28358e-09
-5.27985e-08
2.22097e-08
-2.72143e-08
2.71961e-08
-5.15426e-09
2.04404e-08
1.10582e-08
8.30123e-09
1.81769e-08
1.1881e-08
7.24413e-10
-9.79542e-10
3.08308e-09
-4.25845e-09
6.81971e-09
-7.07165e-09
1.14759e-08
-8.9091e-09
1.6609e-08
-9.84878e-09
2.18528e-08
-1.00681e-08
2.6927e-08
-9.74975e-09
3.16286e-08
-9.04968e-09
3.5817e-08
-8.0913e-09
3.93996e-08
-6.96739e-09
4.23181e-08
-5.74405e-09
4.45369e-08
-4.46453e-09
4.60332e-08
-3.15338e-09
4.67888e-08
-1.8193e-09
4.67829e-08
-4.5751e-10
4.59865e-08
9.45701e-10
4.43558e-08
2.41825e-09
4.18294e-08
3.99245e-09
3.83241e-08
5.70808e-09
3.37305e-08
7.61309e-09
2.79099e-08
9.7607e-09
2.06923e-08
1.22096e-08
1.18728e-08
1.50237e-08
1.20929e-09
1.82717e-08
-1.15805e-08
2.20264e-08
-2.68174e-08
2.63621e-08
-4.4861e-08
3.13532e-08
-6.61096e-08
3.70738e-08
-9.09982e-08
4.35938e-08
-1.19992e-07
5.09757e-08
-1.5358e-07
5.92701e-08
-1.92264e-07
6.85102e-08
-2.36544e-07
7.87049e-08
-2.869e-07
8.98321e-08
-3.43771e-07
1.0183e-07
-4.07528e-07
1.14592e-07
-4.7844e-07
1.27952e-07
-5.56645e-07
1.41684e-07
-6.42111e-07
1.55496e-07
-7.346e-07
1.69024e-07
-8.33631e-07
1.81834e-07
-9.38453e-07
1.93428e-07
-1.04801e-06
2.03248e-07
-1.16093e-06
2.10694e-07
-1.27552e-06
2.15137e-07
-1.38976e-06
2.15939e-07
-1.50132e-06
2.12477e-07
-1.6076e-06
2.04172e-07
-1.70577e-06
1.90517e-07
-1.79283e-06
1.71108e-07
-1.86571e-06
1.45682e-07
-1.92136e-06
1.14134e-07
-1.9566e-06
7.62379e-08
-1.96914e-06
3.36198e-08
-1.95678e-06
-1.37915e-08
-1.91774e-06
-6.51113e-08
-1.85123e-06
-1.1845e-07
-1.75749e-06
-1.71824e-07
-1.63784e-06
-2.2294e-07
-1.49492e-06
-2.69197e-07
-1.33265e-06
-3.07865e-07
-1.15624e-06
-3.36307e-07
-9.71966e-07
-3.52266e-07
-7.86869e-07
-3.54167e-07
-6.0829e-07
-3.41407e-07
-4.43312e-07
-3.14554e-07
-2.98173e-07
-2.75408e-07
-1.77706e-07
-2.26877e-07
-8.49176e-08
-1.72686e-07
-2.07188e-08
-1.16997e-07
1.61667e-08
-6.40997e-08
2.92613e-08
-1.82489e-08
2.45096e-08
1.58099e-08
1.06238e-08
3.20627e-08
2.25048e-08
1.16908e-09
-2.14865e-09
4.40094e-09
-7.49035e-09
9.26315e-09
-1.19339e-08
1.52095e-08
-1.48555e-08
2.17131e-08
-1.63523e-08
2.83273e-08
-1.66823e-08
3.47012e-08
-1.61237e-08
4.05735e-08
-1.4922e-08
4.57578e-08
-1.32757e-08
5.01264e-08
-1.1336e-08
5.35941e-08
-9.21175e-09
5.61038e-08
-6.97425e-09
5.76143e-08
-4.66386e-09
5.80894e-08
-2.29433e-09
5.74889e-08
1.42912e-10
5.57602e-08
2.67442e-09
5.28318e-08
5.34667e-09
4.86075e-08
8.21671e-09
4.29607e-08
1.1355e-08
3.57298e-08
1.4844e-08
2.6714e-08
1.87765e-08
1.56689e-08
2.32547e-08
2.30215e-09
2.83905e-08
-1.37273e-08
3.43011e-08
-3.28104e-08
4.11095e-08
-5.53903e-08
4.8942e-08
-8.19614e-08
5.79244e-08
-1.13066e-07
6.81787e-08
-1.4929e-07
7.98175e-08
-1.91252e-07
9.29376e-08
-2.39593e-07
1.07612e-07
-2.94961e-07
1.23878e-07
-3.57984e-07
1.41728e-07
-4.2925e-07
1.61098e-07
-5.09267e-07
1.81848e-07
-5.98431e-07
2.03756e-07
-6.9698e-07
2.26501e-07
-8.04951e-07
2.49654e-07
-9.22128e-07
2.72674e-07
-1.04801e-06
2.94901e-07
-1.18174e-06
3.15568e-07
-1.32212e-06
3.33807e-07
-1.46754e-06
3.48669e-07
-1.616e-06
3.59151e-07
-1.76509e-06
3.64229e-07
-1.91204e-06
3.6289e-07
-2.05374e-06
3.54177e-07
-2.1868e-06
3.37233e-07
-2.30763e-06
3.11344e-07
-2.41251e-06
2.75993e-07
-2.49774e-06
2.30908e-07
-2.5597e-06
1.7609e-07
-2.59518e-06
1.11722e-07
-2.60116e-06
3.95989e-08
-2.57538e-06
-3.95716e-08
-2.51631e-06
-1.24179e-07
-2.4234e-06
-2.11363e-07
-2.29724e-06
-2.97986e-07
-2.13975e-06
-3.80426e-07
-1.9543e-06
-4.54644e-07
-1.74574e-06
-5.16429e-07
-1.52032e-06
-5.61721e-07
-1.28556e-06
-5.87033e-07
-1.04982e-06
-5.89903e-07
-8.21894e-07
-5.69333e-07
-6.10333e-07
-5.26115e-07
-4.22788e-07
-4.62953e-07
-2.65341e-07
-3.84325e-07
-1.41946e-07
-2.96081e-07
-5.40509e-08
-2.04892e-07
-4.03301e-10
-1.17747e-07
2.3121e-08
-4.17732e-08
2.35097e-08
1.54212e-08
1.10025e-08
4.45699e-08
3.35073e-08
1.56976e-09
-3.71837e-09
5.57513e-09
-1.14957e-08
1.13871e-08
-1.77459e-08
1.8373e-08
-2.18413e-08
2.59417e-08
-2.39211e-08
3.35888e-08
-2.43294e-08
4.09109e-08
-2.34457e-08
4.76008e-08
-2.16119e-08
5.3434e-08
-1.91088e-08
5.8251e-08
-1.61531e-08
6.19403e-08
-1.29011e-08
6.44218e-08
-9.45571e-09
6.56326e-08
-5.87468e-09
6.55148e-08
-2.17649e-09
6.40041e-08
1.65359e-09
6.10199e-08
5.65857e-09
5.64582e-08
9.90838e-09
5.01833e-08
1.44916e-08
4.20215e-08
1.95168e-08
3.17551e-08
2.51104e-08
1.91165e-08
3.14152e-08
3.78443e-09
3.85867e-08
-1.46188e-08
4.67937e-08
-3.65315e-08
5.62138e-08
-6.24541e-08
6.70322e-08
-9.29486e-08
7.94365e-08
-1.28636e-07
9.36121e-08
-1.70193e-07
1.09735e-07
-2.18339e-07
1.27963e-07
-2.73828e-07
1.48427e-07
-3.37428e-07
1.71211e-07
-4.09896e-07
1.96346e-07
-4.91952e-07
2.23784e-07
-5.84237e-07
2.53382e-07
-6.87272e-07
2.84883e-07
-8.0141e-07
3.17894e-07
-9.26781e-07
3.51871e-07
-1.06324e-06
3.8611e-07
-1.2103e-06
4.19735e-07
-1.36711e-06
4.5171e-07
-1.53238e-06
4.80844e-07
-1.7044e-06
5.05823e-07
-1.88097e-06
5.25238e-07
-2.05945e-06
5.37634e-07
-2.23678e-06
5.4156e-07
-2.40951e-06
5.35625e-07
-2.5739e-06
5.18562e-07
-2.72595e-06
4.89282e-07
-2.86155e-06
4.46945e-07
-2.97657e-06
3.91015e-07
-3.06699e-06
3.21324e-07
-3.12902e-06
2.38127e-07
-3.15942e-06
1.42118e-07
-3.15515e-06
3.53318e-08
-3.11409e-06
-8.06304e-08
-3.03503e-06
-2.03244e-07
-2.91773e-06
-3.2866e-07
-2.76319e-06
-4.52532e-07
-2.57376e-06
-5.69854e-07
-2.3533e-06
-6.75104e-07
-2.1072e-06
-7.6253e-07
-1.84233e-06
-8.26585e-07
-1.56691e-06
-8.62455e-07
-1.29014e-06
-8.66681e-07
-1.02172e-06
-8.37752e-07
-7.71245e-07
-7.76587e-07
-5.47453e-07
-6.86745e-07
-3.57463e-07
-5.74315e-07
-2.06119e-07
-4.47424e-07
-9.54815e-08
-3.1553e-07
-2.45148e-08
-1.88714e-07
1.10503e-08
-7.73384e-08
1.88515e-08
7.62008e-09
1.00213e-08
5.34001e-08
4.35286e-08
1.90802e-09
-5.62641e-09
6.56492e-09
-1.61527e-08
1.31498e-08
-2.43307e-08
2.09423e-08
-2.96339e-08
2.92978e-08
-3.22766e-08
3.76689e-08
-3.27005e-08
4.56138e-08
-3.13905e-08
5.27905e-08
-2.87887e-08
5.89437e-08
-2.5262e-08
6.38863e-08
-2.10957e-08
6.74817e-08
-1.64965e-08
6.96261e-08
-1.16001e-08
7.02334e-08
-6.482e-09
6.9221e-08
-1.16406e-09
6.64967e-08
4.37788e-09
6.19485e-08
1.02067e-08
5.54357e-08
1.64211e-08
4.67792e-08
2.31481e-08
3.57538e-08
3.05422e-08
2.20824e-08
3.87818e-08
5.43046e-09
4.80671e-08
-1.46002e-08
5.86174e-08
-3.8475e-08
7.06684e-08
-6.6729e-08
8.44678e-08
-9.99682e-08
1.00271e-07
-1.38867e-07
1.18336e-07
-1.84167e-07
1.38911e-07
-2.36662e-07
1.6223e-07
-2.97193e-07
1.88495e-07
-3.66625e-07
2.17859e-07
-4.45825e-07
2.50411e-07
-5.35626e-07
2.86147e-07
-6.36791e-07
3.24949e-07
-7.49966e-07
3.66557e-07
-8.75622e-07
4.1054e-07
-1.014e-06
4.56274e-07
-1.16505e-06
5.02923e-07
-1.32837e-06
5.49426e-07
-1.50313e-06
5.94497e-07
-1.68806e-06
6.3664e-07
-1.88139e-06
6.74175e-07
-2.08085e-06
7.0528e-07
-2.28367e-06
7.28052e-07
-2.4866e-06
7.40567e-07
-2.68601e-06
7.40965e-07
-2.8779e-06
7.27519e-07
-3.05805e-06
6.98716e-07
-3.22211e-06
6.53337e-07
-3.36568e-06
5.9052e-07
-3.4845e-06
5.09834e-07
-3.57452e-06
4.11342e-07
-3.63206e-06
2.9567e-07
-3.65401e-06
1.64066e-07
-3.63763e-06
1.89537e-08
-3.58108e-06
-1.37184e-07
-3.48347e-06
-3.00854e-07
-3.34488e-06
-4.67244e-07
-3.1666e-06
-6.3082e-07
-2.95121e-06
-7.85237e-07
-2.7028e-06
-9.23514e-07
-2.42696e-06
-1.03837e-06
-2.13081e-06
-1.12274e-06
-1.82286e-06
-1.17041e-06
-1.51275e-06
-1.17679e-06
-1.21079e-06
-1.13971e-06
-9.27332e-07
-1.06005e-06
-6.71971e-07
-9.42105e-07
-4.52768e-07
-7.93518e-07
-2.75441e-07
-6.24751e-07
-1.42748e-07
-4.48224e-07
-5.4073e-08
-2.77389e-07
-5.22745e-09
-1.26184e-07
1.1648e-08
-9.25534e-09
8.13242e-09
5.69156e-08
5.1661e-08
2.17806e-09
-7.80445e-09
7.35411e-09
-2.13287e-08
1.45337e-08
-3.15104e-08
2.29108e-08
-3.80109e-08
3.17934e-08
-4.11592e-08
4.06014e-08
-4.15085e-08
4.88652e-08
-3.96544e-08
5.62177e-08
-3.61411e-08
6.23789e-08
-3.14232e-08
6.71385e-08
-2.58553e-08
7.03368e-08
-1.96948e-08
7.18476e-08
-1.31108e-08
7.156e-08
-6.19437e-09
6.93636e-08
1.03226e-09
6.51366e-08
8.60496e-09
5.8732e-08
1.66113e-08
4.99685e-08
2.51847e-08
3.86205e-08
3.44961e-08
2.44102e-08
4.47525e-08
6.99964e-09
5.61923e-08
-1.40156e-08
6.90823e-08
-3.91116e-08
8.37135e-08
-6.88402e-08
1.00397e-07
-1.03831e-07
1.19458e-07
-1.4479e-07
1.41231e-07
-1.92499e-07
1.66045e-07
-2.47806e-07
1.94218e-07
-3.11613e-07
2.26037e-07
-3.8486e-07
2.61742e-07
-4.685e-07
3.01499e-07
-5.63466e-07
3.45376e-07
-6.70628e-07
3.9331e-07
-7.9075e-07
4.45071e-07
-9.24426e-07
5.00233e-07
-1.07202e-06
5.58133e-07
-1.23359e-06
6.17849e-07
-1.40885e-06
6.78176e-07
-1.59704e-06
7.37624e-07
-1.79697e-06
7.9442e-07
-2.00687e-06
8.46546e-07
-2.22448e-06
8.9178e-07
-2.44697e-06
9.27767e-07
-2.67102e-06
9.52103e-07
-2.89287e-06
9.62426e-07
-3.10843e-06
9.56518e-07
-3.31331e-06
9.32403e-07
-3.50303e-06
8.88434e-07
-3.67307e-06
8.23376e-07
-3.81903e-06
7.36478e-07
-3.93673e-06
6.27537e-07
-4.02235e-06
4.96957e-07
-4.07249e-06
3.45818e-07
-4.08437e-06
1.75939e-07
-4.05563e-06
-9.78207e-09
-3.98478e-06
-2.08038e-07
-3.87121e-06
-4.14427e-07
-3.71521e-06
-6.2324e-07
-3.51818e-06
-8.27853e-07
-3.28274e-06
-1.02068e-06
-3.01291e-06
-1.19334e-06
-2.71419e-06
-1.33709e-06
-2.39364e-06
-1.44329e-06
-2.0598e-06
-1.50425e-06
-1.72247e-06
-1.51412e-06
-1.39232e-06
-1.46985e-06
-1.08029e-06
-1.37208e-06
-7.96759e-07
-1.22564e-06
-5.50677e-07
-1.0396e-06
-3.4867e-07
-8.26758e-07
-1.94292e-07
-6.02602e-07
-8.75037e-08
-3.84177e-07
-2.44231e-08
-1.89265e-07
2.74162e-09
-3.642e-08
5.6732e-09
5.3984e-08
5.73342e-08
2.38042e-09
-1.01849e-08
7.94036e-09
-2.68887e-08
1.55369e-08
-3.9107e-08
2.4284e-08
-4.67579e-08
3.34474e-08
-5.03226e-08
4.2422e-08
-5.04831e-08
5.07189e-08
-4.79513e-08
5.79529e-08
-4.33751e-08
6.3826e-08
-3.72963e-08
6.81089e-08
-3.01382e-08
7.06215e-08
-2.22074e-08
7.12148e-08
-1.37042e-08
6.97526e-08
-4.73219e-09
6.60967e-08
4.68818e-09
6.00922e-08
1.46094e-08
5.15553e-08
2.51482e-08
4.02624e-08
3.64776e-08
2.59395e-08
4.8819e-08
8.2532e-09
6.24388e-08
-1.3197e-08
7.76425e-08
-3.88856e-08
9.47709e-08
-6.93661e-08
1.14194e-07
-1.05275e-07
1.36306e-07
-1.47331e-07
1.61515e-07
-1.96338e-07
1.90237e-07
-2.53173e-07
2.22879e-07
-3.18779e-07
2.59824e-07
-3.94151e-07
3.01408e-07
-4.80305e-07
3.47897e-07
-5.78256e-07
3.9945e-07
-6.88967e-07
4.56088e-07
-8.1331e-07
5.17652e-07
-9.51995e-07
5.83757e-07
-1.10551e-06
6.53751e-07
-1.27406e-06
7.26678e-07
-1.45746e-06
8.01246e-07
-1.65509e-06
8.75812e-07
-1.86585e-06
9.48381e-07
-2.08807e-06
1.01664e-06
-2.31951e-06
1.07799e-06
-2.55739e-06
1.12966e-06
-2.79837e-06
1.16875e-06
-3.03867e-06
1.1924e-06
-3.27411e-06
1.19787e-06
-3.50027e-06
1.18268e-06
-3.71259e-06
1.14472e-06
-3.9065e-06
1.08235e-06
-4.07757e-06
9.9444e-07
-4.22158e-06
8.80487e-07
-4.33466e-06
7.4062e-07
-4.41337e-06
5.75663e-07
-4.45473e-06
3.87186e-07
-4.45636e-06
1.77565e-07
-4.41632e-06
-4.98179e-08
-4.33343e-06
-2.90932e-07
-4.20726e-06
-5.406e-07
-4.03817e-06
-7.92331e-07
-3.82747e-06
-1.03854e-06
-3.57762e-06
-1.27053e-06
-3.29232e-06
-1.47865e-06
-2.97674e-06
-1.65266e-06
-2.63762e-06
-1.7824e-06
-2.2833e-06
-1.85857e-06
-1.92356e-06
-1.87386e-06
-1.56928e-06
-1.82413e-06
-1.2319e-06
-1.70946e-06
-9.22547e-07
-1.53499e-06
-6.51083e-07
-1.31106e-06
-4.25115e-07
-1.05273e-06
-2.49102e-07
-7.78615e-07
-1.23735e-07
-5.09544e-07
-4.56214e-08
-2.67378e-07
-7.25837e-09
-7.47831e-08
2.88293e-09
4.38427e-08
6.02171e-08
2.51873e-09
-1.27036e-08
8.32905e-09
-3.2699e-08
1.61668e-08
-4.69447e-08
2.50752e-08
-5.56662e-08
3.42836e-08
-5.9531e-08
4.31678e-08
-5.93673e-08
5.12264e-08
-5.60099e-08
5.80628e-08
-5.02115e-08
6.33664e-08
-4.26e-08
6.68929e-08
-3.36646e-08
6.84441e-08
-2.37586e-08
6.78492e-08
-1.31094e-08
6.49473e-08
-1.83029e-09
5.95709e-08
1.00646e-08
5.15314e-08
2.2649e-08
4.06064e-08
3.60732e-08
2.65281e-08
5.05558e-08
8.9723e-09
6.63748e-08
-1.2451e-08
8.38621e-08
-3.82054e-08
1.03397e-07
-6.8835e-08
1.254e-07
-1.04969e-07
1.50328e-07
-1.47326e-07
1.78662e-07
-1.9671e-07
2.10899e-07
-2.54012e-07
2.47539e-07
-3.20195e-07
2.89063e-07
-3.96286e-07
3.35915e-07
-4.83348e-07
3.88471e-07
-5.82455e-07
4.47004e-07
-6.94649e-07
5.11644e-07
-8.20894e-07
5.82333e-07
-9.62012e-07
6.5877e-07
-1.11862e-06
7.40363e-07
-1.29105e-06
8.26178e-07
-1.47926e-06
9.14895e-07
-1.6828e-06
1.00478e-06
-1.90068e-06
1.09369e-06
-2.13137e-06
1.17907e-06
-2.37274e-06
1.25801e-06
-2.62207e-06
1.32733e-06
-2.8761e-06
1.38368e-06
-3.13104e-06
1.42369e-06
-3.38273e-06
1.44409e-06
-3.62674e-06
1.44188e-06
-3.8585e-06
1.41444e-06
-4.07343e-06
1.35965e-06
-4.26709e-06
1.27602e-06
-4.43532e-06
1.16267e-06
-4.57427e-06
1.01944e-06
-4.68052e-06
8.46873e-07
-4.75112e-06
6.46254e-07
-4.78356e-06
4.19633e-07
-4.77588e-06
1.69885e-07
-4.72653e-06
-9.91726e-08
-4.63453e-06
-3.82931e-07
-4.49952e-06
-6.75604e-07
-4.32179e-06
-9.70065e-07
-4.1024e-06
-1.25794e-06
-3.84338e-06
-1.52955e-06
-3.54797e-06
-1.77406e-06
-3.22079e-06
-1.97985e-06
-2.86807e-06
-2.13512e-06
-2.49774e-06
-2.22889e-06
-2.11944e-06
-2.25217e-06
-1.74416e-06
-2.19941e-06
-1.38377e-06
-2.06985e-06
-1.05015e-06
-1.86861e-06
-7.54158e-07
-1.60706e-06
-5.04466e-07
-1.30242e-06
-3.06582e-07
-9.765e-07
-1.62075e-07
-6.54051e-07
-6.82078e-08
-3.61245e-07
-1.79373e-08
-1.25054e-07
-9.93556e-11
2.60048e-08
6.01178e-08
2.59778e-09
-1.53014e-08
8.5293e-09
-3.86305e-08
1.64361e-08
-5.48516e-08
2.53025e-08
-6.45325e-08
3.43282e-08
-6.85568e-08
4.28758e-08
-6.79149e-08
5.04372e-08
-6.35713e-08
5.66103e-08
-5.63846e-08
6.10766e-08
-4.70663e-08
6.35803e-08
-3.61684e-08
6.3908e-08
-2.40863e-08
6.18688e-08
-1.10701e-08
5.72769e-08
2.76159e-09
4.99354e-08
1.74061e-08
3.96215e-08
3.29629e-08
2.6073e-08
4.96217e-08
8.97679e-09
6.76521e-08
-1.20425e-08
8.73942e-08
-3.74317e-08
1.09251e-07
-6.77172e-08
1.33682e-07
-1.03511e-07
1.61195e-07
-1.45517e-07
1.92334e-07
-1.94529e-07
2.27674e-07
-2.51431e-07
2.67802e-07
-3.17192e-07
3.133e-07
-3.9285e-07
3.64721e-07
-4.79496e-07
4.22561e-07
-5.78245e-07
4.87219e-07
-6.90198e-07
5.58957e-07
-8.16396e-07
6.37843e-07
-9.57762e-07
7.23699e-07
-1.11503e-06
8.16038e-07
-1.28867e-06
9.14002e-07
-1.4788e-06
1.01631e-06
-1.68513e-06
1.12122e-06
-1.90683e-06
1.22649e-06
-2.14254e-06
1.3294e-06
-2.39028e-06
1.42681e-06
-2.64746e-06
1.51519e-06
-2.91091e-06
1.59077e-06
-3.17693e-06
1.6497e-06
-3.44141e-06
1.68817e-06
-3.69993e-06
1.70262e-06
-3.94795e-06
1.6899e-06
-4.18091e-06
1.6474e-06
-4.39442e-06
1.57316e-06
-4.58434e-06
1.46594e-06
-4.74691e-06
1.32524e-06
-4.8788e-06
1.15132e-06
-4.97711e-06
9.45187e-07
-5.03942e-06
7.08561e-07
-5.06372e-06
4.4393e-07
-5.04842e-06
1.54585e-07
-4.99226e-06
-1.55328e-07
-4.8944e-06
-4.80787e-07
-4.75443e-06
-8.15583e-07
-4.57237e-06
-1.15212e-06
-4.34892e-06
-1.48139e-06
-4.08555e-06
-1.79291e-06
-3.78484e-06
-2.07477e-06
-3.45069e-06
-2.31399e-06
-3.08868e-06
-2.49714e-06
-2.70619e-06
-2.61138e-06
-2.31255e-06
-2.64582e-06
-1.91878e-06
-2.59317e-06
-1.53716e-06
-2.45148e-06
-1.18032e-06
-2.22544e-06
-8.60193e-07
-1.92719e-06
-5.86662e-07
-1.57595e-06
-3.66434e-07
-1.19673e-06
-2.02125e-07
-8.1836e-07
-9.1807e-08
-4.71563e-07
-2.90336e-08
-1.87827e-07
-3.12412e-09
9.5315e-11
5.69936e-08
2.62252e-09
-1.7924e-08
8.55166e-09
-4.45597e-08
1.636e-08
-6.26599e-08
2.49862e-08
-7.31588e-08
3.36086e-08
-7.71791e-08
4.15825e-08
-7.58887e-08
4.83987e-08
-7.03875e-08
5.36545e-08
-6.16404e-08
5.70283e-08
-5.04401e-08
5.82565e-08
-3.73966e-08
5.71125e-08
-2.29423e-08
5.3387e-08
-7.34466e-09
4.68706e-08
9.27804e-09
3.73368e-08
2.69398e-08
2.45282e-08
4.57715e-08
8.14239e-09
6.60075e-08
-1.21795e-08
8.7974e-08
-3.6864e-08
1.12079e-07
-6.64143e-08
1.38802e-07
-1.01418e-07
1.68687e-07
-1.42555e-07
2.02331e-07
-1.90596e-07
2.40375e-07
-2.46407e-07
2.83485e-07
-3.10944e-07
3.32339e-07
-3.85243e-07
3.87598e-07
-4.70401e-07
4.49879e-07
-5.67557e-07
5.19717e-07
-6.77852e-07
5.97515e-07
-8.0239e-07
6.83494e-07
-9.42175e-07
7.77628e-07
-1.09805e-06
8.79575e-07
-1.27062e-06
9.88608e-07
-1.46016e-06
1.10355e-06
-1.66655e-06
1.2227e-06
-1.88916e-06
1.34383e-06
-2.1268e-06
1.46413e-06
-2.3777e-06
1.5803e-06
-2.63942e-06
1.68854e-06
-2.90896e-06
1.78472e-06
-3.18272e-06
1.86454e-06
-3.45669e-06
1.92367e-06
-3.72651e-06
1.95799e-06
-3.98768e-06
1.96379e-06
-4.23568e-06
1.9379e-06
-4.46615e-06
1.87786e-06
-4.67501e-06
1.78202e-06
-4.85857e-06
1.6495e-06
-5.0136e-06
1.48027e-06
-5.13733e-06
1.27506e-06
-5.22745e-06
1.0353e-06
-5.28203e-06
7.63148e-07
-5.29953e-06
4.61428e-07
-5.27868e-06
1.33737e-07
-5.21843e-06
-2.15577e-07
-5.11796e-06
-5.81258e-07
-4.97668e-06
-9.56861e-07
-4.79432e-06
-1.33448e-06
-4.57102e-06
-1.70469e-06
-4.30763e-06
-2.0563e-06
-4.00593e-06
-2.37648e-06
-3.66899e-06
-2.65093e-06
-3.30157e-06
-2.86456e-06
-2.91037e-06
-3.00257e-06
-2.50428e-06
-3.05191e-06
-2.09425e-06
-3.00321e-06
-1.69287e-06
-2.85285e-06
-1.3136e-06
-2.60472e-06
-9.6948e-07
-2.27131e-06
-6.71774e-07
-1.87366e-06
-4.28565e-07
-1.43994e-06
-2.437e-07
-1.00323e-06
-1.16226e-07
-5.99037e-07
-4.0415e-08
-2.63638e-07
-6.18749e-09
-3.41322e-08
5.08061e-08
2.59749e-09
-2.05215e-08
8.40659e-09
-5.03688e-08
1.59539e-08
-7.02072e-08
2.41471e-08
-8.1352e-08
3.21517e-08
-8.51838e-08
3.93226e-08
-8.30596e-08
4.51551e-08
-7.62199e-08
4.92508e-08
-6.57361e-08
5.1289e-08
-5.24782e-08
5.10016e-08
-3.71093e-08
4.81518e-08
-2.00924e-08
4.25134e-08
-1.70632e-09
3.38541e-08
1.79373e-08
2.19188e-08
3.88751e-08
6.41524e-09
6.1275e-08
-1.29989e-08
8.54217e-08
-3.6728e-08
1.11703e-07
-6.52491e-08
1.406e-07
-9.91206e-08
1.72673e-07
-1.3899e-07
2.08556e-07
-1.85598e-07
2.48939e-07
-2.39782e-07
2.94559e-07
-3.02472e-07
3.46175e-07
-3.74685e-07
4.04552e-07
-4.5751e-07
4.70424e-07
-5.52092e-07
5.44461e-07
-6.59593e-07
6.27218e-07
-7.81158e-07
7.1908e-07
-9.17862e-07
8.20197e-07
-1.07064e-06
9.30406e-07
-1.24022e-06
1.04915e-06
-1.42703e-06
1.17542e-06
-1.63113e-06
1.30764e-06
-1.85208e-06
1.44365e-06
-2.08892e-06
1.58067e-06
-2.34007e-06
1.71529e-06
-2.60334e-06
1.84356e-06
-2.87587e-06
1.96107e-06
-3.15427e-06
2.06312e-06
-3.43462e-06
2.14489e-06
-3.71268e-06
2.20172e-06
-3.98399e-06
2.2293e-06
-4.24408e-06
2.22388e-06
-4.48862e-06
2.18244e-06
-4.71358e-06
2.10282e-06
-4.91532e-06
1.98376e-06
-5.09071e-06
1.82488e-06
-5.23708e-06
1.62664e-06
-5.35227e-06
1.39024e-06
-5.4345e-06
1.11754e-06
-5.48237e-06
8.11015e-07
-5.49468e-06
4.7374e-07
-5.47044e-06
1.09495e-07
-5.40871e-06
-2.77309e-07
-5.30862e-06
-6.81351e-07
-5.16935e-06
-1.09613e-06
-4.99022e-06
-1.51361e-06
-4.77083e-06
-1.92408e-06
-4.51127e-06
-2.31586e-06
-4.21247e-06
-2.67528e-06
-3.87656e-06
-2.98683e-06
-3.50735e-06
-3.23377e-06
-3.11074e-06
-3.39918e-06
-2.69501e-06
-3.46764e-06
-2.27088e-06
-3.42734e-06
-1.85123e-06
-3.2725e-06
-1.45025e-06
-3.00569e-06
-1.08223e-06
-2.63934e-06
-7.5992e-07
-2.19596e-06
-4.93004e-07
-1.70685e-06
-2.86763e-07
-1.20947e-06
-1.41402e-07
-7.44397e-07
-5.20353e-08
-3.53005e-07
-9.25457e-09
-7.69129e-08
4.15516e-08
2.52667e-09
-2.30482e-08
8.10372e-09
-5.59459e-08
1.52327e-08
-7.73361e-08
2.28049e-08
-8.89242e-08
2.99832e-08
-9.2362e-08
3.6129e-08
-8.92054e-08
4.07479e-08
-8.08388e-08
4.34507e-08
-6.84389e-08
4.39217e-08
-5.29492e-08
4.18918e-08
-3.50794e-08
3.71159e-08
-1.53166e-08
2.93533e-08
6.05632e-09
1.83498e-08
2.89409e-08
3.82228e-09
5.34026e-08
-1.45553e-08
7.96526e-08
-3.71648e-08
1.08031e-07
-6.44552e-08
1.38994e-07
-9.69527e-08
1.73097e-07
-1.35269e-07
2.10989e-07
-1.80108e-07
2.53395e-07
-2.32268e-07
3.011e-07
-2.92645e-07
3.54936e-07
-3.62225e-07
4.15755e-07
-4.42075e-07
4.84402e-07
-5.33327e-07
5.61675e-07
-6.37148e-07
6.48282e-07
-7.54708e-07
7.44778e-07
-8.8713e-07
8.51502e-07
-1.03543e-06
9.68494e-07
-1.20043e-06
1.09541e-06
-1.38272e-06
1.23145e-06
-1.58252e-06
1.37522e-06
-1.7996e-06
1.52472e-06
-2.03323e-06
1.67728e-06
-2.28207e-06
1.8295e-06
-2.54415e-06
1.97737e-06
-2.81687e-06
2.11628e-06
-3.09701e-06
2.24121e-06
-3.38083e-06
2.34694e-06
-3.66421e-06
2.42827e-06
-3.94278e-06
2.48029e-06
-4.21211e-06
2.49863e-06
-4.4679e-06
2.47967e-06
-4.70614e-06
2.42068e-06
-4.92323e-06
2.31991e-06
-5.11607e-06
2.1766e-06
-5.2821e-06
1.99091e-06
-5.41927e-06
1.76381e-06
-5.52599e-06
1.49695e-06
-5.60101e-06
1.19256e-06
-5.64333e-06
8.53337e-07
-5.65207e-06
4.82483e-07
-5.62644e-06
8.38585e-08
-5.56554e-06
-3.38209e-07
-5.46841e-06
-7.78478e-07
-5.33398e-06
-1.23056e-06
-5.16113e-06
-1.68645e-06
-4.94888e-06
-2.13633e-06
-4.69656e-06
-2.56818e-06
-4.40418e-06
-2.96766e-06
-4.07288e-06
-3.31814e-06
-3.7054e-06
-3.60124e-06
-3.30667e-06
-3.79792e-06
-2.88419e-06
-3.89012e-06
-2.44832e-06
-3.86321e-06
-2.01204e-06
-3.70878e-06
-1.59025e-06
-3.42748e-06
-1.1985e-06
-3.03109e-06
-8.51205e-07
-2.54325e-06
-5.59842e-07
-1.99821e-06
-3.31374e-07
-1.43794e-06
-1.67367e-07
-9.08404e-07
-6.39115e-08
-4.5646e-07
-1.23305e-08
-1.28494e-07
2.92211e-08
2.41332e-09
-2.54615e-08
7.65146e-09
-6.1184e-08
1.42097e-08
-8.38944e-08
2.09779e-08
-9.56924e-08
2.71265e-08
-9.85106e-08
3.20317e-08
-9.41105e-08
3.52151e-08
-8.40222e-08
3.6302e-08
-6.95258e-08
3.49855e-08
-5.16327e-08
3.09986e-08
-3.10925e-08
2.40908e-08
-8.40877e-09
1.40082e-08
1.61389e-08
4.76517e-10
4.24726e-08
-1.68142e-08
7.06933e-08
-3.82229e-08
1.01061e-07
-6.41699e-08
1.33978e-07
-9.51472e-08
1.69971e-07
-1.31728e-07
2.09678e-07
-1.74575e-07
2.53836e-07
-2.24443e-07
3.03263e-07
-2.82184e-07
3.58841e-07
-3.48745e-07
4.21496e-07
-4.25157e-07
4.92167e-07
-5.12527e-07
5.71771e-07
-6.1201e-07
6.61159e-07
-7.24783e-07
7.61055e-07
-8.51997e-07
8.71992e-07
-9.94725e-07
9.94229e-07
-1.15389e-06
1.12766e-06
-1.3302e-06
1.27172e-06
-1.52403e-06
1.42528e-06
-1.73537e-06
1.58656e-06
-1.96371e-06
1.75306e-06
-2.20796e-06
1.92153e-06
-2.46643e-06
2.08797e-06
-2.73676e-06
2.2477e-06
-3.01597e-06
2.39549e-06
-3.30055e-06
2.52578e-06
-3.5865e-06
2.6329e-06
-3.86958e-06
2.71135e-06
-4.14542e-06
2.75613e-06
-4.40974e-06
2.76296e-06
-4.65853e-06
2.72846e-06
-4.88819e-06
2.65034e-06
-5.09563e-06
2.52735e-06
-5.27833e-06
2.35931e-06
-5.43433e-06
2.14691e-06
-5.56215e-06
1.89163e-06
-5.66073e-06
1.59554e-06
-5.72929e-06
1.26112e-06
-5.76721e-06
8.91249e-07
-5.77382e-06
4.89094e-07
-5.74847e-06
5.85104e-08
-5.69029e-06
-3.96385e-07
-5.59822e-06
-8.70551e-07
-5.47092e-06
-1.35787e-06
-5.30687e-06
-1.8505e-06
-5.1045e-06
-2.3387e-06
-4.8624e-06
-2.81028e-06
-4.57967e-06
-3.2504e-06
-4.25636e-06
-3.64145e-06
-3.89407e-06
-3.96353e-06
-3.4966e-06
-4.19539e-06
-3.07051e-06
-4.31621e-06
-2.62554e-06
-4.30818e-06
-2.17461e-06
-4.15971e-06
-1.73322e-06
-3.86886e-06
-1.31817e-06
-3.44614e-06
-9.45664e-07
-2.91576e-06
-6.29186e-07
-2.31469e-06
-3.77642e-07
-1.68948e-06
-1.94205e-07
-1.09184e-06
-7.61034e-08
-5.74561e-07
-1.54347e-08
-1.89163e-07
1.37864e-08
2.26007e-09
-2.77216e-08
7.0568e-09
-6.59808e-08
1.28966e-08
-8.97342e-08
1.86821e-08
-1.01478e-07
2.36026e-08
-1.03431e-07
2.70578e-08
-9.75657e-08
2.85916e-08
-8.5556e-08
2.78487e-08
-6.87829e-08
2.45353e-08
-4.83193e-08
1.83896e-08
-2.49468e-08
9.15811e-09
8.22681e-10
-3.42403e-09
2.8721e-08
-1.96498e-08
5.86983e-08
-3.98546e-08
9.08981e-08
-6.44289e-08
1.25636e-07
-9.38296e-08
1.63379e-07
-1.2859e-07
2.04731e-07
-1.69327e-07
2.50416e-07
-2.16751e-07
3.01259e-07
-2.71663e-07
3.58175e-07
-3.34962e-07
4.2214e-07
-4.07636e-07
4.9417e-07
-4.90753e-07
5.75284e-07
-5.85443e-07
6.66462e-07
-6.92872e-07
7.68588e-07
-8.14202e-07
8.82385e-07
-9.50544e-07
1.00833e-06
-1.1029e-06
1.14658e-06
-1.27207e-06
1.29683e-06
-1.45859e-06
1.45824e-06
-1.66264e-06
1.62933e-06
-1.88393e-06
1.80785e-06
-2.12164e-06
1.99077e-06
-2.37435e-06
2.17424e-06
-2.63998e-06
2.35361e-06
-2.91584e-06
2.52356e-06
-3.19864e-06
2.67829e-06
-3.48459e-06
2.81173e-06
-3.76958e-06
2.91788e-06
-4.04932e-06
2.99109e-06
-4.31956e-06
3.02638e-06
-4.57629e-06
3.01968e-06
-4.81586e-06
2.96803e-06
-5.03517e-06
2.86964e-06
-5.23168e-06
2.72386e-06
-5.40344e-06
2.53107e-06
-5.54906e-06
2.29253e-06
-5.6676e-06
2.01018e-06
-5.75848e-06
1.68641e-06
-5.8213e-06
1.32394e-06
-5.85576e-06
9.25708e-07
-5.86138e-06
4.9471e-07
-5.83761e-06
3.47398e-08
-5.78358e-06
-4.50414e-07
-5.69812e-06
-9.56008e-07
-5.5797e-06
-1.47628e-06
-5.42644e-06
-2.00377e-06
-5.23623e-06
-2.52891e-06
-5.00694e-06
-3.03957e-06
-4.73677e-06
-3.52057e-06
-4.42467e-06
-3.95355e-06
-4.07102e-06
-4.31718e-06
-3.67834e-06
-4.58808e-06
-3.25202e-06
-4.74253e-06
-2.80098e-06
-4.75922e-06
-2.33783e-06
-4.62286e-06
-1.87849e-06
-4.32821e-06
-1.44093e-06
-3.88369e-06
-1.04323e-06
-3.31346e-06
-7.01113e-07
-2.65681e-06
-4.25697e-07
-1.96489e-06
-2.2203e-07
-1.29551e-06
-8.86911e-08
-7.079e-07
-1.85979e-08
-2.59256e-07
-4.81144e-09
2.06887e-09
-2.97905e-08
6.32524e-09
-7.02372e-08
1.13026e-08
-9.47115e-08
1.59309e-08
-1.06106e-07
1.94298e-08
-1.0693e-07
2.12312e-08
-9.9367e-08
2.09084e-08
-8.52332e-08
1.8131e-08
-6.60055e-08
1.26221e-08
-4.28104e-08
4.12843e-09
-1.64531e-08
-7.60391e-09
1.2555e-08
-2.28489e-08
4.3966e-08
-4.19163e-08
7.77657e-08
-6.51652e-08
1.14147e-07
-9.3016e-08
1.53486e-07
-1.2596e-07
1.96323e-07
-1.64569e-07
2.4334e-07
-2.09501e-07
2.95348e-07
-2.61507e-07
3.53265e-07
-3.21431e-07
4.181e-07
-3.90211e-07
4.9092e-07
-4.68866e-07
5.72825e-07
-5.58489e-07
6.64907e-07
-6.60219e-07
7.68192e-07
-7.75214e-07
8.83583e-07
-9.04604e-07
1.01177e-06
-1.04944e-06
1.15317e-06
-1.2106e-06
1.30775e-06
-1.38877e-06
1.475e-06
-1.58429e-06
1.65376e-06
-1.7971e-06
1.84213e-06
-2.02661e-06
2.03737e-06
-2.27171e-06
2.23587e-06
-2.53061e-06
2.43314e-06
-2.80092e-06
2.62391e-06
-3.07962e-06
2.80226e-06
-3.36316e-06
2.96183e-06
-3.6476e-06
3.09618e-06
-3.92878e-06
3.19906e-06
-4.20247e-06
3.26479e-06
-4.46465e-06
3.28856e-06
-4.71163e-06
3.26666e-06
-4.94023e-06
3.19663e-06
-5.14786e-06
3.07726e-06
-5.33253e-06
2.90853e-06
-5.49286e-06
2.6914e-06
-5.62798e-06
2.42766e-06
-5.73742e-06
2.11962e-06
-5.82099e-06
1.76998e-06
-5.87861e-06
1.38157e-06
-5.91029e-06
9.57386e-07
-5.91571e-06
5.00128e-07
-5.8944e-06
1.34289e-08
-5.84548e-06
-4.99327e-07
-5.76769e-06
-1.03381e-06
-5.6594e-06
-1.58457e-06
-5.51842e-06
-2.14475e-06
-5.34219e-06
-2.70515e-06
-5.12792e-06
-3.25384e-06
-4.87292e-06