/*--------------------------------*- C++ -*----------------------------------*\
  =========                 |
  \\      /  F ield         | OpenFOAM: The Open Source CFD Toolbox
   \\    /   O peration     | Website:  https://openfoam.org
    \\  /    A nd           | Version:  12
     \\/     M anipulation  |
\*---------------------------------------------------------------------------*/
FoamFile
{
    format      ascii;
    class       volScalarField;
    location    "0.1";
    object      k;
}
// * * * * * * * * * * * * * * * * * * * * * * * * * * * * * * * * * * * * * //

dimensions      [0 2 -2 0 0 0 0];

internalField   nonuniform List<scalar> 
400
(
2.22045e-16
2.22045e-16
2.22045e-16
2.22045e-16
2.22045e-16
2.22045e-16
2.22045e-16
2.22045e-16
2.22045e-16
2.22045e-16
2.22045e-16
2.22045e-16
2.22045e-16
2.22045e-16
2.22045e-16
2.22045e-16
2.22045e-16
2.22045e-16
2.22045e-16
2.22045e-16
2.22045e-16
2.22045e-16
2.22045e-16
2.6697e-16
4.19748e-16
5.76291e-16
7.19945e-16
8.38427e-16
9.22555e-16
9.66132e-16
9.66034e-16
9.22274e-16
8.38001e-16
7.19431e-16
5.75759e-16
4.19273e-16
2.66625e-16
2.22045e-16
2.22045e-16
2.22045e-16
2.22045e-16
2.22045e-16
3.53859e-16
6.85382e-16
1.04734e-15
1.40049e-15
1.71631e-15
1.97269e-15
2.15295e-15
2.24582e-15
2.24561e-15
2.15234e-15
1.97176e-15
1.71518e-15
1.39931e-15
1.04624e-15
6.84515e-16
3.53323e-16
2.22045e-16
2.22045e-16
2.22045e-16
2.22045e-16
6.35759e-16
1.18564e-15
1.77036e-15
2.33496e-15
2.83687e-15
3.24266e-15
3.52717e-15
3.67349e-15
3.6731e-15
3.52606e-15
3.24097e-15
2.83481e-15
2.3328e-15
1.76836e-15
1.18403e-15
6.34695e-16
2.22045e-16
2.22045e-16
2.22045e-16
3.28064e-16
9.45367e-16
1.70539e-15
2.50688e-15
3.27778e-15
3.96161e-15
4.51373e-15
4.90047e-15
5.09918e-15
5.09851e-15
4.89853e-15
4.51079e-15
3.95804e-15
3.27403e-15
2.50339e-15
1.70256e-15
9.43462e-16
3.27166e-16
2.22045e-16
2.22045e-16
4.63845e-16
1.25107e-15
2.20425e-15
3.20368e-15
4.16249e-15
5.01189e-15
5.69715e-15
6.17688e-15
6.42314e-15
6.42199e-15
6.17356e-15
5.69212e-15
5.0058e-15
4.1561e-15
3.19774e-15
2.19942e-15
1.2478e-15
4.62256e-16
2.22045e-16
2.22045e-16
5.91114e-16
1.52793e-15
2.64788e-15
3.81683e-15
4.93593e-15
5.92623e-15
6.72463e-15
7.28321e-15
7.56958e-15
7.56765e-15
7.27762e-15
6.71618e-15
5.91603e-15
4.92525e-15
3.80694e-15
2.63984e-15
1.52245e-15
5.88424e-16
2.22045e-16
2.22045e-16
6.97592e-16
1.75489e-15
3.00734e-15
4.31005e-15
5.55513e-15
6.65583e-15
7.5426e-15
8.1625e-15
8.4797e-15
8.47653e-15
8.15334e-15
7.52879e-15
6.63918e-15
5.53775e-15
4.29401e-15
2.99433e-15
1.74603e-15
6.93207e-16
2.22045e-16
2.22045e-16
7.74152e-16
1.91614e-15
3.26085e-15
4.6562e-15
5.98811e-15
7.16457e-15
8.11161e-15
8.77289e-15
9.11027e-15
9.10526e-15
8.75838e-15
8.08976e-15
7.13829e-15
5.96075e-15
4.631e-15
3.24047e-15
1.90228e-15
7.67278e-16
2.22045e-16
2.22045e-16
8.14943e-16
2.00147e-15
3.39433e-15
4.83768e-15
6.21417e-15
7.42901e-15
8.40598e-15
9.08709e-15
9.4331e-15
9.42546e-15
9.06495e-15
8.37267e-15
7.38902e-15
6.17261e-15
4.79951e-15
3.36356e-15
1.98058e-15
8.04599e-16
2.22045e-16
2.22045e-16
8.17119e-16
2.00591e-15
3.40094e-15
4.84594e-15
6.2232e-15
7.4377e-15
8.41316e-15
9.09175e-15
9.43442e-15
9.42333e-15
9.05962e-15
8.36486e-15
7.37976e-15
6.16309e-15
4.79084e-15
3.35664e-15
1.97594e-15
8.02323e-16
2.22045e-16
2.22045e-16
7.80626e-16
1.92943e-15
3.28069e-15
4.68106e-15
6.01532e-15
7.19078e-15
8.13329e-15
8.78698e-15
9.11429e-15
9.09893e-15
8.74249e-15
8.06643e-15
7.11064e-15
5.9323e-15
4.60515e-15
3.21988e-15
1.8885e-15
7.60551e-16
2.22045e-16
2.22045e-16
7.07928e-16
1.77628e-15
3.03942e-15
4.35031e-15
5.59922e-15
6.69828e-15
7.57771e-15
8.18529e-15
8.48618e-15
8.46624e-15
8.12755e-15
7.49093e-15
6.59429e-15
5.49159e-15
4.2521e-15
2.96103e-15
1.72385e-15
6.82474e-16
2.22045e-16
2.22045e-16
6.04468e-16
1.55597e-15
2.69025e-15
3.87019e-15
4.99444e-15
5.98255e-15
6.77116e-15
7.31335e-15
7.57816e-15
7.55401e-15
7.24343e-15
6.666e-15
5.85652e-15
4.86409e-15
3.75149e-15
2.59594e-15
1.49344e-15
5.74609e-16
2.22045e-16
2.22045e-16
4.78765e-16
1.28314e-15
2.25325e-15
3.26566e-15
4.23052e-15
5.07732e-15
5.75113e-15
6.21175e-15
6.43308e-15
6.40618e-15
6.13392e-15
5.63391e-15
4.93673e-15
4.08512e-15
3.1335e-15
2.14882e-15
1.21471e-15
4.46921e-16
2.22045e-16
2.22045e-16
3.42481e-16
9.77571e-16
1.75538e-15
2.57044e-15
3.34757e-15
4.02861e-15
4.56884e-15
4.93594e-15
5.10932e-15
5.08238e-15
4.85809e-15
4.45131e-15
3.88736e-15
3.20131e-15
2.43765e-15
1.65106e-15
9.10291e-16
3.12412e-16
2.22045e-16
2.22045e-16
2.22045e-16
6.63403e-16
1.22958e-15
1.82657e-15
2.3966e-15
2.89583e-15
3.29094e-15
3.5581e-15
3.6824e-15
3.65902e-15
3.49064e-15
3.18872e-15
2.77249e-15
2.26847e-15
1.71013e-15
1.13865e-15
6.06114e-16
2.22045e-16
2.22045e-16
2.22045e-16
2.22045e-16
3.72243e-16
7.16327e-16
1.08734e-15
1.44432e-15
1.75803e-15
2.00667e-15
2.17459e-15
2.25212e-15
2.23566e-15
2.12723e-15
1.93452e-15
1.67047e-15
1.35279e-15
1.00383e-15
6.51549e-16
3.33622e-16
2.22045e-16
2.22045e-16
2.22045e-16
2.22045e-16
2.22045e-16
2.80311e-16
4.3831e-16
5.97053e-16
7.39829e-16
8.54627e-16
9.32824e-16
9.6899e-16
9.6093e-16
9.09755e-16
8.19352e-16
6.97027e-16
5.52679e-16
3.98969e-16
2.52314e-16
2.22045e-16
2.22045e-16
2.22045e-16
2.22045e-16
2.22045e-16
2.22045e-16
2.22045e-16
2.22045e-16
2.22045e-16
2.22045e-16
2.22045e-16
2.22045e-16
2.22045e-16
2.22045e-16
2.22045e-16
2.22045e-16
2.22045e-16
2.22045e-16
2.22045e-16
2.22045e-16
2.22045e-16
2.22045e-16
2.22045e-16
)
;

boundaryField
{
    movingWall
    {
        type            kqRWallFunction;
        value           uniform 2.22045e-16;
    }
    fixedWalls
    {
        type            kqRWallFunction;
        value           uniform 2.22045e-16;
    }
    frontAndBack
    {
        type            empty;
    }
}


// ************************************************************************* //
