/*--------------------------------*- C++ -*----------------------------------*\
  =========                 |
  \\      /  F ield         | OpenFOAM: The Open Source CFD Toolbox
   \\    /   O peration     | Website:  https://openfoam.org
    \\  /    A nd           | Version:  12
     \\/     M anipulation  |
\*---------------------------------------------------------------------------*/
FoamFile
{
    format      ascii;
    class       volScalarField;
    location    "0.1";
    object      p;
}
// * * * * * * * * * * * * * * * * * * * * * * * * * * * * * * * * * * * * * //

dimensions      [0 2 -2 0 0 0 0];

internalField   nonuniform List<scalar> 
400
(
-1.25727e-07
0.000377164
0.000551295
0.000299253
-0.000382988
-0.00144304
-0.0028162
-0.0044322
-0.00621902
-0.00810672
-0.0100277
-0.0119158
-0.0137032
-0.0153198
-0.0166936
-0.0177541
-0.0184364
-0.018688
-0.0185132
-0.0181353
-0.000293681
0.000166483
0.000360245
7.63383e-05
-0.00063521
-0.00169767
-0.00304431
-0.00461068
-0.00633213
-0.00814549
-0.00998924
-0.0118028
-0.0135246
-0.0150913
-0.0164383
-0.0175007
-0.018212
-0.0184952
-0.0183004
-0.0178392
0.00137048
0.00176714
0.00181479
0.00131355
0.000363061
-0.000928229
-0.00248122
-0.00422966
-0.00611242
-0.00807352
-0.0100604
-0.0120218
-0.013905
-0.0156539
-0.0172071
-0.0184983
-0.0194481
-0.0199479
-0.0198981
-0.0194993
0.00584346
0.00584625
0.00537864
0.00432178
0.00281491
0.000992546
-0.00105121
-0.00324857
-0.00554021
-0.00788499
-0.010247
-0.0125926
-0.0148859
-0.0170833
-0.0191284
-0.0209512
-0.0224572
-0.0235116
-0.0239751
-0.023968
0.0136841
0.0127677
0.0112021
0.00908289
0.00659102
0.00387799
0.00104812
-0.00183211
-0.0047257
-0.00761837
-0.0105098
-0.0134042
-0.0163008
-0.0191847
-0.022018
-0.0247332
-0.0272249
-0.0293406
-0.0308989
-0.0318069
0.0255524
0.0228917
0.0193489
0.0154467
0.0114096
0.00738719
0.00348138
-0.000262968
-0.00385359
-0.00733707
-0.0107836
-0.014271
-0.0178688
-0.0216223
-0.0255375
-0.0295674
-0.0336078
-0.0375064
-0.0410372
-0.0436823
0.0419912
0.0363028
0.029459
0.0227637
0.0164744
0.0106961
0.00549701
0.000863225
-0.00330507
-0.00717101
-0.0109349
-0.014809
-0.0189926
-0.0236466
-0.0288679
-0.0346663
-0.0409686
-0.0476639
-0.0544897
-0.0601521
0.0629969
0.0523315
0.0402577
0.029408
0.0200356
0.0121146
0.00561668
0.000402024
-0.00380243
-0.00736701
-0.0107175
-0.0142975
-0.0185313
-0.0237864
-0.030331
-0.038298
-0.0477063
-0.0585693
-0.070623
-0.0812492
0.0872095
0.0687312
0.0487284
0.0319922
0.0186824
0.00848154
0.0011493
-0.00369544
-0.00662935
-0.00837003
-0.00971318
-0.0114794
-0.0144633
-0.0193795
-0.0267989
-0.0370925
-0.0504846
-0.0672692
-0.087263
-0.105693
0.11052
0.0802873
0.0487807
0.0241477
0.0062739
-0.00572971
-0.0125167
-0.0148976
-0.013952
-0.0109496
-0.00726206
-0.0042939
-0.00341822
-0.00590578
-0.0128331
-0.0250002
-0.0430374
-0.0677939
-0.0993381
-0.129536
0.123803
0.0766268
0.0292114
-0.00529021
-0.0276068
-0.0396722
-0.0428908
-0.0387975
-0.0292635
-0.0163917
-0.00240268
0.0104439
0.0199175
0.0238995
0.0205063
0.00820255
-0.0143919
-0.0491523
-0.0967256
-0.143941
0.109331
0.0388469
-0.0293291
-0.0748806
-0.0997785
-0.107791
-0.101629
-0.0839958
-0.057948
-0.0267723
0.00614077
0.0373616
0.0634677
0.0811171
0.0871941
0.0789517
0.0536799
0.00767497
-0.0609057
-0.131638
0.0352329
-0.0655813
-0.158743
-0.214149
-0.236191
-0.231807
-0.205914
-0.163028
-0.107874
-0.0452932
0.019862
0.0827165
0.138334
0.181729
0.208006
0.212496
0.190185
0.134154
0.0401762
-0.0613306
-0.153222
-0.290561
-0.409783
-0.468219
-0.475008
-0.442564
-0.379453
-0.292864
-0.189672
-0.076497
0.0402656
0.154271
0.258942
0.347319
0.412171
0.445902
0.439588
0.380662
0.260106
0.121299
-0.548532
-0.723883
-0.861033
-0.903104
-0.868889
-0.78029
-0.651677
-0.493832
-0.315928
-0.126122
0.0681977
0.259828
0.44116
0.603674
0.737329
0.830306
0.867304
0.825901
0.687174
0.509314
-1.31218
-1.5109
-1.63331
-1.61139
-1.4843
-1.29023
-1.05186
-0.783764
-0.496615
-0.198539
0.104198
0.405939
0.700067
0.977652
1.22665
1.43091
1.56614
1.59243
1.46962
1.2677
-2.73138
-2.89141
-2.90675
-2.71189
-2.38976
-2.00562
-1.5914
-1.16332
-0.72931
-0.292045
0.148341
0.59222
1.03856
1.48301
1.91601
2.31975
2.65927
2.86618
2.85525
2.69339
-5.33453
-5.25661
-4.90856
-4.30771
-3.61165
-2.91183
-2.23962
-1.60023
-0.98831
-0.392892
0.199833
0.80436
1.43407
2.09878
2.80156
3.53313
4.25772
4.88106
5.24224
5.32428
-11.1826
-9.54073
-7.66715
-6.05722
-4.724
-3.6043
-2.65476
-1.83637
-1.10859
-0.431983
0.231225
0.918074
1.66654
2.5156
3.50456
4.66978
6.0497
7.69915
9.60202
11.2636
-29.316
-19.966
-13.208
-9.10227
-6.39378
-4.46386
-3.05231
-1.99195
-1.15159
-0.428672
0.260501
0.995048
1.85884
2.95379
4.41246
6.40296
9.18325
13.3626
20.1807
29.568
)
;

boundaryField
{
    movingWall
    {
        type            zeroGradient;
    }
    fixedWalls
    {
        type            zeroGradient;
    }
    frontAndBack
    {
        type            empty;
    }
}


// ************************************************************************* //
