/*--------------------------------*- C++ -*----------------------------------*\
  =========                 |
  \\      /  F ield         | OpenFOAM: The Open Source CFD Toolbox
   \\    /   O peration     | Website:  https://openfoam.org
    \\  /    A nd           | Version:  12
     \\/     M anipulation  |
\*---------------------------------------------------------------------------*/
FoamFile
{
    format      ascii;
    class       volScalarField;
    location    "4";
    object      epsilon;
}
// * * * * * * * * * * * * * * * * * * * * * * * * * * * * * * * * * * * * * //

dimensions      [0 2 -3 0 0 0 0];

internalField   nonuniform List<scalar> 
5625
(
2.60947e-09
1.30276e-08
2.84297e-08
4.67715e-08
6.70842e-08
8.87532e-08
1.11317e-07
1.34403e-07
1.57699e-07
1.80941e-07
2.03909e-07
2.2642e-07
2.48327e-07
2.6952e-07
2.8992e-07
3.09479e-07
3.28174e-07
3.46007e-07
3.62997e-07
3.79176e-07
3.94586e-07
4.0927e-07
4.23268e-07
4.36618e-07
4.49346e-07
4.61467e-07
4.72983e-07
4.83883e-07
4.94139e-07
5.0371e-07
5.12544e-07
5.20576e-07
5.27729e-07
5.33921e-07
5.39062e-07
5.4306e-07
5.45817e-07
5.4722e-07
5.47267e-07
5.45838e-07
5.42858e-07
5.3827e-07
5.32036e-07
5.24134e-07
5.14565e-07
5.03349e-07
4.90528e-07
4.7617e-07
4.6036e-07
4.43209e-07
4.24845e-07
4.05414e-07
3.85075e-07
3.63999e-07
3.42362e-07
3.20344e-07
2.98123e-07
2.75873e-07
2.53755e-07
2.31922e-07
2.1051e-07
1.89637e-07
1.69407e-07
1.49902e-07
1.31192e-07
1.13329e-07
9.63579e-08
8.03116e-08
6.52262e-08
5.11468e-08
3.81408e-08
2.63199e-08
1.58856e-08
7.25043e-09
1.45087e-09
1.30435e-08
1.0627e-08
1.59429e-08
2.37888e-08
3.29558e-08
4.29365e-08
5.34333e-08
6.4235e-08
7.51764e-08
8.6123e-08
9.69639e-08
1.07608e-07
1.17984e-07
1.28035e-07
1.37722e-07
1.47019e-07
1.55915e-07
1.64409e-07
1.72506e-07
1.80221e-07
1.87571e-07
1.94575e-07
2.01252e-07
2.07616e-07
2.1368e-07
2.1945e-07
2.24925e-07
2.301e-07
2.3496e-07
2.39488e-07
2.43656e-07
2.47434e-07
2.50787e-07
2.53676e-07
2.56059e-07
2.57892e-07
2.59133e-07
2.59729e-07
2.5968e-07
2.58929e-07
2.57445e-07
2.55202e-07
2.52184e-07
2.48383e-07
2.43799e-07
2.38445e-07
2.32341e-07
2.2552e-07
2.18023e-07
2.09902e-07
2.01217e-07
1.92037e-07
1.82435e-07
1.72491e-07
1.62285e-07
1.51902e-07
1.41425e-07
1.30931e-07
1.20499e-07
1.10197e-07
1.00089e-07
9.02325e-08
8.06747e-08
7.14565e-08
6.26114e-08
5.41671e-08
4.61474e-08
3.8573e-08
3.14679e-08
2.48658e-08
1.88205e-08
1.34332e-08
8.92426e-09
5.91161e-09
7.2458e-09
2.86058e-08
1.60546e-08
1.64295e-08
2.03002e-08
2.5782e-08
3.21741e-08
3.91227e-08
4.64098e-08
5.38821e-08
6.14236e-08
6.89421e-08
7.63642e-08
8.36315e-08
9.06991e-08
9.7534e-08
1.04114e-07
1.10427e-07
1.16467e-07
1.22236e-07
1.27741e-07
1.3299e-07
1.37995e-07
1.42766e-07
1.47311e-07
1.51637e-07
1.55745e-07
1.59636e-07
1.63302e-07
1.66734e-07
1.69918e-07
1.72834e-07
1.75461e-07
1.77775e-07
1.79748e-07
1.81352e-07
1.82559e-07
1.83336e-07
1.83656e-07
1.83514e-07
1.82875e-07
1.81719e-07
1.80033e-07
1.77807e-07
1.75038e-07
1.71729e-07
1.67891e-07
1.6354e-07
1.58699e-07
1.53399e-07
1.47676e-07
1.41572e-07
1.35134e-07
1.28411e-07
1.21459e-07
1.14331e-07
1.07084e-07
9.97739e-08
9.24542e-08
8.51765e-08
7.79885e-08
7.09341e-08
6.40525e-08
5.73783e-08
5.09415e-08
4.47684e-08
3.88827e-08
3.33072e-08
2.80665e-08
2.31925e-08
1.87332e-08
1.47706e-08
1.14626e-08
9.16263e-09
8.88581e-09
1.58324e-08
4.74643e-08
2.41948e-08
2.05526e-08
2.17008e-08
2.49422e-08
2.93362e-08
3.44339e-08
3.99753e-08
4.57886e-08
5.17501e-08
5.77652e-08
6.37598e-08
6.96755e-08
7.54667e-08
8.10993e-08
8.65487e-08
9.17987e-08
9.68405e-08
1.01671e-07
1.06291e-07
1.10704e-07
1.14916e-07
1.18933e-07
1.22758e-07
1.26395e-07
1.29844e-07
1.33101e-07
1.36161e-07
1.39013e-07
1.41646e-07
1.44044e-07
1.46188e-07
1.48059e-07
1.49636e-07
1.50896e-07
1.51818e-07
1.52369e-07
1.52542e-07
1.52327e-07
1.51698e-07
1.50643e-07
1.49152e-07
1.4722e-07
1.44847e-07
1.42037e-07
1.38801e-07
1.35154e-07
1.31115e-07
1.26711e-07
1.21971e-07
1.1693e-07
1.11625e-07
1.06097e-07
1.00389e-07
9.45447e-08
8.86095e-08
8.26274e-08
7.66415e-08
7.06929e-08
6.48202e-08
5.90593e-08
5.34428e-08
4.80003e-08
4.27588e-08
3.77437e-08
3.29799e-08
2.84944e-08
2.43199e-08
2.05015e-08
1.71086e-08
1.42596e-08
1.21787e-08
1.13655e-08
1.32905e-08
2.61004e-08
6.89079e-08
3.39492e-08
2.64941e-08
2.53564e-08
2.68768e-08
2.9847e-08
3.37089e-08
3.81499e-08
4.29703e-08
4.80295e-08
5.32219e-08
5.84655e-08
6.36955e-08
6.88611e-08
7.39229e-08
7.88512e-08
8.36251e-08
8.82308e-08
9.26601e-08
9.69096e-08
1.00979e-07
1.04868e-07
1.08581e-07
1.12117e-07
1.15478e-07
1.1866e-07
1.21661e-07
1.24472e-07
1.27085e-07
1.29488e-07
1.31665e-07
1.33603e-07
1.35281e-07
1.36684e-07
1.3779e-07
1.38583e-07
1.39028e-07
1.39132e-07
1.38881e-07
1.38254e-07
1.3724e-07
1.35832e-07
1.34026e-07
1.31824e-07
1.29231e-07
1.26255e-07
1.22912e-07
1.1922e-07
1.15202e-07
1.10886e-07
1.06303e-07
1.01486e-07
9.6473e-08
9.13026e-08
8.6015e-08
8.06504e-08
7.52492e-08
6.98503e-08
6.44914e-08
5.92078e-08
5.40326e-08
4.89967e-08
4.41285e-08
3.94553e-08
3.50041e-08
3.08033e-08
2.68858e-08
2.32942e-08
2.0088e-08
1.73588e-08
1.52615e-08
1.40893e-08
1.44947e-08
1.84673e-08
3.75416e-08
9.26005e-08
4.49339e-08
3.3627e-08
3.03792e-08
3.04257e-08
3.22495e-08
3.51766e-08
3.88386e-08
4.30005e-08
4.74979e-08
5.22118e-08
5.70486e-08
6.1934e-08
6.68087e-08
7.16259e-08
7.63493e-08
8.09518e-08
8.54143e-08
8.97235e-08
9.38716e-08
9.78539e-08
1.01668e-07
1.05314e-07
1.08789e-07
1.12092e-07
1.15219e-07
1.18166e-07
1.20924e-07
1.23485e-07
1.25836e-07
1.27964e-07
1.29854e-07
1.31489e-07
1.32852e-07
1.33927e-07
1.34696e-07
1.35125e-07
1.35225e-07
1.34984e-07
1.34378e-07
1.33399e-07
1.32038e-07
1.30291e-07
1.2816e-07
1.25649e-07
1.22766e-07
1.19524e-07
1.15942e-07
1.12041e-07
1.07848e-07
1.03394e-07
9.87119e-08
9.38391e-08
8.88142e-08
8.36774e-08
7.84694e-08
7.32308e-08
6.8001e-08
6.28181e-08
5.77181e-08
5.27348e-08
4.79002e-08
4.32443e-08
3.87965e-08
3.45868e-08
3.06484e-08
2.70209e-08
2.37561e-08
2.09277e-08
1.865e-08
1.71144e-08
1.66818e-08
1.81709e-08
2.41505e-08
4.98487e-08
1.18364e-07
5.69791e-08
4.1677e-08
3.63729e-08
3.50748e-08
3.59145e-08
3.80859e-08
4.11546e-08
4.48522e-08
4.8994e-08
5.34411e-08
5.80843e-08
6.28366e-08
6.76285e-08
7.2404e-08
7.71191e-08
8.17398e-08
8.6241e-08
9.06047e-08
9.48186e-08
9.88746e-08
1.02768e-07
1.06494e-07
1.10052e-07
1.13436e-07
1.16644e-07
1.19668e-07
1.22502e-07
1.25136e-07
1.27558e-07
1.29755e-07
1.31712e-07
1.33413e-07
1.34842e-07
1.35982e-07
1.36816e-07
1.37309e-07
1.37464e-07
1.3728e-07
1.36728e-07
1.35796e-07
1.34476e-07
1.32762e-07
1.30652e-07
1.28149e-07
1.25261e-07
1.21999e-07
1.1838e-07
1.14426e-07
1.10164e-07
1.05626e-07
1.00848e-07
9.58675e-08
9.07272e-08
8.54704e-08
8.01411e-08
7.47835e-08
6.9441e-08
6.4155e-08
5.89651e-08
5.39085e-08
4.90202e-08
4.43336e-08
3.98817e-08
3.56987e-08
3.18227e-08
2.83004e-08
2.5193e-08
2.25883e-08
2.06216e-08
1.95205e-08
1.97179e-08
2.22119e-08
3.0193e-08
6.28032e-08
1.46098e-07
6.99989e-08
5.05065e-08
4.31358e-08
4.05563e-08
4.05102e-08
4.20443e-08
4.46547e-08
4.80316e-08
5.19619e-08
5.62858e-08
6.08794e-08
6.56426e-08
7.0494e-08
7.53674e-08
8.021e-08
8.49804e-08
8.96472e-08
9.41873e-08
9.85843e-08
1.02827e-07
1.06908e-07
1.10821e-07
1.14564e-07
1.18131e-07
1.21517e-07
1.24717e-07
1.27723e-07
1.30526e-07
1.33113e-07
1.35473e-07
1.3759e-07
1.39447e-07
1.41029e-07
1.42317e-07
1.43292e-07
1.43926e-07
1.44193e-07
1.44118e-07
1.4366e-07
1.42803e-07
1.41537e-07
1.39851e-07
1.37742e-07
1.35208e-07
1.32255e-07
1.28894e-07
1.2514e-07
1.21015e-07
1.16548e-07
1.11773e-07
1.06728e-07
1.01456e-07
9.60049e-08
9.04229e-08
8.47605e-08
7.90683e-08
7.33957e-08
6.77906e-08
6.22984e-08
5.6962e-08
5.18214e-08
4.69151e-08
4.22807e-08
3.79575e-08
3.39892e-08
3.04295e-08
2.73489e-08
2.48487e-08
2.3085e-08
2.23223e-08
2.30684e-08
2.65125e-08
3.64984e-08
7.62399e-08
1.75746e-07
8.39461e-08
6.00403e-08
5.0555e-08
4.67157e-08
4.58476e-08
4.68265e-08
4.90741e-08
5.22351e-08
5.60659e-08
6.03846e-08
6.50483e-08
6.99414e-08
7.49688e-08
8.00531e-08
8.51318e-08
9.01558e-08
9.5087e-08
9.98976e-08
1.04567e-07
1.09082e-07
1.13433e-07
1.17613e-07
1.21618e-07
1.25443e-07
1.29084e-07
1.32535e-07
1.35788e-07
1.38834e-07
1.41662e-07
1.44259e-07
1.4661e-07
1.48698e-07
1.50504e-07
1.52009e-07
1.5319e-07
1.54027e-07
1.54469e-07
1.54545e-07
1.54223e-07
1.53473e-07
1.5228e-07
1.5063e-07
1.48514e-07
1.45927e-07
1.42872e-07
1.39357e-07
1.35398e-07
1.31017e-07
1.26243e-07
1.21114e-07
1.15672e-07
1.09966e-07
1.0405e-07
9.79807e-08
9.18156e-08
8.5614e-08
7.94342e-08
7.33325e-08
6.73623e-08
6.15741e-08
5.6015e-08
5.07298e-08
4.57623e-08
4.11576e-08
3.69656e-08
3.32471e-08
3.00819e-08
2.75846e-08
2.59326e-08
2.54274e-08
2.66559e-08
3.1006e-08
4.29978e-08
9.00318e-08
2.07274e-07
9.8792e-08
7.02333e-08
5.85618e-08
5.34606e-08
5.18092e-08
5.2293e-08
5.42528e-08
5.72826e-08
6.11049e-08
6.55125e-08
7.03416e-08
7.54591e-08
8.0755e-08
8.61397e-08
9.15402e-08
9.6899e-08
1.02172e-07
1.07326e-07
1.12338e-07
1.17192e-07
1.21877e-07
1.26386e-07
1.30715e-07
1.3486e-07
1.38816e-07
1.42579e-07
1.46143e-07
1.49497e-07
1.52631e-07
1.55532e-07
1.58184e-07
1.60569e-07
1.62665e-07
1.64451e-07
1.65901e-07
1.66992e-07
1.67678e-07
1.6794e-07
1.67793e-07
1.67183e-07
1.66087e-07
1.64484e-07
1.62362e-07
1.59712e-07
1.56532e-07
1.52828e-07
1.48615e-07
1.43914e-07
1.38758e-07
1.33187e-07
1.27248e-07
1.20996e-07
1.14493e-07
1.07804e-07
1.00996e-07
9.414e-08
8.73033e-08
8.05531e-08
7.39529e-08
6.75626e-08
6.14383e-08
5.56327e-08
5.0197e-08
4.51833e-08
4.06485e-08
3.66608e-08
3.33095e-08
3.07226e-08
2.90996e-08
2.87795e-08
3.04313e-08
3.56476e-08
4.96417e-08
1.04083e-07
2.40654e-07
1.14517e-07
8.10559e-08
6.71119e-08
6.07312e-08
5.83182e-08
5.83527e-08
6.00858e-08
6.3056e-08
6.69479e-08
7.15256e-08
7.66023e-08
8.20254e-08
8.76688e-08
9.34292e-08
9.92229e-08
1.04984e-07
1.10662e-07
1.16219e-07
1.21629e-07
1.26874e-07
1.31945e-07
1.36833e-07
1.41536e-07
1.4605e-07
1.50372e-07
1.545e-07
1.58425e-07
1.62142e-07
1.65637e-07
1.68898e-07
1.71908e-07
1.74646e-07
1.77088e-07
1.79211e-07
1.80983e-07
1.82376e-07
1.83356e-07
1.8385e-07
1.83907e-07
1.83467e-07
1.82491e-07
1.80952e-07
1.78832e-07
1.76117e-07
1.72801e-07
1.68888e-07
1.6439e-07
1.59329e-07
1.53739e-07
1.47661e-07
1.41151e-07
1.34268e-07
1.27081e-07
1.19667e-07
1.12102e-07
1.04469e-07
9.68475e-08
8.93164e-08
8.19513e-08
7.48237e-08
6.80002e-08
6.15435e-08
5.55137e-08
4.9971e-08
4.49804e-08
4.06183e-08
3.69842e-08
3.42195e-08
3.25475e-08
3.23442e-08
3.43636e-08
4.04079e-08
5.63958e-08
1.18327e-07
2.75859e-07
1.31102e-07
9.24856e-08
7.6174e-08
6.84869e-08
6.53199e-08
6.49439e-08
6.65015e-08
6.94743e-08
7.35046e-08
7.83247e-08
8.37218e-08
8.95219e-08
9.55814e-08
1.01782e-07
1.0803e-07
1.14249e-07
1.20384e-07
1.26392e-07
1.32245e-07
1.37925e-07
1.43421e-07
1.48729e-07
1.53844e-07
1.58767e-07
1.63496e-07
1.68028e-07
1.72359e-07
1.76481e-07
1.80383e-07
1.8405e-07
1.87463e-07
1.90601e-07
1.93436e-07
1.95939e-07
1.98077e-07
1.99813e-07
2.01113e-07
2.01901e-07
2.02172e-07
2.01932e-07
2.01099e-07
1.99643e-07
1.97538e-07
1.94766e-07
1.91317e-07
1.87189e-07
1.82394e-07
1.76953e-07
1.70898e-07
1.64277e-07
1.57146e-07
1.49571e-07
1.41632e-07
1.3341e-07
1.24998e-07
1.16486e-07
1.0797e-07
9.95424e-08
9.12916e-08
8.33027e-08
7.56551e-08
6.84235e-08
6.16786e-08
5.54907e-08
4.9934e-08
4.50943e-08
4.10819e-08
3.80528e-08
3.62552e-08
3.61021e-08
3.8435e-08
4.52692e-08
6.32385e-08
1.32721e-07
3.12853e-07
1.48529e-07
1.04502e-07
8.5723e-08
7.66956e-08
7.27779e-08
7.20211e-08
7.34479e-08
7.64788e-08
8.07096e-08
8.5837e-08
9.16198e-08
9.78606e-08
1.04396e-07
1.11094e-07
1.17847e-07
1.24571e-07
1.31205e-07
1.37702e-07
1.44033e-07
1.50181e-07
1.56134e-07
1.6189e-07
1.67448e-07
1.7281e-07
1.77976e-07
1.82944e-07
1.87713e-07
1.92273e-07
1.96615e-07
2.00722e-07
2.04573e-07
2.08144e-07
2.11405e-07
2.14321e-07
2.16855e-07
2.18966e-07
2.20611e-07
2.21728e-07
2.22235e-07
2.22214e-07
2.21548e-07
2.20196e-07
2.18126e-07
2.15314e-07
2.11746e-07
2.07415e-07
2.0233e-07
1.96509e-07
1.89986e-07
1.82808e-07
1.75033e-07
1.66735e-07
1.57997e-07
1.48913e-07
1.39584e-07
1.30115e-07
1.20614e-07
1.11188e-07
1.01943e-07
9.29784e-08
8.43889e-08
7.62632e-08
6.86851e-08
6.17368e-08
5.55037e-08
5.00826e-08
4.55958e-08
4.22148e-08
4.02143e-08
4.00448e-08
4.26373e-08
5.02236e-08
7.01607e-08
1.47245e-07
3.51591e-07
1.66772e-07
1.17084e-07
9.57365e-08
8.53313e-08
8.06625e-08
7.95492e-08
8.0885e-08
8.40243e-08
8.8512e-08
9.40058e-08
1.00233e-07
1.06971e-07
1.14036e-07
1.21279e-07
1.28579e-07
1.35847e-07
1.43012e-07
1.50028e-07
1.56864e-07
1.63501e-07
1.69933e-07
1.76159e-07
1.82179e-07
1.88e-07
1.93622e-07
1.99048e-07
2.04274e-07
2.09295e-07
2.14097e-07
2.18664e-07
2.22974e-07
2.26999e-07
2.30705e-07
2.34053e-07
2.37002e-07
2.39504e-07
2.41511e-07
2.42968e-07
2.43762e-07
2.43951e-07
2.43477e-07
2.42254e-07
2.40245e-07
2.37422e-07
2.33762e-07
2.29257e-07
2.23909e-07
2.17735e-07
2.10763e-07
2.03041e-07
1.94629e-07
1.85603e-07
1.76051e-07
1.66075e-07
1.55785e-07
1.453e-07
1.34742e-07
1.24234e-07
1.13899e-07
1.03854e-07
9.42108e-08
8.50752e-08
7.65469e-08
6.87226e-08
6.17012e-08
5.55925e-08
5.05326e-08
4.671e-08
4.44271e-08
4.41735e-08
4.6971e-08
5.52713e-08
7.71632e-08
1.61904e-07
3.92009e-07
1.85801e-07
1.30208e-07
1.06192e-07
9.43705e-08
8.89482e-08
8.74992e-08
8.87796e-08
9.20731e-08
9.6869e-08
1.02783e-07
1.09507e-07
1.16792e-07
1.24431e-07
1.32259e-07
1.40143e-07
1.47983e-07
1.55705e-07
1.63259e-07
1.70616e-07
1.77758e-07
1.84681e-07
1.91385e-07
1.97878e-07
2.04166e-07
2.10254e-07
2.16145e-07
2.21838e-07
2.27325e-07
2.32595e-07
2.3763e-07
2.42404e-07
2.46887e-07
2.51042e-07
2.54826e-07
2.58193e-07
2.61093e-07
2.6347e-07
2.65268e-07
2.66377e-07
2.66782e-07
2.66522e-07
2.65455e-07
2.6354e-07
2.60742e-07
2.57034e-07
2.52401e-07
2.46839e-07
2.40359e-07
2.32986e-07
2.24764e-07
2.1575e-07
2.06021e-07
1.95669e-07
1.84801e-07
1.73534e-07
1.62e-07
1.50335e-07
1.38678e-07
1.2717e-07
1.15949e-07
1.05147e-07
9.48891e-08
8.52943e-08
7.64769e-08
6.85523e-08
6.16462e-08
5.59104e-08
5.15526e-08
4.89046e-08
4.84969e-08
5.14433e-08
6.04197e-08
8.42553e-08
1.76717e-07
4.34026e-07
2.05576e-07
1.43846e-07
1.17065e-07
1.0379e-07
9.76107e-08
9.58443e-08
9.71018e-08
1.00591e-07
1.05742e-07
1.12123e-07
1.1939e-07
1.27265e-07
1.35517e-07
1.43962e-07
1.52456e-07
1.60889e-07
1.69184e-07
1.77288e-07
1.85173e-07
1.92823e-07
2.00238e-07
2.07423e-07
2.14387e-07
2.21139e-07
2.27689e-07
2.34041e-07
2.40194e-07
2.46141e-07
2.51871e-07
2.57363e-07
2.6259e-07
2.6752e-07
2.72112e-07
2.76322e-07
2.80097e-07
2.83386e-07
2.86129e-07
2.88265e-07
2.89703e-07
2.90337e-07
2.90306e-07
2.89424e-07
2.87642e-07
2.84917e-07
2.81217e-07
2.76519e-07
2.70812e-07
2.64099e-07
2.564e-07
2.47749e-07
2.38201e-07
2.27828e-07
2.16722e-07
2.04992e-07
1.92762e-07
1.80173e-07
1.67373e-07
1.54521e-07
1.41775e-07
1.29295e-07
1.17236e-07
1.05748e-07
9.49705e-08
8.50412e-08
7.60952e-08
6.8277e-08
6.17577e-08
5.6766e-08
5.36655e-08
5.30308e-08
5.60682e-08
6.56827e-08
9.14554e-08
1.91721e-07
4.77538e-07
2.2605e-07
1.57964e-07
1.28328e-07
1.13565e-07
1.06625e-07
1.04558e-07
1.05822e-07
1.09544e-07
1.15091e-07
1.21981e-07
1.29833e-07
1.38333e-07
1.47228e-07
1.56316e-07
1.65437e-07
1.74476e-07
1.83349e-07
1.92005e-07
2.00415e-07
2.08569e-07
2.16467e-07
2.24121e-07
2.31542e-07
2.38745e-07
2.4574e-07
2.52533e-07
2.59125e-07
2.65511e-07
2.71676e-07
2.77599e-07
2.83253e-07
2.88601e-07
2.93603e-07
2.9821e-07
3.0237e-07
3.06028e-07
3.0912e-07
3.11581e-07
3.13345e-07
3.14254e-07
3.14436e-07
3.13776e-07
3.1217e-07
3.09575e-07
3.05951e-07
3.01267e-07
2.95504e-07
2.88654e-07
2.80727e-07
2.71749e-07
2.61764e-07
2.50839e-07
2.39059e-07
2.26532e-07
2.13386e-07
1.99766e-07
1.85834e-07
1.71763e-07
1.57733e-07
1.43926e-07
1.30524e-07
1.17702e-07
1.05629e-07
9.44674e-08
8.43778e-08
7.55279e-08
6.81112e-08
6.23813e-08
5.87354e-08
5.77967e-08
6.08648e-08
7.108e-08
9.87887e-08
2.0697e-07
5.22421e-07
2.47163e-07
1.72522e-07
1.39951e-07
1.23669e-07
1.15966e-07
1.13613e-07
1.1491e-07
1.18898e-07
1.24876e-07
1.32312e-07
1.4078e-07
1.49934e-07
1.59495e-07
1.6924e-07
1.78999e-07
1.88646e-07
1.98096e-07
2.07296e-07
2.1622e-07
2.24859e-07
2.33222e-07
2.41321e-07
2.49175e-07
2.568e-07
2.64209e-07
2.71411e-07
2.78408e-07
2.85193e-07
2.91752e-07
2.98065e-07
3.04102e-07
3.09826e-07
3.15195e-07
3.20159e-07
3.24667e-07
3.28661e-07
3.32078e-07
3.34852e-07
3.3692e-07
3.38131e-07
3.38529e-07
3.38124e-07
3.36743e-07
3.3434e-07
3.30868e-07
3.26289e-07
3.20573e-07
3.13701e-07
3.05669e-07
2.9649e-07
2.86196e-07
2.74841e-07
2.62502e-07
2.49279e-07
2.35298e-07
2.20708e-07
2.05677e-07
1.90393e-07
1.75057e-07
1.59874e-07
1.45055e-07
1.30806e-07
1.17328e-07
1.04814e-07
9.34563e-08
8.34497e-08
7.50158e-08
6.84366e-08
6.41459e-08
6.28217e-08
6.58572e-08
7.66357e-08
1.06286e-07
2.22528e-07
5.68526e-07
2.68848e-07
1.87476e-07
1.51899e-07
1.34071e-07
1.25604e-07
1.22979e-07
1.24331e-07
1.28614e-07
1.35055e-07
1.43064e-07
1.52174e-07
1.62002e-07
1.72243e-07
1.82654e-07
1.93051e-07
2.033e-07
2.13314e-07
2.2304e-07
2.32454e-07
2.41553e-07
2.50349e-07
2.5886e-07
2.67108e-07
2.75114e-07
2.82894e-07
2.90457e-07
2.97808e-07
3.0494e-07
3.11839e-07
3.18485e-07
3.24847e-07
3.30889e-07
3.36569e-07
3.41838e-07
3.46646e-07
3.50935e-07
3.54643e-07
3.57707e-07
3.60062e-07
3.6159e-07
3.62218e-07
3.62091e-07
3.60982e-07
3.58834e-07
3.55597e-07
3.51221e-07
3.45665e-07
3.38899e-07
3.30902e-07
3.2167e-07
3.1122e-07
2.99588e-07
2.86837e-07
2.73054e-07
2.58357e-07
2.42892e-07
2.26833e-07
2.10377e-07
1.93742e-07
1.77159e-07
1.60869e-07
1.45113e-07
1.30128e-07
1.16145e-07
1.03392e-07
9.20998e-08
8.25223e-08
7.49757e-08
6.99338e-08
6.81374e-08
7.10736e-08
8.23779e-08
1.13984e-07
2.38468e-07
6.15681e-07
2.91024e-07
2.02773e-07
1.64133e-07
1.44738e-07
1.35509e-07
1.32624e-07
1.34051e-07
1.38651e-07
1.45577e-07
1.54182e-07
1.6395e-07
1.74465e-07
1.85391e-07
1.96466e-07
2.07491e-07
2.18328e-07
2.28884e-07
2.39108e-07
2.4898e-07
2.58501e-07
2.67689e-07
2.76565e-07
2.85158e-07
2.93492e-07
3.01585e-07
3.0945e-07
3.17091e-07
3.24503e-07
3.31675e-07
3.38583e-07
3.45202e-07
3.51494e-07
3.57419e-07
3.62933e-07
3.67985e-07
3.7252e-07
3.76479e-07
3.79802e-07
3.82423e-07
3.8427e-07
3.85175e-07
3.85316e-07
3.84528e-07
3.827e-07
3.79778e-07
3.75704e-07
3.70426e-07
3.63899e-07
3.56085e-07
3.46964e-07
3.36529e-07
3.24797e-07
3.11809e-07
2.97635e-07
2.82379e-07
2.66176e-07
2.49198e-07
2.31648e-07
2.13757e-07
1.95782e-07
1.77993e-07
1.60667e-07
1.44086e-07
1.28523e-07
1.1425e-07
1.0154e-07
9.06867e-08
8.20477e-08
7.61404e-08
7.37794e-08
7.6545e-08
8.83375e-08
1.2192e-07
2.54869e-07
6.63692e-07
3.13603e-07
2.18354e-07
1.76607e-07
1.55634e-07
1.45644e-07
1.4251e-07
1.44028e-07
1.48963e-07
1.5639e-07
1.65604e-07
1.7604e-07
1.87244e-07
1.98851e-07
2.10578e-07
2.22215e-07
2.33614e-07
2.44681e-07
2.55366e-07
2.65653e-07
2.75548e-07
2.85075e-07
2.94261e-07
3.03138e-07
3.11734e-07
3.20072e-07
3.28167e-07
3.36024e-07
3.43641e-07
3.51005e-07
3.58099e-07
3.64896e-07
3.71363e-07
3.77463e-07
3.83154e-07
3.88391e-07
3.93121e-07
3.97289e-07
4.0084e-07
4.03714e-07
4.05848e-07
4.07085e-07
4.07487e-07
4.07061e-07
4.05611e-07
4.03079e-07
3.994e-07
3.94513e-07
3.88356e-07
3.80876e-07
3.72031e-07
3.61792e-07
3.50152e-07
3.37125e-07
3.22758e-07
3.07132e-07
2.90366e-07
2.7262e-07
2.54096e-07
2.35036e-07
2.15713e-07
1.96427e-07
1.77498e-07
1.59249e-07
1.42007e-07
1.26093e-07
1.11832e-07
9.95676e-08
8.97048e-08
8.28102e-08
7.97863e-08
8.23054e-08
9.45472e-08
1.30134e-07
2.71812e-07
7.12343e-07
3.36484e-07
2.34155e-07
1.89274e-07
1.66717e-07
1.55971e-07
1.52598e-07
1.54218e-07
1.59498e-07
1.67435e-07
1.77262e-07
1.88366e-07
2.00252e-07
2.12527e-07
2.24887e-07
2.37108e-07
2.49035e-07
2.60572e-07
2.71672e-07
2.82322e-07
2.92534e-07
3.02338e-07
3.11767e-07
3.20857e-07
3.29643e-07
3.38149e-07
3.46392e-07
3.54383e-07
3.6212e-07
3.69594e-07
3.7679e-07
3.83684e-07
3.90249e-07
3.9645e-07
4.02253e-07
4.07615e-07
4.12489e-07
4.16826e-07
4.20575e-07
4.23681e-07
4.26087e-07
4.2768e-07
4.28364e-07
4.28319e-07
4.27294e-07
4.25215e-07
4.22014e-07
4.17616e-07
4.11949e-07
4.04943e-07
3.96534e-07
3.86671e-07
3.75318e-07
3.62462e-07
3.48118e-07
3.3234e-07
3.15219e-07
2.96897e-07
2.77566e-07
2.57465e-07
2.36882e-07
2.16145e-07
1.95608e-07
1.75648e-07
1.56644e-07
1.38979e-07
1.23038e-07
1.09225e-07
9.80013e-08
8.99905e-08
8.61988e-08
8.83899e-08
1.0104e-07
1.38668e-07
2.89377e-07
7.61395e-07
3.5956e-07
2.50106e-07
2.02081e-07
1.77943e-07
1.66448e-07
1.62843e-07
1.64572e-07
1.70201e-07
1.78648e-07
1.89084e-07
2.00845e-07
2.13398e-07
2.26319e-07
2.39282e-07
2.5205e-07
2.64462e-07
2.7642e-07
2.8788e-07
2.98833e-07
3.09297e-07
3.19307e-07
3.28905e-07
3.38132e-07
3.47025e-07
3.55614e-07
3.63922e-07
3.71959e-07
3.79729e-07
3.87228e-07
3.94442e-07
4.01355e-07
4.07942e-07
4.14177e-07
4.20029e-07
4.25463e-07
4.30436e-07
4.34906e-07
4.38827e-07
4.42146e-07
4.4481e-07
4.46753e-07
4.47814e-07
4.48102e-07
4.47545e-07
4.45972e-07
4.43311e-07
4.39483e-07
4.34405e-07
4.27991e-07
4.2016e-07
4.10837e-07
3.99958e-07
3.8748e-07
3.73384e-07
3.57687e-07
3.40448e-07
3.21777e-07
3.01845e-07
2.80881e-07
2.59176e-07
2.37076e-07
2.14972e-07
1.93288e-07
1.72466e-07
1.52957e-07
1.35215e-07
1.19715e-07
1.06991e-07
9.77302e-08
9.30592e-08
9.48344e-08
1.07851e-07
1.4756e-07
3.07644e-07
8.10595e-07
3.82713e-07
2.66129e-07
2.14971e-07
1.89264e-07
1.77031e-07
1.73199e-07
1.75037e-07
1.81012e-07
1.8996e-07
2.00991e-07
2.1339e-07
2.26584e-07
2.40118e-07
2.53646e-07
2.66917e-07
2.79763e-07
2.92086e-07
3.03843e-07
3.15031e-07
3.25675e-07
3.35817e-07
3.45504e-07
3.54783e-07
3.63699e-07
3.72285e-07
3.80569e-07
3.88566e-07
3.96284e-07
4.03724e-07
4.10879e-07
4.17736e-07
4.24279e-07
4.30489e-07
4.3634e-07
4.41801e-07
4.46839e-07
4.51416e-07
4.55491e-07
4.59016e-07
4.6194e-07
4.64206e-07
4.657e-07
4.66333e-07
4.66255e-07
4.6522e-07
4.63144e-07
4.59943e-07
4.55524e-07
4.49793e-07
4.42651e-07
4.34003e-07
4.23761e-07
4.11851e-07
3.98217e-07
3.82836e-07
3.65728e-07
3.46962e-07
3.26673e-07
3.05069e-07
2.82428e-07
2.59107e-07
2.35523e-07
2.12147e-07
1.89484e-07
1.68059e-07
1.4841e-07
1.31093e-07
1.16725e-07
1.06079e-07
1.0041e-07
1.01675e-07
1.1501e-07
1.56847e-07
3.26684e-07
8.59671e-07
4.0582e-07
2.82145e-07
2.27883e-07
2.00629e-07
1.87669e-07
1.83614e-07
1.85558e-07
1.91867e-07
2.01299e-07
2.12901e-07
2.25909e-07
2.39708e-07
2.53814e-07
2.6786e-07
2.81581e-07
2.94803e-07
3.07427e-07
3.19413e-07
3.30764e-07
3.41512e-07
3.51705e-07
3.61398e-07
3.70646e-07
3.79498e-07
3.87995e-07
3.9617e-07
4.04044e-07
4.11631e-07
4.18938e-07
4.25964e-07
4.32705e-07
4.39151e-07
4.45289e-07
4.51101e-07
4.56563e-07
4.61646e-07
4.66318e-07
4.70542e-07
4.74273e-07
4.77461e-07
4.80049e-07
4.8197e-07
4.83069e-07
4.83402e-07
4.82931e-07
4.81466e-07
4.78923e-07
4.75204e-07
4.70209e-07
4.63828e-07
4.55952e-07
4.4647e-07
4.35282e-07
4.22298e-07
4.07453e-07
3.90721e-07
3.72122e-07
3.51747e-07
3.29761e-07
3.0642e-07
2.82071e-07
2.57149e-07
2.32162e-07
2.07677e-07
1.843e-07
1.62657e-07
1.43404e-07
1.27255e-07
1.15083e-07
1.08291e-07
1.08945e-07
1.22549e-07
1.66562e-07
3.4656e-07
9.08341e-07
4.2875e-07
2.98069e-07
2.40754e-07
2.11983e-07
1.98311e-07
1.94036e-07
1.96075e-07
2.02699e-07
2.12589e-07
2.24729e-07
2.38305e-07
2.52665e-07
2.67294e-07
2.81803e-07
2.95914e-07
3.09448e-07
3.22306e-07
3.34448e-07
3.45886e-07
3.56658e-07
3.66821e-07
3.76437e-07
3.8557e-07
3.94276e-07
4.02602e-07
4.10589e-07
4.18265e-07
4.25652e-07
4.32764e-07
4.39607e-07
4.46186e-07
4.52497e-07
4.58536e-07
4.64291e-07
4.69744e-07
4.74871e-07
4.79644e-07
4.84029e-07
4.87982e-07
4.91453e-07
4.94386e-07
4.96715e-07
4.98346e-07
4.99118e-07
4.99188e-07
4.98344e-07
4.96467e-07
4.9346e-07
4.89217e-07
4.83627e-07
4.76568e-07
4.6792e-07
4.57557e-07
4.45364e-07
4.31236e-07
4.151e-07
3.96923e-07
3.76736e-07
3.54653e-07
3.30886e-07
3.05753e-07
2.79689e-07
2.53228e-07
2.26992e-07
2.01665e-07
1.77973e-07
1.56683e-07
1.38622e-07
1.24784e-07
1.16739e-07
1.16678e-07
1.30495e-07
1.76735e-07
3.67328e-07
9.56315e-07
4.51372e-07
3.13813e-07
2.53517e-07
2.23271e-07
2.08905e-07
2.04408e-07
2.06528e-07
2.13441e-07
2.23752e-07
2.36386e-07
2.50483e-07
2.6535e-07
2.80444e-07
2.95354e-07
3.09791e-07
3.23569e-07
3.36587e-07
3.48812e-07
3.60259e-07
3.70976e-07
3.81029e-07
3.90489e-07
3.99427e-07
4.07909e-07
4.15991e-07
4.23721e-07
4.31137e-07
4.38267e-07
4.45136e-07
4.51759e-07
4.58148e-07
4.64307e-07
4.7024e-07
4.75941e-07
4.81396e-07
4.86588e-07
4.91489e-07
4.96065e-07
5.00274e-07
5.04064e-07
5.07374e-07
5.10137e-07
5.12275e-07
5.13641e-07
5.14176e-07
5.13954e-07
5.12738e-07
5.10429e-07
5.06924e-07
5.02109e-07
4.95865e-07
4.88062e-07
4.78567e-07
4.67243e-07
4.53956e-07
4.38586e-07
4.21049e-07
4.01312e-07
3.7942e-07
3.55523e-07
3.29893e-07
3.02937e-07
2.75196e-07
2.47334e-07
2.2011e-07
1.94353e-07
1.7095e-07
1.50864e-07
1.35227e-07
1.2578e-07
1.24902e-07
1.38873e-07
1.87388e-07
3.89029e-07
1.0033e-06
4.73549e-07
3.2929e-07
2.66105e-07
2.34435e-07
2.19395e-07
2.14673e-07
2.16855e-07
2.24022e-07
2.34709e-07
2.47786e-07
2.62346e-07
2.77659e-07
2.93153e-07
3.08397e-07
3.2309e-07
3.37039e-07
3.50144e-07
3.62376e-07
3.73757e-07
3.84343e-07
3.94209e-07
4.03437e-07
4.12109e-07
4.20299e-07
4.28074e-07
4.35491e-07
4.42597e-07
4.49432e-07
4.56029e-07
4.62413e-07
4.68603e-07
4.74615e-07
4.80455e-07
4.86126e-07
4.91618e-07
4.96916e-07
5.01993e-07
5.06815e-07
5.11335e-07
5.15499e-07
5.19239e-07
5.22481e-07
5.25142e-07
5.27131e-07
5.28252e-07
5.28565e-07
5.28007e-07
5.26372e-07
5.23564e-07
5.19477e-07
5.13994e-07
5.06993e-07
4.98339e-07
4.87887e-07
4.75486e-07
4.60984e-07
4.44247e-07
4.25175e-07
4.03742e-07
3.80015e-07
3.54196e-07
3.26641e-07
2.97871e-07
2.68568e-07
2.39555e-07
2.11761e-07
1.86205e-07
1.63999e-07
1.46437e-07
1.35449e-07
1.33646e-07
1.47704e-07
1.98541e-07
4.11694e-07
1.049e-06
4.95145e-07
3.44408e-07
2.78449e-07
2.45416e-07
2.29726e-07
2.24776e-07
2.26993e-07
2.34373e-07
2.45384e-07
2.58844e-07
2.738e-07
2.8949e-07
3.05313e-07
3.2082e-07
3.35696e-07
3.49743e-07
3.62861e-07
3.75026e-07
3.86268e-07
3.96651e-07
4.06261e-07
4.15192e-07
4.23534e-07
4.31376e-07
4.38793e-07
4.45855e-07
4.52619e-07
4.59136e-07
4.65449e-07
4.71594e-07
4.77598e-07
4.83485e-07
4.89268e-07
4.94953e-07
5.00537e-07
5.06003e-07
5.11326e-07
5.16468e-07
5.21378e-07
5.25993e-07
5.3024e-07
5.34033e-07
5.3728e-07
5.39884e-07
5.41711e-07
5.42561e-07
5.42625e-07
5.41647e-07
5.39491e-07
5.36062e-07
5.31254e-07
5.24957e-07
5.17051e-07
5.07397e-07
4.95843e-07
4.82219e-07
4.66354e-07
4.48095e-07
4.27334e-07
4.04051e-07
3.78355e-07
3.5052e-07
3.21017e-07
2.90517e-07
2.59882e-07
2.30135e-07
2.02427e-07
1.78033e-07
1.58434e-07
1.45773e-07
1.42929e-07
1.57004e-07
2.10206e-07
4.3534e-07
1.09312e-06
5.16029e-07
3.5908e-07
2.90481e-07
2.56155e-07
2.39842e-07
2.34658e-07
2.36882e-07
2.44427e-07
2.55702e-07
2.69475e-07
2.84757e-07
3.00748e-07
3.16825e-07
3.32519e-07
3.47503e-07
3.61575e-07
3.74635e-07
3.86664e-07
3.97698e-07
4.07813e-07
4.17106e-07
4.25682e-07
4.33645e-07
4.41093e-07
4.48117e-07
4.54797e-07
4.61203e-07
4.67397e-07
4.73432e-07
4.79355e-07
4.85202e-07
4.91005e-07
4.96782e-07
5.02545e-07
5.08291e-07
5.14006e-07
5.19663e-07
5.25218e-07
5.30616e-07
5.35785e-07
5.40641e-07
5.45087e-07
5.49016e-07
5.52313e-07
5.5486e-07
5.56444e-07
5.57025e-07
5.56685e-07
5.55146e-07
5.52302e-07
5.48065e-07
5.42342e-07
5.35037e-07
5.26034e-07
5.15197e-07
5.02362e-07
4.87342e-07
4.69942e-07
4.49987e-07
4.27364e-07
4.02073e-07
3.74281e-07
3.44369e-07
3.12964e-07
2.80936e-07
2.49377e-07
2.19567e-07
1.92955e-07
1.71228e-07
1.56768e-07
1.52771e-07
1.66785e-07
2.22388e-07
4.59972e-07
1.13539e-06
5.36069e-07
3.73218e-07
3.02133e-07
2.66594e-07
2.49687e-07
2.44264e-07
2.46461e-07
2.54119e-07
2.65592e-07
2.79605e-07
2.95132e-07
3.11346e-07
3.27597e-07
3.434e-07
3.58418e-07
3.72443e-07
3.85377e-07
3.97204e-07
4.0797e-07
4.17761e-07
4.26686e-07
4.34862e-07
4.42406e-07
4.49432e-07
4.56042e-07
4.62328e-07
4.68375e-07
4.74255e-07
4.80034e-07
4.85767e-07
4.91502e-07
4.97274e-07
5.0311e-07
5.09024e-07
5.15016e-07
5.21071e-07
5.2716e-07
5.33235e-07
5.39234e-07
5.45075e-07
5.50663e-07
5.55885e-07
5.60618e-07
5.64728e-07
5.68074e-07
5.70508e-07
5.71734e-07
5.7197e-07
5.71027e-07
5.68709e-07
5.64941e-07
5.5965e-07
5.52766e-07
5.44212e-07
5.33885e-07
5.21651e-07
5.07334e-07
4.90724e-07
4.71598e-07
4.49759e-07
4.25093e-07
3.97637e-07
3.6765e-07
3.35668e-07
3.02527e-07
2.69357e-07
2.3755e-07
2.08733e-07
1.84816e-07
1.68442e-07
1.63183e-07
1.77054e-07
2.35088e-07
4.85581e-07
1.17554e-06
5.55143e-07
3.86739e-07
3.13339e-07
2.76676e-07
2.59209e-07
2.5354e-07
2.55676e-07
2.6339e-07
2.74989e-07
2.89162e-07
3.04851e-07
3.21203e-07
3.37547e-07
3.53382e-07
3.6836e-07
3.82271e-07
3.95015e-07
4.06582e-07
4.17028e-07
4.26448e-07
4.34964e-07
4.42707e-07
4.49808e-07
4.56395e-07
4.62583e-07
4.68478e-07
4.74178e-07
4.79768e-07
4.85324e-07
4.90911e-07
4.96585e-07
5.02389e-07
5.08354e-07
5.14499e-07
5.20824e-07
5.27314e-07
5.33938e-07
5.40642e-07
5.47359e-07
5.53997e-07
5.60447e-07
5.66582e-07
5.72258e-07
5.77321e-07
5.81607e-07
5.84956e-07
5.87083e-07
5.87897e-07
5.87587e-07
5.85794e-07
5.8243e-07
5.77447e-07
5.70805e-07
5.62469e-07
5.5239e-07
5.40485e-07
5.2662e-07
5.10607e-07
4.92203e-07
4.71152e-07
4.47232e-07
4.20342e-07
3.90587e-07
3.58367e-07
3.24435e-07
2.89913e-07
2.56274e-07
2.25313e-07
1.99177e-07
1.80795e-07
1.7417e-07
1.87814e-07
2.483e-07
5.12145e-07
1.21333e-06
5.73135e-07
3.99563e-07
3.24036e-07
2.86345e-07
2.68355e-07
2.62436e-07
2.64475e-07
2.72185e-07
2.83835e-07
2.98083e-07
3.13848e-07
3.30252e-07
3.46607e-07
3.62397e-07
3.77265e-07
3.90996e-07
4.03493e-07
4.14751e-07
4.24833e-07
4.33846e-07
4.41925e-07
4.49215e-07
4.55861e-07
4.62004e-07
4.67775e-07
4.73295e-07
4.78672e-07
4.84004e-07
4.89378e-07
4.94868e-07
5.00538e-07
5.06438e-07
5.12603e-07
5.19054e-07
5.25795e-07
5.3281e-07
5.40066e-07
5.47505e-07
5.55053e-07
5.6261e-07
5.70056e-07
5.77247e-07
5.84022e-07
5.90201e-07
5.95593e-07
6.00001e-07
6.03225e-07
6.04858e-07
6.05185e-07
6.0399e-07
6.01043e-07
5.96304e-07
5.89762e-07
5.81426e-07
5.7131e-07
5.59406e-07
5.45654e-07
5.29922e-07
5.11995e-07
4.91592e-07
4.68412e-07
4.42216e-07
4.1294e-07
3.80805e-07