/*--------------------------------*- C++ -*----------------------------------*\
  =========                 |
  \\      /  F ield         | OpenFOAM: The Open Source CFD Toolbox
   \\    /   O peration     | Website:  https://openfoam.org
    \\  /    A nd           | Version:  12
     \\/     M anipulation  |
\*---------------------------------------------------------------------------*/
FoamFile
{
    format      ascii;
    class       volScalarField;
    location    "4";
    object      k;
}
// * * * * * * * * * * * * * * * * * * * * * * * * * * * * * * * * * * * * * //

dimensions      [0 2 -2 0 0 0 0];

internalField   nonuniform List<scalar> 
5625
(
1.1461e-12
5.72188e-12
1.24866e-11
2.05425e-11
2.94641e-11
3.89813e-11
4.88916e-11
5.90312e-11
6.92629e-11
7.94712e-11
8.95589e-11
9.94459e-11
1.09068e-10
1.18376e-10
1.27336e-10
1.35926e-10
1.44137e-10
1.5197e-10
1.59432e-10
1.66538e-10
1.73306e-10
1.79756e-10
1.85904e-10
1.91767e-10
1.97357e-10
2.02681e-10
2.07739e-10
2.12526e-10
2.17031e-10
2.21235e-10
2.25115e-10
2.28642e-10
2.31784e-10
2.34504e-10
2.36762e-10
2.38518e-10
2.39729e-10
2.40345e-10
2.40366e-10
2.39738e-10
2.38429e-10
2.36414e-10
2.33676e-10
2.30205e-10
2.26002e-10
2.21076e-10
2.15445e-10
2.09139e-10
2.02195e-10
1.94662e-10
1.86597e-10
1.78062e-10
1.69129e-10
1.59872e-10
1.50369e-10
1.40698e-10
1.30939e-10
1.21166e-10
1.11452e-10
1.01863e-10
9.2458e-11
8.32905e-11
7.44051e-11
6.58386e-11
5.76208e-11
4.97752e-11
4.23214e-11
3.52737e-11
2.8648e-11
2.24642e-11
1.67518e-11
1.156e-11
6.9771e-12
3.18446e-12
6.37236e-13
5.72884e-12
4.92558e-11
1.10976e-10
1.83837e-10
2.64327e-10
3.50101e-10
4.39371e-10
5.30673e-10
6.22782e-10
7.14662e-10
8.0544e-10
8.94396e-10
9.80956e-10
1.06468e-09
1.14526e-09
1.2225e-09
1.29633e-09
1.36674e-09
1.43382e-09
1.49769e-09
1.55852e-09
1.61649e-09
1.67175e-09
1.72446e-09
1.77471e-09
1.82258e-09
1.86806e-09
1.91112e-09
1.95164e-09
1.98946e-09
2.02438e-09
2.05614e-09
2.08442e-09
2.10892e-09
2.12927e-09
2.14511e-09
2.15606e-09
2.1616e-09
2.16174e-09
2.15604e-09
2.14421e-09
2.12602e-09
2.10133e-09
2.07005e-09
2.03219e-09
1.98782e-09
1.93712e-09
1.88034e-09
1.81785e-09
1.75006e-09
1.67748e-09
1.6007e-09
1.52034e-09
1.43708e-09
1.3516e-09
1.26464e-09
1.17687e-09
1.089e-09
1.00165e-09
9.15431e-10
8.30877e-10
7.48458e-10
6.68575e-10
5.9156e-10
5.1768e-10
4.47142e-10
3.80109e-10
3.16726e-10
2.57134e-10
2.01506e-10
1.50097e-10
1.03329e-10
6.19426e-11
2.73871e-11
3.18243e-12
1.25639e-11
1.11516e-10
2.53396e-10
4.21546e-10
6.07522e-10
8.0577e-10
1.01209e-09
1.22309e-09
1.43593e-09
1.64819e-09
1.85787e-09
2.06328e-09
2.26311e-09
2.45634e-09
2.64225e-09
2.82041e-09
2.99063e-09
3.15294e-09
3.30753e-09
3.45471e-09
3.59486e-09
3.72839e-09
3.85568e-09
3.97707e-09
4.09281e-09
4.20304e-09
4.30778e-09
4.4069e-09
4.50017e-09
4.58721e-09
4.66753e-09
4.74052e-09
4.8055e-09
4.86171e-09
4.90833e-09
4.94451e-09
4.9694e-09
4.98172e-09
4.9818e-09
4.96836e-09
4.94076e-09
4.89851e-09
4.84125e-09
4.76881e-09
4.68118e-09
4.57857e-09
4.46138e-09
4.3302e-09
4.18586e-09
4.02934e-09
3.86183e-09
3.68465e-09
3.49926e-09
3.30723e-09
3.11015e-09
2.90966e-09
2.70739e-09
2.50491e-09
2.30369e-09
2.10511e-09
1.9104e-09
1.72065e-09
1.53676e-09
1.35951e-09
1.1895e-09
1.02719e-09
8.72963e-10
7.27135e-10
5.90018e-10
4.62005e-10
3.43689e-10
2.36066e-10
1.40923e-10
6.17802e-11
6.95375e-12
2.08468e-11
1.86301e-10
4.25108e-10
7.09207e-10
1.024e-09
1.35985e-09
1.7095e-09
2.0671e-09
2.42779e-09
2.78745e-09
3.14263e-09
3.4905e-09
3.82877e-09
4.15572e-09
4.47016e-09
4.77135e-09
5.05898e-09
5.33313e-09
5.59413e-09
5.84253e-09
6.07899e-09
6.30423e-09
6.51892e-09
6.72362e-09
6.91877e-09
7.10461e-09
7.28114e-09
7.44819e-09
7.60532e-09
7.75189e-09
7.88707e-09
8.00983e-09
8.119e-09
8.2133e-09
8.29136e-09
8.35176e-09
8.39299e-09
8.41285e-09
8.41224e-09
8.38873e-09
8.34128e-09
8.26904e-09
8.17145e-09
8.0482e-09
7.89932e-09
7.72513e-09
7.52634e-09
7.30397e-09
7.0594e-09
6.79432e-09
6.51074e-09
6.21091e-09
5.89731e-09
5.57257e-09
5.23944e-09
4.90068e-09
4.55903e-09
4.21715e-09
3.87754e-09
3.54251e-09
3.21413e-09
2.89422e-09
2.58432e-09
2.28568e-09
1.99931e-09
1.72599e-09
1.46633e-09
1.22085e-09
9.90049e-10
7.74605e-10
5.75539e-10
3.94593e-10
2.34899e-10
1.02547e-10
1.14636e-11
3.02651e-11
2.71123e-10
6.20062e-10
1.03637e-09
1.49849e-09
1.99202e-09
2.50612e-09
3.03204e-09
3.56252e-09
4.09143e-09
4.61363e-09
5.12488e-09
5.62179e-09
6.10182e-09
6.56319e-09
7.00483e-09
7.42632e-09
7.82778e-09
8.20976e-09
8.57309e-09
8.91879e-09
9.24794e-09
9.56155e-09
9.86047e-09
1.01454e-08
1.04165e-08
1.06741e-08
1.09176e-08
1.11466e-08
1.13601e-08
1.15568e-08
1.17352e-08
1.18937e-08
1.20303e-08
1.21431e-08
1.22299e-08
1.22886e-08
1.23158e-08
1.23134e-08
1.22774e-08
1.22062e-08
1.20988e-08
1.19542e-08
1.17721e-08
1.15525e-08
1.12959e-08
1.10033e-08
1.06762e-08
1.03167e-08
9.92718e-09
9.51072e-09
9.0706e-09
8.61047e-09
8.13421e-09
7.64587e-09
7.14951e-09
6.64917e-09
6.14874e-09
5.6519e-09
5.16201e-09
4.68211e-09
4.21482e-09
3.76237e-09
3.32657e-09
2.90886e-09
2.51033e-09
2.13185e-09
1.77412e-09
1.43791e-09
1.12416e-09
8.34419e-10
5.71297e-10
3.39466e-10
1.4786e-10
1.64887e-11
4.06711e-11
3.64747e-10
8.35285e-10
1.39781e-09
2.02319e-09
2.69179e-09
3.3887e-09
4.1019e-09
4.82137e-09
5.53865e-09
6.24665e-09
6.9395e-09
7.61255e-09
8.26228e-09
8.88625e-09
9.48302e-09
1.00521e-08
1.05936e-08
1.11083e-08
1.15976e-08
1.20627e-08
1.25053e-08
1.29266e-08
1.33281e-08
1.37104e-08
1.40741e-08
1.44192e-08
1.47455e-08
1.50519e-08
1.53373e-08
1.55999e-08
1.58378e-08
1.60487e-08
1.62301e-08
1.63793e-08
1.64935e-08
1.65694e-08
1.66032e-08
1.65971e-08
1.65458e-08
1.64471e-08
1.62996e-08
1.61021e-08
1.5854e-08
1.55554e-08
1.52069e-08
1.481e-08
1.43667e-08
1.38798e-08
1.33526e-08
1.27892e-08
1.2194e-08
1.15721e-08
1.09287e-08
1.02694e-08
9.59949e-09
8.92464e-09
8.25005e-09
7.58071e-09
6.92115e-09
6.27545e-09
5.64711e-09
5.03911e-09
4.45382e-09
3.89314e-09
3.35848e-09
2.85096e-09
2.37149e-09
1.92103e-09
1.50089e-09
1.11315e-09
7.61364e-10
4.51856e-10
1.96554e-10
2.1894e-11
5.19865e-11
4.66503e-10
1.06919e-09
1.79075e-09
2.59395e-09
3.45347e-09
4.35e-09
5.26787e-09
6.19396e-09
7.11717e-09
8.02816e-09
8.91923e-09
9.78421e-09
1.06185e-08
1.14189e-08
1.21836e-08
1.29119e-08
1.36041e-08
1.42613e-08
1.48853e-08
1.54778e-08
1.6041e-08
1.65767e-08
1.70866e-08
1.75717e-08
1.80328e-08
1.847e-08
1.88828e-08
1.927e-08
1.96302e-08
1.99612e-08
2.02605e-08
2.05251e-08
2.0752e-08
2.09377e-08
2.10788e-08
2.11705e-08
2.12091e-08
2.11971e-08
2.11273e-08
2.09971e-08
2.08046e-08
2.05484e-08
2.02278e-08
1.98428e-08
1.93944e-08
1.88841e-08
1.83148e-08
1.76899e-08
1.70137e-08
1.62915e-08
1.55289e-08
1.47325e-08
1.3909e-08
1.30653e-08
1.22088e-08
1.13463e-08
1.04847e-08
9.63029e-09
8.78894e-09
7.96582e-09
7.16538e-09
6.39138e-09
5.64681e-09
4.93399e-09
4.25469e-09
3.61024e-09
3.00175e-09
2.43039e-09
1.89779e-09
1.40661e-09
9.61369e-10
5.7009e-10
2.47784e-10
2.75838e-11
6.41677e-11
5.76013e-10
1.3209e-09
2.21367e-09
3.20846e-09
4.27393e-09
5.386e-09
6.52502e-09
7.67445e-09
8.8202e-09
9.95039e-09
1.10552e-08
1.21267e-08
1.31591e-08
1.41484e-08
1.50921e-08
1.59897e-08
1.68414e-08
1.76489e-08
1.84143e-08
1.91402e-08
1.98292e-08
2.04836e-08
2.11057e-08
2.16969e-08
2.22581e-08
2.27894e-08
2.32904e-08
2.37598e-08
2.41956e-08
2.45953e-08
2.49559e-08
2.52738e-08
2.55452e-08
2.57661e-08
2.59323e-08
2.60372e-08
2.60782e-08
2.60569e-08
2.59648e-08
2.57988e-08
2.55565e-08
2.52362e-08
2.4837e-08
2.4359e-08
2.38033e-08
2.31721e-08
2.24684e-08
2.16967e-08
2.08623e-08
1.99715e-08
1.90316e-08
1.80503e-08
1.70361e-08
1.59976e-08
1.49436e-08
1.3883e-08
1.28239e-08
1.17743e-08
1.07413e-08
9.73141e-09
8.74997e-09
7.80158e-09
6.88988e-09
6.01768e-09
5.18705e-09
4.39955e-09
3.65647e-09
2.95916e-09
2.30959e-09
1.71095e-09
1.16873e-09
6.92665e-10
3.00903e-10
3.34853e-11
7.71897e-11
6.93062e-10
1.58992e-09
2.66573e-09
3.86549e-09
5.15146e-09
6.49451e-09
7.87066e-09
9.25958e-09
1.06439e-08
1.20087e-08
1.33419e-08
1.46336e-08
1.58766e-08
1.70657e-08
1.81983e-08
1.92734e-08
2.02918e-08
2.12554e-08
2.21671e-08
2.30302e-08
2.38479e-08
2.46233e-08
2.53592e-08
2.60575e-08
2.67192e-08
2.73448e-08
2.79337e-08
2.84843e-08
2.89946e-08
2.94615e-08
2.98814e-08
3.02503e-08
3.05638e-08
3.0817e-08
3.1005e-08
3.11191e-08
3.11591e-08
3.11247e-08
3.10059e-08
3.07993e-08
3.05022e-08
3.01125e-08
2.96292e-08
2.90524e-08
2.83833e-08
2.76246e-08
2.678e-08
2.58547e-08
2.48549e-08
2.37883e-08
2.26634e-08
2.14895e-08
2.02767e-08
1.90353e-08
1.77759e-08
1.65089e-08
1.52444e-08
1.39917e-08
1.27594e-08
1.15552e-08
1.03857e-08
9.2562e-09
8.17114e-09
7.13379e-09
6.14656e-09
5.21124e-09
4.32928e-09
3.50223e-09
2.73232e-09
2.02325e-09
1.38149e-09
8.1843e-10
3.55415e-10
3.95429e-11
9.1037e-11
8.17516e-10
1.87596e-09
3.14643e-09
4.56428e-09
6.08507e-09
7.67425e-09
9.3032e-09
1.09474e-08
1.25858e-08
1.42002e-08
1.57757e-08
1.73003e-08
1.8765e-08
2.01638e-08
2.14934e-08
2.27528e-08
2.39431e-08
2.50669e-08
2.61277e-08
2.71297e-08
2.8077e-08
2.89736e-08
2.98227e-08
3.06269e-08
3.13876e-08
3.21054e-08
3.27796e-08
3.34087e-08
3.39902e-08
3.45208e-08
3.49964e-08
3.54124e-08
3.57636e-08
3.60447e-08
3.625e-08
3.63681e-08
3.6403e-08
3.63504e-08
3.61999e-08
3.59478e-08
3.55908e-08
3.51266e-08
3.45542e-08
3.38736e-08
3.30864e-08
3.21955e-08
3.12052e-08
3.01215e-08
2.89517e-08
2.77045e-08
2.63897e-08
2.50183e-08
2.36017e-08
2.21522e-08
2.06819e-08
1.92031e-08
1.77273e-08
1.62657e-08
1.48283e-08
1.34242e-08
1.2061e-08
1.07452e-08
9.4818e-09
8.27468e-09
7.12664e-09
6.03972e-09
5.01555e-09
4.05582e-09
3.16303e-09
2.34136e-09
1.59817e-09
9.46521e-10
4.10944e-10
4.57145e-11
1.05698e-10
9.49271e-10
2.17877e-09
3.65538e-09
5.30432e-09
7.07406e-09
8.92436e-09
1.08215e-08
1.27365e-08
1.4644e-08
1.65224e-08
1.83533e-08
2.01225e-08
2.18191e-08
2.3436e-08
2.49692e-08
2.64179e-08
2.77836e-08
2.90695e-08
3.02802e-08
3.14208e-08
3.24966e-08
3.35122e-08
3.4472e-08
3.53788e-08
3.62348e-08
3.70405e-08
3.77956e-08
3.84984e-08
3.91461e-08
3.97351e-08
4.02609e-08
4.07182e-08
4.11015e-08
4.14045e-08
4.1621e-08
4.17366e-08
4.17616e-08
4.16851e-08
4.14976e-08
4.11946e-08
4.07728e-08
4.02296e-08
3.95639e-08
3.87759e-08
3.78672e-08
3.68411e-08
3.57026e-08
3.44583e-08
3.31163e-08
3.16865e-08
3.018e-08
2.86089e-08
2.69865e-08
2.53263e-08
2.36423e-08
2.19484e-08
2.0258e-08
1.85837e-08
1.69373e-08
1.53291e-08
1.37681e-08
1.22617e-08
1.08159e-08
9.4352e-09
8.12287e-09
6.88124e-09
5.71211e-09
4.61737e-09
3.59971e-09
2.66377e-09
1.81775e-09
1.07633e-09
4.67224e-10
5.19705e-11
1.2116e-10
1.08822e-09
2.49814e-09
4.19222e-09
6.08508e-09
8.11775e-09
1.02439e-08
1.24245e-08
1.46254e-08
1.68167e-08
1.89726e-08
2.10714e-08
2.30958e-08
2.50332e-08
2.6875e-08
2.86169e-08
3.0258e-08
3.18005e-08
3.32486e-08
3.4608e-08
3.58848e-08
3.70857e-08
3.82164e-08
3.9282e-08
4.02862e-08
4.12317e-08
4.21193e-08
4.29489e-08
4.37186e-08
4.44256e-08
4.5066e-08
4.56347e-08
4.61262e-08
4.65343e-08
4.68522e-08
4.7072e-08
4.71782e-08
4.71877e-08
4.7081e-08
4.68506e-08
4.64916e-08
4.60005e-08
4.53745e-08
4.46126e-08
4.37149e-08
4.26832e-08
4.15213e-08
4.02344e-08
3.88298e-08
3.73165e-08
3.57052e-08
3.40079e-08
3.22382e-08
3.04105e-08
2.854e-08
2.66421e-08
2.47324e-08
2.28259e-08
2.0937e-08
1.90791e-08
1.72639e-08
1.55018e-08
1.38016e-08
1.217e-08
1.06125e-08
9.1328e-09
7.73368e-09
6.41719e-09
5.18538e-09
4.04117e-09
2.98958e-09
2.03959e-09
1.20747e-09
5.24087e-10
5.82922e-11
1.37408e-10
1.23423e-09
2.83375e-09
4.75644e-09
6.90584e-09
9.2152e-09
1.16318e-08
1.41106e-08
1.66121e-08
1.91013e-08
2.15477e-08
2.39256e-08
2.62148e-08
2.84003e-08
3.04724e-08
3.24263e-08
3.42612e-08
3.59802e-08
3.75885e-08
3.90931e-08
4.05018e-08
4.18224e-08
4.3062e-08
4.42267e-08
4.53212e-08
4.63485e-08
4.73101e-08
4.82059e-08
4.90341e-08
4.97918e-08
5.04748e-08
5.10778e-08
5.15947e-08
5.2019e-08
5.23435e-08
5.25566e-08
5.26483e-08
5.26346e-08
5.24912e-08
5.22122e-08
5.17926e-08
5.12284e-08
5.05171e-08
4.96574e-08
4.86496e-08
4.74957e-08
4.61996e-08
4.47669e-08
4.32054e-08
4.15246e-08
3.97358e-08
3.78519e-08
3.58875e-08
3.38582e-08
3.17802e-08
2.96707e-08
2.75465e-08
2.54246e-08
2.33208e-08
2.12501e-08
1.92261e-08
1.72606e-08
1.53636e-08
1.35433e-08
1.18058e-08
1.01558e-08
8.5965e-09
7.13026e-09
5.75937e-09
4.48697e-09
3.31842e-09
2.26344e-09
1.33978e-09
5.81455e-10
6.46717e-11
1.54423e-10
1.38712e-09
3.18519e-09
5.34736e-09
7.76563e-09
1.03651e-08
1.30862e-08
1.58777e-08
1.8694e-08
2.14944e-08
2.42432e-08
2.69106e-08
2.94727e-08
3.19124e-08
3.42185e-08
3.63858e-08
3.84141e-08
4.03071e-08
4.20716e-08
4.37162e-08
4.52504e-08
4.66834e-08
4.80239e-08
4.92791e-08
5.04547e-08
5.15544e-08
5.25803e-08
5.35323e-08
5.4409e-08
5.52073e-08
5.59226e-08
5.65497e-08
5.7082e-08
5.75127e-08
5.78343e-08
5.80309e-08
5.81032e-08
5.80575e-08
5.78711e-08
5.75384e-08
5.70542e-08
5.64144e-08
5.56166e-08
5.46594e-08
5.35433e-08
5.22703e-08
5.08443e-08
4.92713e-08
4.75591e-08
4.57175e-08
4.37584e-08
4.16951e-08
3.95429e-08
3.73181e-08
3.50383e-08
3.27216e-08
3.03865e-08
2.80513e-08
2.57336e-08
2.34501e-08
2.12162e-08
1.90453e-08
1.69491e-08
1.4937e-08
1.30165e-08
1.1193e-08
9.47056e-09
7.85196e-09
6.33978e-09
4.93738e-09
3.65045e-09
2.48936e-09
1.47328e-09
6.39335e-10
7.11099e-11
1.72175e-10
1.54664e-09
3.5519e-09
5.96405e-09
8.66311e-09
1.15657e-08
1.46049e-08
1.77229e-08
2.08674e-08
2.39914e-08
2.70536e-08
3.00194e-08
3.28613e-08
3.55595e-08
3.81016e-08
4.04821e-08
4.27012e-08
4.4764e-08
4.66789e-08
4.84564e-08
5.01077e-08
5.1644e-08
5.30755e-08
5.44109e-08
5.56568e-08
5.68179e-08
5.78966e-08
5.88935e-08
5.98071e-08
6.06344e-08
6.13707e-08
6.20106e-08
6.25474e-08
6.29739e-08
6.32823e-08
6.34529e-08
6.34998e-08
6.34146e-08
6.31792e-08
6.27884e-08
6.22369e-08
6.15206e-08
6.06369e-08
5.95847e-08
5.83643e-08
5.69777e-08
5.54289e-08
5.37237e-08
5.18699e-08
4.98773e-08
4.77578e-08
4.55251e-08
4.31946e-08
4.07833e-08
3.83095e-08
3.57923e-08
3.32514e-08
3.07066e-08
2.81772e-08
2.56817e-08
2.32373e-08
2.08594e-08
1.85614e-08
1.63544e-08
1.42474e-08
1.2247e-08
1.0358e-08
8.58398e-09
6.92788e-09
5.39331e-09
3.98627e-09
2.71772e-09
1.60819e-09
6.97814e-10
7.76157e-11
1.90629e-10
1.71247e-09
3.93314e-09
6.60529e-09
9.5965e-09
1.28145e-08
1.61848e-08
1.96423e-08
2.31274e-08
2.65863e-08
2.99717e-08
3.32436e-08
3.63705e-08
3.933e-08
4.21084e-08
4.46999e-08
4.71056e-08
4.93321e-08
5.13896e-08
5.32909e-08
5.50493e-08
5.6678e-08
5.81891e-08
5.95927e-08
6.08967e-08
6.21066e-08
6.32256e-08
6.42546e-08
6.51924e-08
6.6036e-08
6.6781e-08
6.74218e-08
6.79517e-08
6.83635e-08
6.86473e-08
6.87837e-08
6.87989e-08
6.86673e-08
6.83782e-08
6.79262e-08
6.73063e-08
6.65141e-08
6.55473e-08
6.44045e-08
6.30862e-08
6.15941e-08
5.9932e-08
5.81053e-08
5.61216e-08
5.39903e-08
5.1723e-08
4.93333e-08
4.68365e-08
4.42499e-08
4.1592e-08
3.88829e-08
3.61431e-08
3.33938e-08
3.0656e-08
2.79499e-08
2.52949e-08
2.27084e-08
2.02059e-08
1.78006e-08
1.55031e-08
1.33216e-08
1.12621e-08
9.32893e-09
7.52566e-09
5.85621e-09
4.32689e-09
2.94917e-09
1.74486e-09
7.57045e-10
8.42058e-11
2.0974e-10
1.8842e-09
4.328e-09
7.26954e-09
1.05635e-08
1.41085e-08
1.78219e-08
2.16308e-08
2.54679e-08
2.92719e-08
3.29887e-08
3.65727e-08
3.99883e-08
4.32101e-08
4.62233e-08
4.90219e-08
5.16083e-08
5.39906e-08
5.61814e-08
5.81957e-08
6.00496e-08
6.17584e-08
6.33361e-08
6.47946e-08
6.61431e-08
6.73881e-08
6.85336e-08
6.9581e-08
7.05294e-08
7.13762e-08
7.21171e-08
7.27464e-08
7.3258e-08
7.36447e-08
7.3891e-08
7.3991e-08
7.39653e-08
7.37823e-08
7.34362e-08
7.29216e-08
7.22339e-08
7.13687e-08
7.03233e-08
6.90967e-08
6.7689e-08
6.61016e-08
6.43377e-08
6.24025e-08
6.03026e-08
5.80471e-08
5.56467e-08
5.31145e-08
5.04654e-08
4.77165e-08
4.48864e-08
4.19955e-08
3.90652e-08
3.61177e-08
3.31757e-08
3.02613e-08
2.73959e-08
2.45993e-08
2.18895e-08
1.9282e-08
1.67894e-08
1.44219e-08
1.2187e-08
1.00902e-08
8.13577e-09
6.32805e-09
4.67366e-09
3.18459e-09
1.88379e-09
8.17236e-10
9.09034e-11
2.29453e-10
2.06134e-09
4.73533e-09
7.95489e-09
1.15615e-08
1.5444e-08
1.95114e-08
2.36824e-08
2.78815e-08
3.20392e-08
3.60941e-08
3.99947e-08
4.37008e-08
4.71844e-08
5.0429e-08
5.34293e-08
5.61885e-08
5.87171e-08
6.10302e-08
6.31456e-08
6.50819e-08
6.68571e-08
6.84873e-08
6.99863e-08
7.13647e-08
7.26303e-08
7.37878e-08
7.48392e-08
7.57844e-08
7.66209e-08
7.73447e-08
7.79506e-08
7.84326e-08
7.87836e-08
7.89833e-08
7.90456e-08
7.897e-08
7.87324e-08
7.83279e-08
7.77514e-08
7.69984e-08
7.60649e-08
7.49478e-08
7.36459e-08
7.21589e-08
7.0488e-08
6.86358e-08
6.66063e-08
6.44056e-08
6.20417e-08
5.95243e-08
5.68656e-08
5.40798e-08
5.11832e-08
4.81942e-08
4.51331e-08
4.2022e-08
3.88839e-08
3.57429e-08
3.26231e-08
2.9548e-08
2.654e-08
2.36199e-08
2.08057e-08
1.81129e-08
1.55538e-08
1.31378e-08
1.08719e-08
8.76136e-09
6.81115e-09
5.02824e-09
3.42504e-09
2.02558e-09
8.78643e-10
9.77366e-11
2.49703e-10
2.24331e-09
5.15382e-09
8.6591e-09
1.2587e-08
1.68164e-08
2.12475e-08
2.57899e-08
3.03593e-08
3.48776e-08
3.92757e-08
4.34956e-08
4.74924e-08
5.12352e-08
5.47065e-08
5.79011e-08
6.0824e-08
6.3488e-08
6.59111e-08
6.81142e-08
7.01188e-08
7.19456e-08
7.36133e-08
7.51376e-08
7.65307e-08
7.78017e-08
7.89564e-08
7.99976e-08
8.09256e-08
8.17387e-08
8.24333e-08
8.30048e-08
8.34474e-08
8.37526e-08
8.39005e-08
8.39217e-08
8.37918e-08
8.34982e-08
8.30359e-08
8.24002e-08
8.15867e-08
8.05914e-08
7.9411e-08
7.80438e-08
7.64892e-08
7.47478e-08
7.28212e-08
7.07128e-08
6.84272e-08
6.59714e-08
6.33538e-08
6.05854e-08
5.76792e-08
5.46504e-08
5.15169e-08
4.82986e-08
4.50176e-08
4.16976e-08
3.83639e-08
3.50424e-08
3.17589e-08
2.85385e-08
2.5405e-08
2.23796e-08
1.94807e-08
1.67235e-08
1.41198e-08
1.16784e-08
9.40595e-09
7.30816e-09
5.39248e-09
3.67173e-09
2.17092e-09
9.41555e-10
1.04738e-10
2.70414e-10
2.42943e-09
5.5819e-09
9.37956e-09
1.36363e-08
1.82207e-08
2.30234e-08
2.79449e-08
3.28911e-08
3.77752e-08
4.25195e-08
4.70595e-08
5.13454e-08
5.53433e-08
5.90347e-08
6.24151e-08
6.54911e-08
6.82784e-08
7.07981e-08
7.30744e-08
7.51323e-08
7.69954e-08
7.8685e-08
8.02189e-08
8.16113e-08
8.28726e-08
8.40099e-08
8.50268e-08
8.59246e-08
8.67021e-08
8.73567e-08
8.78842e-08
8.82799e-08
8.85286e-08
8.86278e-08
8.86014e-08
8.84166e-08
8.80682e-08
8.75514e-08
8.68615e-08
8.59941e-08
8.49454e-08
8.37115e-08
8.22902e-08
8.06804e-08
7.88817e-08
7.68951e-08
7.47226e-08
7.2368e-08
6.98364e-08
6.71352e-08
6.42737e-08
6.12634e-08
5.81185e-08
5.48555e-08
5.14936e-08
4.80546e-08
4.45626e-08
4.10436e-08
3.75251e-08
3.40353e-08
3.06022e-08
2.72525e-08
2.40112e-08
2.09001e-08
1.79377e-08
1.51388e-08
1.25145e-08
1.00733e-08
7.82192e-09
5.76838e-09
3.92596e-09
2.32056e-09
1.00628e-09
1.11941e-10
2.91501e-10
2.61894e-09
6.01781e-09
1.01133e-08
1.4705e-08
1.96507e-08
2.48314e-08
3.01377e-08
3.54655e-08
4.07183e-08
4.58101e-08
5.06692e-08
5.52407e-08
5.9488e-08
6.33915e-08
6.69475e-08
7.01649e-08
7.30623e-08
7.56643e-08
7.7999e-08
8.00946e-08
8.19783e-08
8.36739e-08
8.52019e-08
8.65784e-08
8.78154e-08
8.89213e-08
8.9901e-08
9.07567e-08
9.14882e-08
9.20936e-08
9.25695e-08
9.29115e-08
9.31002e-08
9.31556e-08
9.30762e-08
9.28391e-08
9.24401e-08
9.18745e-08
9.11378e-08
9.02253e-08
8.91329e-08
8.78565e-08
8.63929e-08
8.47403e-08
8.28975e-08
8.08644e-08
7.8642e-08
7.62326e-08
7.36403e-08
7.08707e-08
6.79315e-08
6.48328e-08
6.15871e-08
5.82094e-08
5.47179e-08
5.11336e-08
4.74803e-08
4.37847e-08
4.00753e-08
3.63825e-08
3.27369e-08
2.91689e-08
2.57072e-08
2.23775e-08
1.92025e-08
1.62002e-08
1.3385e-08
1.07672e-08
8.35533e-09
6.15802e-09
4.18909e-09
2.47524e-09
1.07315e-09
1.19382e-10
3.12869e-10
2.81097e-09
6.45961e-09
1.0857e-08
1.57882e-08
2.11e-08
2.66631e-08
3.23578e-08
3.80697e-08
4.36922e-08
4.91305e-08
5.43056e-08
5.91576e-08
6.36469e-08
6.77532e-08
7.14738e-08
7.48199e-08
7.78135e-08
8.04831e-08
8.28607e-08
8.49784e-08
8.68668e-08
8.8553e-08
9.00599e-08
9.1406e-08
9.2605e-08
9.3667e-08
9.45982e-08
9.54019e-08
9.60791e-08
9.6629e-08
9.70493e-08
9.73323e-08
9.74636e-08
9.74774e-08
9.73472e-08
9.70631e-08
9.66205e-08
9.60147e-08
9.52408e-08
9.42939e-08
9.31692e-08
9.18621e-08
9.03683e-08
8.86851e-08
8.68103e-08
8.47429e-08
8.24828e-08
8.00311e-08
7.73905e-08
7.45654e-08
7.15619e-08
6.83885e-08
6.50558e-08
6.15774e-08
5.79699e-08
5.4253e-08
5.04499e-08
4.65872e-08
4.26942e-08
3.8803e-08
3.49467e-08
3.11592e-08
2.74732e-08
2.39191e-08
2.05237e-08
1.73095e-08
1.42944e-08
1.14915e-08
8.91129e-09
6.56346e-09
4.46245e-09
2.63575e-09
1.14248e-09
1.27097e-10
3.34413e-10
3.00461e-09
6.90513e-09
1.16071e-08
1.68806e-08
2.25613e-08
2.8509e-08
3.45935e-08
4.06897e-08
4.66806e-08
5.24623e-08
5.79485e-08
6.30742e-08
6.77968e-08
7.20954e-08
7.59684e-08
7.943e-08
8.25055e-08
8.52277e-08
8.76328e-08
8.97572e-08
9.16351e-08
9.3297e-08
9.47687e-08
9.6071e-08
9.722e-08
9.82272e-08
9.91007e-08
9.98451e-08
1.00463e-07
1.00954e-07
1.01317e-07
1.0154e-07
1.01625e-07
1.01596e-07
1.01423e-07
1.01101e-07
1.00625e-07
9.99903e-08
9.91915e-08
9.82227e-08
9.70784e-08
9.5753e-08
9.42413e-08
9.2539e-08
9.06433e-08
8.85519e-08
8.62638e-08
8.37793e-08
8.10999e-08
7.82288e-08
7.5171e-08
7.19333e-08
6.8525e-08
6.49577e-08
6.12463e-08
5.7409e-08
5.34678e-08
4.94483e-08
4.53803e-08
4.12966e-08
3.7233e-08
3.32262e-08
2.93132e-08
2.55292e-08
2.19061e-08
1.84713e-08
1.52469e-08
1.22497e-08
9.49255e-09
6.98668e-09
4.74736e-09
2.80282e-09
1.21458e-09
1.3512e-10
3.56022e-10
3.19883e-09
7.35208e-09
1.23596e-08
1.79766e-08
2.40267e-08
3.03592e-08
3.68326e-08
4.33108e-08
4.96665e-08
5.57864e-08
6.15768e-08
6.69676e-08
7.19134e-08
7.63928e-08
8.04057e-08
8.39689e-08
8.7112e-08
8.98719e-08
9.22896e-08
9.44058e-08
9.62588e-08
9.78826e-08
9.93064e-08
1.00553e-07
1.01642e-07
1.02587e-07
1.03396e-07
1.04076e-07
1.04632e-07
1.05064e-07
1.05373e-07
1.05541e-07
1.05591e-07
1.05525e-07
1.0532e-07
1.04972e-07
1.04477e-07
1.03828e-07
1.03019e-07
1.02043e-07
1.00893e-07
9.95626e-08
9.80453e-08
9.63351e-08
9.44279e-08
9.23208e-08
9.00118e-08
8.75005e-08
8.47878e-08
8.18762e-08
7.87698e-08
7.54743e-08
7.19976e-08
6.835e-08
6.45444e-08
6.05972e-08
5.65285e-08
5.23628e-08
4.8129e-08
4.38604e-08
3.95942e-08
3.53701e-08
3.12289e-08
2.72109e-08
2.33534e-08
1.96894e-08
1.62462e-08
1.3045e-08
1.01016e-08
7.42953e-09
5.045e-09
2.97712e-09
1.28973e-09
1.43483e-10
3.77577e-10
3.39258e-09
7.79801e-09
1.31105e-08
1.90699e-08
2.54881e-08
3.22029e-08
3.90618e-08
4.59174e-08
5.26319e-08
5.90826e-08
6.51686e-08
7.08145e-08
7.59723e-08
8.06203e-08
8.47599e-08
8.8411e-08
9.16073e-08
9.43907e-08
9.68067e-08
9.89009e-08
1.00716e-07
1.0229e-07
1.03654e-07
1.04837e-07
1.05858e-07
1.06734e-07
1.07475e-07
1.08091e-07
1.08587e-07
1.08965e-07
1.09224e-07
1.0935e-07
1.09374e-07
1.09282e-07
1.09061e-07
1.08704e-07
1.08207e-07
1.07561e-07
1.06759e-07
1.05793e-07
1.04653e-07
1.03332e-07
1.01822e-07
1.00114e-07
9.82043e-08
9.60878e-08
9.37622e-08
9.12268e-08
8.84822e-08
8.55308e-08
8.23762e-08
7.90241e-08
7.54814e-08
7.17572e-08
6.78631e-08
6.38133e-08
5.9626e-08
5.53235e-08
5.09335e-08
4.64885e-08
4.20262e-08
3.75885e-08
3.32198e-08
2.89651e-08
2.48676e-08
2.09666e-08
1.72952e-08
1.38799e-08
1.07408e-08
7.89364e-09
5.35647e-09
3.15927e-09
1.36819e-09
1.52213e-10
3.98953e-10
3.58475e-09
8.24035e-09
1.38553e-08
2.01543e-08
2.69368e-08
3.40292e-08
4.12676e-08
4.84934e-08
5.55582e-08
6.23303e-08
6.87014e-08
7.45912e-08
7.99489e-08
8.47526e-08
8.90056e-08
9.27311e-08
9.5967e-08
9.87603e-08
1.01162e-07
1.03221e-07
1.04987e-07
1.065e-07
1.07798e-07
1.08909e-07
1.09857e-07
1.10662e-07
1.11336e-07
1.1189e-07
1.12331e-07
1.12662e-07
1.12882e-07
1.12982e-07
1.12993e-07
1.12894e-07
1.12674e-07
1.12329e-07
1.11849e-07
1.11227e-07
1.10453e-07
1.09516e-07
1.08404e-07
1.07108e-07
1.05618e-07
1.03925e-07
1.0202e-07
9.98998e-08
9.75599e-08
9.49998e-08
9.22207e-08
8.92252e-08
8.60177e-08
8.26039e-08
7.89913e-08
7.51884e-08
7.12058e-08
6.70562e-08
6.27555e-08
5.83236e-08
5.37857e-08
4.91729e-08
4.45221e-08
3.98764e-08
3.52827e-08
3.07906e-08
2.64492e-08
2.23042e-08
1.83959e-08
1.47567e-08
1.14117e-08
8.38042e-09
5.68269e-09
3.34978e-09
1.45017e-09
1.61334e-10
4.20024e-10
3.77418e-09
8.67647e-09
1.45897e-08
2.12231e-08
2.83639e-08
3.58267e-08
4.3436e-08
5.10224e-08
5.84269e-08
6.55089e-08
7.2153e-08
7.82739e-08
8.38187e-08
8.87651e-08
9.31183e-08
9.6905e-08
1.00168e-07
1.02959e-07
1.05334e-07
1.07348e-07
1.09055e-07
1.105e-07
1.11724e-07
1.12759e-07
1.13634e-07
1.14368e-07
1.14978e-07
1.15477e-07
1.15872e-07
1.16168e-07
1.16367e-07
1.16459e-07
1.16471e-07
1.16386e-07
1.16191e-07
1.1588e-07
1.15443e-07
1.14869e-07
1.14145e-07
1.13258e-07
1.12196e-07
1.10943e-07
1.09489e-07
1.07821e-07
1.05931e-07
1.03811e-07
1.01458e-07
9.88708e-08
9.60512e-08
9.3003e-08
8.9732e-08
8.62455e-08
8.2552e-08
7.86611e-08
7.45831e-08
7.033e-08
6.59157e-08
6.13576e-08
5.66779e-08
5.19048e-08
4.70736e-08
4.22265e-08
3.74124e-08
3.26843e-08
2.80967e-08
2.37025e-08
1.95492e-08
1.56766e-08
1.21159e-08
8.89095e-09
6.02441e-09
3.54908e-09
1.53584e-09
1.70865e-10
4.40659e-10
3.95972e-09
9.1037e-09
1.53091e-08
2.22699e-08
2.97606e-08
3.7584e-08
4.55532e-08
5.34879e-08
6.12192e-08
6.85978e-08
7.55012e-08
8.18398e-08
8.75581e-08
9.26341e-08
9.70747e-08
1.0091e-07
1.04188e-07
1.06966e-07
1.09305e-07
1.11266e-07
1.12906e-07
1.14278e-07
1.15424e-07
1.16383e-07
1.17185e-07
1.17853e-07
1.18406e-07
1.18859e-07
1.1922e-07
1.19498e-07
1.19694e-07
1.19802e-07
1.19834e-07
1.19787e-07
1.19643e-07
1.19393e-07
1.19026e-07
1.18526e-07
1.17879e-07
1.17069e-07
1.16077e-07
1.14889e-07
1.13487e-07
1.1186e-07
1.09994e-07
1.07882e-07
1.05517e-07
1.029e-07
1.00031e-07
9.69186e-08
9.35689e-08
8.99923e-08
8.61999e-08
8.22035e-08
7.80151e-08
7.36467e-08
6.91114e-08
6.44244e-08
5.96044e-08
5.4676e-08
4.96712e-08
4.46302e-08
3.96016e-08
3.46408e-08
2.9807e-08
2.516e-08
2.07551e-08
1.66403e-08
1.28542e-08
9.42602e-09
6.38217e-09
3.75746e-09
1.62532e-09
1.8082e-10
4.6073e-10
4.14021e-09
9.51937e-09
1.60091e-08
2.3288e-08
3.11178e-08
3.92897e-08
4.76055e-08
5.5874e-08
6.39171e-08
7.15769e-08
7.87248e-08
8.52665e-08
9.11446e-08
9.63371e-08
1.00853e-07
1.04726e-07
1.08009e-07
1.10764e-07
1.13059e-07
1.1496e-07
1.1653e-07
1.17825e-07
1.18894e-07
1.19778e-07
1.20511e-07
1.2112e-07
1.21627e-07
1.22046e-07
1.2239e-07
1.22667e-07
1.2288e-07
1.2303e-07
1.23109e-07
1.23125e-07
1.2306e-07
1.22901e-07
1.22632e-07
1.22237e-07
1.21697e-07
1.2099e-07
1.20097e-07
1.18997e-07
1.1767e-07
1.16099e-07
1.14271e-07
1.12174e-07
1.09802e-07
1.07152e-07
1.04227e-07
1.01036e-07
9.75891e-08
9.38998e-08
8.99837e-08
8.58565e-08
8.15335e-08
7.70289e-08
7.23563e-08
6.75294e-08
6.25641e-08
5.74808e-08
5.23067e-08
4.70782e-08
4.18418e-08
3.66532e-08
3.15753e-08
2.66738e-08
2.20123e-08
1.76476e-08
1.36268e-08
9.98606e-09
6.7563e-09
3.97511e-09
1.71868e-09
1.91206e-10
4.8011e-10
4.3145e-09
9.92086e-09
1.66851e-08
2.42709e-08
3.24271e-08
4.09329e-08
4.95794e-08
5.81651e-08
6.65028e-08
7.44271e-08
8.18033e-08
8.85331e-08
9.45571e-08
9.98534e-08
1.04433e-07
1.08334e-07
1.11613e-07
1.14339e-07
1.16583e-07
1.1842e-07
1.19917e-07
1.21135e-07
1.22129e-07
1.22944e-07
1.23616e-07
1.24176e-07
1.24648e-07
1.2505e-07
1.25395e-07
1.25692e-07
1.25945e-07
1.26156e-07
1.26319e-07
1.26427e-07
1.26466e-07
1.26429e-07
1.26292e-07
1.26033e-07
1.25631e-07
1.25061e-07
1.24297e-07
1.23314e-07
1.22088e-07
1.20597e-07
1.18824e-07
1.16754e-07
1.1438e-07
1.11697e-07
1.0871e-07
1.05427e-07
1.01862e-07
9.80347e-08
9.39647e-08
8.96739e-08
8.51832e-08
8.05114e-08
7.56747e-08
7.06872e-08
6.55629e-08
6.03178e-08
5.49739e-08
4.95618e-08
4.41237e-08
3.87135e-08
3.33953e-08
2.82398e-08
2.33184e-08
1.86975e-08
1.44336e-08
1.05711e-08
7.14693e-09
4.2021e-09
1.81593e-09
2.02024e-10
4.98676e-10
4.4815e-09
1.03056e-08
1.7333e-08
2.52123e-08
3.36799e-08
4.25031e-08
5.14622e-08
6.03464e-08
6.896e-08
7.71306e-08
8.4718e-08
9.16202e-08
9.77761e-08
1.03164e-07
1.07797e-07
1.11717e-07
1.14986e-07
1.17676e-07
1.19867e-07
1.21638e-07
1.23063e-07
1.24207e-07
1.25131e-07
1.25882e-07
1.26502e-07
1.27026e-07
1.27478e-07
1.2788e-07
1.28246e-07
1.28586e-07
1.28904e-07
1.292e-07
1.2947e-07
1.29704e-07
1.2989e-07
1.29999e-07
1.30024e-07
1.29935e-07
1.29706e-07
1.29305e-07
1.28704e-07
1.27871e-07
1.26776e-07
1.25394e-07
1.23701e-07
1.21678e-07
1.19314e-07
1.16604e-07
1.13551e-07
1.10165e-07
1.06464e-07
1.02471e-07
9.82139e-08
9.37212e-08
8.90219e-08
8.4142e-08
7.91033e-08
7.39231e-08
6.86151e-08
6.31924e-08
5.76711e-08
5.20748e-08
4.6439e-08
4.08129e-08
3.52595e-08
2.98525e-08
2.467e-08
1.97881e-08
1.52737e-08
1.1181e-08
7.55395e-09
4.43836e-09
1.91703e-09
2.13272e-10
5.16311e-10
4.64016e-09
1.06713e-08
1.79487e-08
2.61065e-08
3.48684e-08
4.39904e-08
5.32423e-08
6.24044e-08
7.12734e-08
7.96708e-08
8.74515e-08
9.45102e-08
1.00784e-07
1.06252e-07
1.1093e-07
1.14862e-07
1.18115e-07
1.20767e-07
1.22904e-07
1.24609e-07
1.25964e-07
1.27039e-07
1.27899e-07
1.28597e-07
1.29177e-07
1.29678e-07
1.30127e-07
1.30548e-07
1.30955e-07
1.3136e-07
1.31767e-07
1.32175e-07
1.32578e-07
1.32966e-07
1.33322e-07
1.33624e-07
1.33847e-07
1.33948e-07
1.33928e-07
1.33732e-07
1.33328e-07
1.3268e-07
1.31752e-07
1.3051e-07
1.28927e-07
1.26978e-07
1.24647e-07
1.21925e-07
1.18812e-07
1.1532e-07
1.11469e-07
1.07287e-07
1.02809e-07
9.80731e-08
9.31183e-08
8.79809e-08
8.26917e-08
7.72746e-08
7.17463e-08
6.61186e-08
6.04028e-08
5.46147e-08
4.8781e-08
4.29432e-08
3.71601e-08
3.15054e-08
2.60626e-08
2.09167e-08
1.61458e-08
1.18149e-08
7.97705e-09
4.68372e-09
2.02192e-09
2.24939e-10
5.32907e-10
4.7895e-09
1.10155e-08
1.85283e-08
2.69478e-08
3.59854e-08
4.53857e-08
5.49087e-08
6.43267e-08
7.34296e-08
8.20333e-08
8.99887e-08
9.71878e-08
1.03567e-07
1.09104e-07
1.13818e-07
1.17757e-07
1.2099e-07
1.23603e-07
1.25686e-07
1.2733e-07
1.2862e-07
1.29633e-07
1.30438e-07
1.31093e-07
1.31647e-07
1.32139e-07
1.32602e-07
1.3306e-07
1.33529e-07
1.3402e-07
1.34539e-07
1.35083e-07
1.35646e-07
1.36214e-07
1.36769e-07
1.37286e-07
1.37738e-07
1.38092e-07
1.38292e-07
1.38332e-07
1.38162e-07
1.37736e-07
1.37012e-07
1.35949e-07
1.34512e-07
1.32671e-07
1.30402e-07
1.27693e-07
1.24538e-07
1.20947e-07
1.16942e-07
1.12555e-07
1.07828e-07
1.02809e-07
9.75491e-08
9.20987e-08
8.65014e-08
8.07916e-08
7.49932e-08
6.91203e-08
6.31812e-08
5.71843e-08
5.1146e-08
4.50974e-08
3.90891e-08
3.31917e-08