/*--------------------------------*- C++ -*----------------------------------*\
  =========                 |
  \\      /  F ield         | OpenFOAM: The Open Source CFD Toolbox
   \\    /   O peration     | Website:  https://openfoam.org
    \\  /    A nd           | Version:  12
     \\/     M anipulation  |
\*---------------------------------------------------------------------------*/
FoamFile
{
    format      ascii;
    class       volScalarField;
    location    "4";
    object      nut;
}
// * * * * * * * * * * * * * * * * * * * * * * * * * * * * * * * * * * * * * //

dimensions      [0 2 -1 0 0 0 0];

internalField   nonuniform List<scalar> 
5625
(
4.53043e-17
2.2618e-16
4.93583e-16
8.12024e-16
1.16468e-15
1.54089e-15
1.93263e-15
2.33344e-15
2.73789e-15
3.14141e-15
3.54017e-15
3.93099e-15
4.31134e-15
4.67928e-15
5.03346e-15
5.37302e-15
5.69759e-15
6.0072e-15
6.30217e-15
6.58308e-15
6.85062e-15
7.10554e-15
7.34858e-15
7.58035e-15
7.80133e-15
8.01177e-15
8.21171e-15
8.40094e-15
8.579e-15
8.74518e-15
8.89856e-15
9.03799e-15
9.16218e-15
9.26968e-15
9.35894e-15
9.42835e-15
9.47622e-15
9.50057e-15
9.5014e-15
9.47659e-15
9.42485e-15
9.3452e-15
9.23696e-15
9.09978e-15
8.93364e-15
8.73891e-15
8.51633e-15
8.26704e-15
7.99256e-15
7.6948e-15
7.37597e-15
7.03861e-15
6.68549e-15
6.31957e-15
5.94392e-15
5.56166e-15
5.17587e-15
4.78957e-15
4.40557e-15
4.02652e-15
3.65476e-15
3.29239e-15
2.94115e-15
2.60253e-15
2.27769e-15
1.96756e-15
1.67292e-15
1.39433e-15
1.13242e-15
8.87985e-16
6.62182e-16
4.56954e-16
2.75797e-16
1.25878e-16
2.51892e-17
2.26455e-16
2.05469e-14
6.95235e-14
1.27861e-13
1.90806e-13
2.56923e-13
3.25156e-13
3.94571e-13
4.64337e-13
5.33734e-13
6.02142e-13
6.69048e-13
7.3404e-13
7.96807e-13
8.57131e-13
9.14886e-13
9.70022e-13
1.02256e-12
1.07257e-12
1.12016e-12
1.16547e-12
1.20865e-12
1.24982e-12
1.2891e-12
1.32658e-12
1.36232e-12
1.39633e-12
1.42857e-12
1.45897e-12
1.48741e-12
1.51374e-12
1.53775e-12
1.55923e-12
1.57792e-12
1.59355e-12
1.60585e-12
1.61451e-12
1.61909e-12
1.61962e-12
1.61576e-12
1.60728e-12
1.59402e-12
1.57584e-12
1.55268e-12
1.52453e-12
1.49145e-12
1.45354e-12
1.41102e-12
1.36413e-12
1.3132e-12
1.25862e-12
1.20082e-12
1.14029e-12
1.07755e-12
1.01312e-12
9.47564e-13
8.81407e-13
8.15176e-13
7.49363e-13
6.84424e-13
6.20766e-13
5.58745e-13
4.98661e-13
4.40756e-13
3.85222e-13
3.32199e-13
2.8178e-13
2.34059e-13
1.89101e-13
1.46966e-13
1.07735e-13
7.15328e-14
3.86944e-14
1.1419e-14
1.25798e-16
4.96639e-16
6.97131e-14
3.51736e-13
7.87831e-13
1.2884e-12
1.81617e-12
2.35643e-12
2.90104e-12
3.444e-12
3.98037e-12
4.50595e-12
5.0173e-12
5.51169e-12
5.98708e-12
6.44219e-12
6.87633e-12
7.28946e-12
7.68199e-12
8.05476e-12
8.40886e-12
8.74554e-12
9.06609e-12
9.37172e-12
9.66349e-12
9.94218e-12
1.02083e-11
1.04621e-11
1.07033e-11
1.09314e-11
1.11456e-11
1.13446e-11
1.15269e-11
1.1691e-11
1.18347e-11
1.1956e-11
1.20527e-11
1.21227e-11
1.21618e-11
1.21716e-11
1.21483e-11
1.20901e-11
1.19955e-11
1.18634e-11
1.16931e-11
1.14844e-11
1.12377e-11
1.09536e-11
1.06337e-11
1.02799e-11
9.89463e-12
9.4809e-12
9.04213e-12
8.58208e-12
8.10479e-12
7.61449e-12
7.11545e-12
6.61192e-12
6.10799e-12
5.60751e-12
5.114e-12
4.63059e-12
4.15997e-12
3.70433e-12
3.26541e-12
2.84444e-12
2.44223e-12
2.05919e-12
1.69545e-12
1.35091e-12
1.02547e-12
7.19738e-13
4.37547e-13
1.95067e-13
3.86584e-14
2.74874e-16
8.24053e-16
1.29107e-13
7.91359e-13
2.08599e-12
3.78366e-12
5.67313e-12
7.63827e-12
9.62001e-12
1.15853e-11
1.35128e-11
1.53873e-11
1.71977e-11
1.89357e-11
2.05959e-11
2.21754e-11
2.36736e-11
2.50918e-11
2.64332e-11
2.7702e-11
2.89034e-11
3.00429e-11
3.11261e-11
3.21582e-11
3.31435e-11
3.40855e-11
3.49865e-11
3.58476e-11
3.66684e-11
3.74473e-11
3.81815e-11
3.88668e-11
3.94981e-11
4.00693e-11
4.05735e-11
4.1003e-11
4.135e-11
4.16081e-11
4.1758e-11
4.18109e-11
4.17498e-11
4.15679e-11
4.12595e-11
4.082e-11
4.02467e-11
3.95384e-11
3.86956e-11
3.77209e-11
3.66191e-11
3.53967e-11
3.40625e-11
3.2627e-11
3.11022e-11
2.95017e-11
2.784e-11
2.61321e-11
2.43935e-11
2.26393e-11
2.08841e-11
1.91416e-11
1.74242e-11
1.57428e-11
1.41064e-11
1.25225e-11
1.09963e-11
9.53141e-12
8.12961e-12
6.79121e-12
5.51573e-12
4.303e-12
3.15637e-12
2.09067e-12
1.15064e-12
4.36935e-13
7.12115e-14
4.53142e-16
1.19635e-15
1.94871e-13
1.30606e-12
3.81226e-12
7.51918e-12
1.19654e-11
1.67687e-11
2.1688e-11
2.65821e-11
3.13679e-11
3.59946e-11
4.04306e-11
4.46563e-11
4.86617e-11
5.24437e-11
5.60053e-11
5.93544e-11
6.25029e-11
6.54652e-11
6.82575e-11
7.08966e-11
7.33987e-11
7.57785e-11
7.80488e-11
8.02194e-11
8.22971e-11
8.42853e-11
8.61842e-11
8.79902e-11
8.96967e-11
9.12942e-11
9.27702e-11
9.41099e-11
9.52967e-11
9.6312e-11
9.71363e-11
9.77557e-11
9.81167e-11
9.8255e-11
9.8124e-11
9.7707e-11
9.69899e-11
9.59616e-11
9.46148e-11
9.29461e-11
9.09568e-11
8.86528e-11
8.6045e-11
8.31494e-11
7.99866e-11
7.65817e-11
7.2964e-11
6.91656e-11
6.52214e-11
6.11677e-11
5.70411e-11
5.2878e-11
4.87132e-11
4.45789e-11
4.05043e-11
3.65149e-11
3.26313e-11
2.887e-11
2.52424e-11
2.17555e-11
1.84123e-11
1.52136e-11
1.21608e-11
9.26332e-12
6.55208e-12
4.10595e-12
2.08486e-12
7.15528e-13
1.06546e-13
6.51779e-16
1.60769e-15
2.66472e-13
1.86734e-12
5.78845e-12
1.21081e-11
2.0221e-11
2.93802e-11
3.89897e-11
4.8653e-11
5.81268e-11
6.72618e-11
7.59721e-11
8.4212e-11
9.19622e-11
9.92223e-11
1.06006e-10
1.12338e-10
1.18249e-10
1.23775e-10
1.28956e-10
1.3383e-10
1.38434e-10
1.428e-10
1.46957e-10
1.50927e-10
1.54724e-10
1.58356e-10
1.61825e-10
1.65124e-10
1.68241e-10
1.71158e-10
1.73852e-10
1.76293e-10
1.78449e-10
1.80286e-10
1.81766e-10
1.8286e-10
1.83471e-10
1.83665e-10
1.83353e-10
1.82504e-10
1.81092e-10
1.79098e-10
1.76508e-10
1.73318e-10
1.6953e-10
1.65158e-10
1.60221e-10
1.54751e-10
1.48786e-10
1.42375e-10
1.35572e-10
1.28436e-10
1.21032e-10
1.13428e-10
1.05691e-10
9.78881e-11
9.00826e-11
8.23337e-11
7.46944e-11
6.72101e-11
5.99181e-11
5.2847e-11
4.60167e-11
3.94395e-11
3.31223e-11
2.70723e-11
2.13064e-11
1.58705e-11
1.08709e-11
6.5161e-12
3.12741e-12
1.01127e-12
1.43972e-13
8.65447e-16
2.05497e-15
3.43744e-13
2.46863e-12
7.93478e-12
1.72651e-11
2.98871e-11
4.47154e-11
6.06868e-11
7.69832e-11
9.30496e-11
1.08542e-10
1.23265e-10
1.37114e-10
1.50051e-10
1.6208e-10
1.73233e-10
1.83564e-10
1.93138e-10
2.02028e-10
2.10311e-10
2.18061e-10
2.25346e-10
2.32228e-10
2.38757e-10
2.44974e-10
2.50905e-10
2.56566e-10
2.61957e-10
2.67071e-10
2.71886e-10
2.76372e-10
2.8049e-10
2.84194e-10
2.87432e-10
2.90147e-10
2.9228e-10
2.93769e-10
2.9451e-10
2.9457e-10
2.93814e-10
2.92196e-10
2.8968e-10
2.86238e-10
2.81854e-10
2.76524e-10
2.70257e-10
2.63076e-10
2.55018e-10
2.46133e-10
2.36484e-10
2.26147e-10
2.15209e-10
2.03762e-10
1.91908e-10
1.7975e-10
1.67391e-10
1.54933e-10
1.42475e-10
1.30104e-10
1.17902e-10
1.05937e-10
9.42641e-11
8.29275e-11
7.19572e-11
6.13744e-11
5.11967e-11
4.14499e-11
3.21893e-11
2.35348e-11
1.57187e-11
9.12212e-12
4.21854e-12
1.31687e-12
1.83013e-13
1.09036e-15
2.53648e-15
4.26595e-13
3.1091e-12
1.02243e-11
2.28443e-11
4.05819e-11
6.20966e-11
8.58104e-11
1.1036e-10
1.34746e-10
1.58316e-10
1.80677e-10
2.01625e-10
2.21078e-10
2.39041e-10
2.55573e-10
2.70771e-10
2.8475e-10
2.97637e-10
3.09562e-10
3.20648e-10
3.3101e-10
3.40747e-10
3.4994e-10
3.58653e-10
3.66927e-10
3.74786e-10
3.82232e-10
3.89253e-10
3.95817e-10
4.01879e-10
4.07383e-10
4.12261e-10
4.1644e-10
4.1984e-10
4.22379e-10
4.23929e-10
4.24475e-10
4.24006e-10
4.22356e-10
4.19473e-10
4.15314e-10
4.09849e-10
4.03066e-10
3.94966e-10
3.85572e-10
3.74921e-10
3.63072e-10
3.50099e-10
3.36095e-10
3.21167e-10
3.05433e-10
2.89023e-10
2.72074e-10
2.54725e-10
2.37117e-10
2.19384e-10
2.01657e-10
1.84053e-10
1.6668e-10
1.49627e-10
1.32968e-10
1.1676e-10
1.01047e-10
8.58625e-11
7.12431e-11
5.72487e-11
4.39973e-11
3.1716e-11
2.07962e-11
1.18026e-11
5.32911e-12
1.62869e-12
2.23266e-13
1.32364e-15
3.05123e-15
5.14976e-13
3.78924e-12
1.26506e-11
2.87865e-11
5.20937e-11
8.10667e-11
1.13609e-10
1.47728e-10
1.81862e-10
2.14937e-10
2.46288e-10
2.75558e-10
3.02604e-10
3.27426e-10
3.50115e-10
3.70821e-10
3.89728e-10
4.07031e-10
4.22928e-10
4.37606e-10
4.51235e-10
4.6396e-10
4.75901e-10
4.87147e-10
4.97758e-10
5.07766e-10
5.17176e-10
5.25967e-10
5.34099e-10
5.4151e-10
5.48125e-10
5.53856e-10
5.58608e-10
5.62281e-10
5.64773e-10
5.65851e-10
5.6568e-10
5.64154e-10
5.61026e-10
5.56279e-10
5.49871e-10
5.4178e-10
5.32004e-10
5.20558e-10
5.07483e-10
4.92838e-10
4.76707e-10
4.59191e-10
4.40413e-10
4.20511e-10
3.99636e-10
3.77951e-10
3.55625e-10
3.32829e-10
3.09735e-10
2.86508e-10
2.63303e-10
2.40262e-10
2.17514e-10
1.95164e-10
1.73303e-10
1.52e-10
1.31311e-10
1.11284e-10
9.19833e-11
7.35142e-11
5.60749e-11
4.0019e-11
2.59095e-11
1.44891e-11
6.44382e-12
1.94428e-12
2.64404e-13
1.56309e-15
3.5986e-15
6.08854e-13
4.50968e-12
1.52147e-11
3.50714e-11
6.4323e-11
1.01361e-10
1.43577e-10
1.88297e-10
2.33305e-10
2.77017e-10
3.18425e-10
3.56975e-10
3.92438e-10
4.248e-10
4.54193e-10
4.80832e-10
5.04978e-10
5.26912e-10
5.46914e-10
5.65243e-10
5.82136e-10
5.97791e-10
6.12369e-10
6.25989e-10
6.38733e-10
6.5064e-10
6.61716e-10
6.71937e-10
6.81249e-10
6.89577e-10
6.96829e-10
7.02898e-10
7.07671e-10
7.11032e-10
7.12866e-10
7.12833e-10
7.1128e-10
7.0812e-10
7.02883e-10
6.95655e-10
6.86407e-10
6.75134e-10
6.61849e-10
6.46589e-10
6.29418e-10
6.1042e-10
5.89705e-10
5.67403e-10
5.43665e-10
5.18658e-10
4.92563e-10
4.65571e-10
4.37876e-10
4.09678e-10
3.81171e-10
3.52541e-10
3.23964e-10
2.95601e-10
2.67592e-10
2.40057e-10
2.13095e-10
1.86785e-10
1.61193e-10
1.36385e-10
1.12452e-10
8.9552e-11
6.7969e-11
4.81885e-11
3.09429e-11
1.71434e-11
7.55383e-12
2.26189e-12
3.06168e-13
1.80704e-15
4.17812e-15
7.08198e-13
5.27087e-12
1.79188e-11
4.16956e-11
7.72283e-11
1.22839e-10
1.75408e-10
2.31535e-10
2.88288e-10
3.43498e-10
3.95759e-10
4.44283e-10
4.88734e-10
5.29086e-10
5.6551e-10
5.98298e-10
6.27801e-10
6.54398e-10
6.78459e-10
7.00331e-10
7.20319e-10
7.38683e-10
7.55629e-10
7.71309e-10
7.85824e-10
7.99225e-10
8.11522e-10
8.22683e-10
8.32648e-10
8.41328e-10
8.4862e-10
8.54403e-10
8.58553e-10
8.60943e-10
8.61449e-10
8.59628e-10
8.56057e-10
8.5063e-10
8.42733e-10
8.32463e-10
8.19865e-10
8.04954e-10
7.87765e-10
7.68362e-10
7.46831e-10
7.23285e-10
6.97858e-10
6.70709e-10
6.42013e-10
6.11962e-10
5.80761e-10
5.48624e-10
5.15766e-10
4.82405e-10
4.48753e-10
4.15012e-10
3.8137e-10
3.47998e-10
3.15046e-10
2.82641e-10
2.50887e-10
2.19867e-10
1.89656e-10
1.60334e-10
1.3202e-10
1.04919e-10
7.93998e-11
5.60735e-11
3.5831e-11
1.97442e-11
8.65388e-12
2.58027e-12
3.48374e-13
2.05434e-15
4.78933e-15
8.12959e-13
6.07298e-12
2.07646e-11
4.86594e-11
9.07963e-11
1.45424e-10
2.08915e-10
2.77099e-10
3.46266e-10
4.13616e-10
4.77299e-10
5.36266e-10
5.90066e-10
6.38654e-10
6.82248e-10
7.21225e-10
7.5604e-10
7.87176e-10
8.15109e-10
8.40275e-10
8.6306e-10
8.83786e-10
9.02709e-10
9.20016e-10
9.3583e-10
9.50217e-10
9.63188e-10
9.74713e-10
9.84724e-10
9.93127e-10
9.9981e-10
1.00465e-09
1.00752e-09
1.00828e-09
1.00678e-09
1.00254e-09
9.96462e-10
9.88086e-10
9.77129e-10
9.63357e-10
9.47016e-10
9.2814e-10
9.0679e-10
8.83055e-10
8.57046e-10
8.28901e-10
7.98779e-10
7.6686e-10
7.33342e-10
6.98438e-10
6.62371e-10
6.25369e-10
5.87666e-10
5.4949e-10
5.11066e-10
4.72605e-10
4.34303e-10
3.96337e-10
3.58861e-10
3.22004e-10
2.85872e-10
2.5055e-10
2.16118e-10
1.82666e-10
1.50333e-10
1.19369e-10
9.02155e-11
6.35941e-11
4.05402e-11
2.22808e-11
9.74099e-12
2.89862e-12
3.90901e-13
2.30423e-15
5.43161e-15
9.23056e-13
6.91577e-12
2.37525e-11
5.59635e-11
1.05015e-10
1.69073e-10
2.43981e-10
3.24753e-10
4.06859e-10
4.86819e-10
5.62314e-10
6.32016e-10
6.9535e-10
7.52255e-10
8.03004e-10
8.48068e-10
8.88016e-10
9.23448e-10
9.54948e-10
9.83055e-10
1.00824e-09
1.03089e-09
1.05131e-09
1.06974e-09
1.08631e-09
1.10111e-09
1.11416e-09
1.12543e-09
1.13486e-09
1.14235e-09
1.14778e-09
1.15104e-09
1.152e-09
1.15054e-09
1.14638e-09
1.13929e-09
1.13021e-09
1.11839e-09
1.10401e-09
1.08644e-09
1.0661e-09
1.04306e-09
1.01743e-09
9.893e-10
9.58819e-10
9.26142e-10
8.91449e-10
8.54939e-10
8.16827e-10
7.7734e-10
7.36714e-10
6.9519e-10
6.5301e-10
6.10412e-10
5.67626e-10
5.24868e-10
4.8234e-10
4.40221e-10
3.98665e-10
3.57802e-10
3.17738e-10
2.78558e-10
2.40342e-10
2.03185e-10
1.67244e-10
1.328e-10
1.00352e-10
7.07176e-11
4.50576e-11
2.47491e-11
1.08141e-11
3.21663e-12
4.33691e-13
2.5564e-15
6.10416e-15
1.03837e-12
7.79856e-12
2.68809e-11
6.36045e-11
1.19872e-10
1.93747e-10
2.80512e-10
3.74321e-10
4.69776e-10
5.62689e-10
6.50245e-10
7.30832e-10
8.03748e-10
8.68922e-10
9.26691e-10
9.77628e-10
1.02243e-09
1.06181e-09
1.09649e-09
1.12711e-09
1.15422e-09
1.17829e-09
1.19969e-09
1.21868e-09
1.23543e-09
1.25006e-09
1.26259e-09
1.27299e-09
1.28122e-09
1.28718e-09
1.29077e-09
1.29187e-09
1.29037e-09
1.28617e-09
1.27882e-09
1.26862e-09
1.2561e-09
1.24056e-09
1.22234e-09
1.20092e-09
1.17643e-09
1.14916e-09
1.11923e-09
1.08676e-09
1.05191e-09
1.01486e-09
9.75794e-10
9.34937e-10
8.92511e-10
8.48752e-10
8.03906e-10
7.5822e-10
7.11942e-10
6.65313e-10
6.18567e-10
5.71925e-10
5.25587e-10
4.79734e-10
4.34522e-10
3.9008e-10
3.46511e-10
3.039e-10
2.62326e-10
2.21885e-10
1.82744e-10
1.45204e-10
1.09806e-10
7.74429e-11
4.93842e-11
2.71503e-11
1.18737e-11
3.5344e-12
4.76748e-13
2.8109e-15
6.80588e-15
1.15871e-12
8.72016e-12
3.01463e-11
7.15737e-11
1.35346e-10
2.194e-10
3.18419e-10
4.25644e-10
5.34771e-10
6.40876e-10
7.40636e-10
8.32148e-10
9.14588e-10
9.87882e-10
1.05244e-09
1.10895e-09
1.15824e-09
1.20117e-09
1.23858e-09
1.27122e-09
1.29975e-09
1.32471e-09
1.34653e-09
1.36551e-09
1.38187e-09
1.39574e-09
1.40716e-09
1.41612e-09
1.42259e-09
1.42648e-09
1.42769e-09
1.42614e-09
1.42173e-09
1.41437e-09
1.40346e-09
1.38993e-09
1.37369e-09
1.35427e-09
1.332e-09
1.30672e-09
1.27806e-09
1.24659e-09
1.21245e-09
1.17578e-09
1.13674e-09
1.09553e-09
1.05235e-09
1.00743e-09
9.60989e-10
9.13282e-10
8.64555e-10
8.15058e-10
7.65041e-10
7.14747e-10
6.64411e-10
6.14254e-10
5.64479e-10
5.15267e-10
4.66773e-10
4.19128e-10
3.72433e-10
3.26773e-10
2.82223e-10
2.38881e-10
1.96914e-10
1.56635e-10
1.18611e-10
8.379e-11
5.35308e-11
2.94891e-11
1.29218e-11
3.85247e-12
5.20146e-13
3.06806e-15
7.53536e-15
1.28385e-12
9.67885e-12
3.35429e-11
7.98569e-11
1.51407e-10
2.45976e-10
3.576e-10
4.7856e-10
6.01609e-10
7.21062e-10
8.33083e-10
9.35474e-10
1.0273e-09
1.10849e-09
1.17953e-09
1.24125e-09
1.29462e-09
1.34064e-09
1.38029e-09
1.41444e-09
1.44386e-09
1.46916e-09
1.49084e-09
1.50926e-09
1.52467e-09
1.53722e-09
1.547e-09
1.554e-09
1.55821e-09
1.55956e-09
1.55799e-09
1.55341e-09
1.54576e-09
1.53488e-09
1.52021e-09
1.50324e-09
1.48313e-09
1.45978e-09
1.43339e-09
1.40427e-09
1.37156e-09
1.33603e-09
1.29785e-09
1.25717e-09
1.21417e-09
1.16906e-09
1.12204e-09
1.07333e-09
1.02319e-09
9.71849e-10
9.19559e-10
8.66572e-10
8.13137e-10
7.59498e-10
7.0589e-10
6.52535e-10
5.99636e-10
5.47376e-10
4.95913e-10
4.45376e-10
3.95871e-10
3.4748e-10
3.00278e-10
2.54361e-10
2.09893e-10
1.67188e-10
1.26828e-10
8.97932e-11
5.7515e-11
3.17736e-11
1.39613e-11
4.1717e-12
5.63997e-13
3.32856e-15
8.2908e-15
1.41349e-12
1.06723e-11
3.70625e-11
8.84335e-11
1.68013e-10
2.73398e-10
3.97934e-10
5.32891e-10
6.70046e-10
8.02935e-10
9.272e-10
1.04036e-09
1.14136e-09
1.23016e-09
1.30735e-09
1.37387e-09
1.43087e-09
1.4795e-09
1.52088e-09
1.55601e-09
1.58578e-09
1.61088e-09
1.63189e-09
1.64922e-09
1.66316e-09
1.67391e-09
1.68157e-09
1.68617e-09
1.68771e-09
1.68617e-09
1.68148e-09
1.67361e-09
1.66251e-09
1.64779e-09
1.62952e-09
1.60893e-09
1.58497e-09
1.55773e-09
1.52733e-09
1.49432e-09
1.45789e-09
1.41848e-09
1.37647e-09
1.33202e-09
1.28533e-09
1.23658e-09
1.186e-09
1.1338e-09
1.08024e-09
1.02554e-09
9.69969e-10
9.13767e-10
8.57185e-10
8.00465e-10
7.43844e-10
6.87542e-10
6.31767e-10
5.76702e-10
5.2251e-10
4.69325e-10
4.17254e-10
3.66381e-10
3.16784e-10
2.68554e-10
2.2185e-10
1.76983e-10
1.34532e-10
9.54961e-11
6.13595e-11
3.40138e-11
1.49963e-11
4.49324e-12
6.08458e-13
3.59331e-15
9.07003e-15
1.54725e-12
1.16976e-11
4.06943e-11
9.72768e-11
1.8511e-10
3.01573e-10
4.39277e-10
5.88435e-10
7.39817e-10
8.86168e-10
1.0226e-09
1.14636e-09
1.25629e-09
1.35238e-09
1.43532e-09
1.50622e-09
1.56637e-09
1.61712e-09
1.65972e-09
1.69532e-09
1.72492e-09
1.74931e-09
1.76915e-09
1.7849e-09
1.79693e-09
1.80544e-09
1.81059e-09
1.81244e-09
1.81102e-09
1.80631e-09
1.7983e-09
1.78697e-09
1.77229e-09
1.75367e-09
1.73205e-09
1.70773e-09
1.68e-09
1.64901e-09
1.61485e-09
1.57805e-09
1.53821e-09
1.49515e-09
1.44957e-09
1.40163e-09
1.35151e-09
1.29939e-09
1.24551e-09
1.19008e-09
1.13333e-09
1.07553e-09
1.0169e-09
9.57702e-10
8.98182e-10
8.38583e-10
7.79139e-10
7.20076e-10
6.61602e-10
6.03908e-10
5.47159e-10
4.91496e-10
4.37033e-10
3.8386e-10
3.32054e-10
2.81708e-10
2.32973e-10
1.8615e-10
1.41808e-10
1.00948e-10
6.509e-11
3.62214e-11
1.60314e-11
4.81849e-12
6.53718e-13
3.86342e-15
9.87049e-15
1.68467e-12
1.27513e-11
4.44255e-11
1.06354e-10
2.02631e-10
3.3039e-10
4.81461e-10
6.44965e-10
8.10637e-10
9.7042e-10
1.11891e-09
1.25305e-09
1.37163e-09
1.47466e-09
1.56295e-09
1.63778e-09
1.70062e-09
1.75298e-09
1.79631e-09
1.83189e-09
1.86083e-09
1.88404e-09
1.90226e-09
1.91603e-09
1.92574e-09
1.93168e-09
1.93402e-09
1.93286e-09
1.92827e-09
1.92026e-09
1.90884e-09
1.89403e-09
1.87571e-09
1.85332e-09
1.82854e-09
1.8006e-09
1.76931e-09
1.73479e-09
1.69716e-09
1.65678e-09
1.6138e-09
1.56742e-09
1.51857e-09
1.4674e-09
1.4141e-09
1.35887e-09
1.30191e-09
1.24346e-09
1.18374e-09
1.12299e-09
1.06148e-09
9.99437e-10
9.3712e-10
8.74771e-10
8.12628e-10
7.50919e-10
6.89856e-10
6.29637e-10
5.70435e-10
5.12399e-10
4.55652e-10
4.00291e-10
3.464e-10
2.94071e-10
2.43451e-10
1.94824e-10
1.48744e-10
1.06201e-10
6.8734e-11
3.8409e-11
1.70717e-11
5.14897e-12
6.99988e-13
4.14016e-15
1.06892e-14
1.82526e-12
1.38292e-11
4.82406e-11
1.15625e-10
2.20498e-10
3.59716e-10
5.24295e-10
7.02225e-10
8.82192e-10
1.05533e-09
1.2157e-09
1.36e-09
1.48691e-09
1.59651e-09
1.68974e-09
1.76806e-09
1.83313e-09
1.88665e-09
1.93023e-09
1.96532e-09
1.99316e-09
2.01478e-09
2.031e-09
2.04243e-09
2.04953e-09
2.05264e-09
2.05197e-09
2.04766e-09
2.03981e-09
2.02847e-09
2.01368e-09
1.99548e-09
1.97348e-09
1.94785e-09
1.91997e-09
1.88869e-09
1.85413e-09
1.8164e-09
1.77563e-09
1.73198e-09
1.68603e-09
1.6368e-09
1.58493e-09
1.5308e-09
1.47457e-09
1.41643e-09
1.35658e-09
1.29525e-09
1.23268e-09
1.16912e-09
1.10481e-09
1.04e-09
9.74952e-10
9.0991e-10
8.45118e-10
7.80807e-10
7.17197e-10
6.54494e-10
5.92879e-10
5.32512e-10
4.73528e-10
4.16033e-10
3.6012e-10
3.05883e-10
2.53465e-10
2.03137e-10
1.55428e-10
1.11306e-10
7.23192e-11
4.05896e-11
1.81225e-11
5.48632e-12
7.47496e-13
4.4249e-15
1.15227e-14
1.9684e-12
1.49265e-11
5.21218e-11
1.25045e-10
2.3862e-10
3.89405e-10
5.67564e-10
7.59937e-10
9.54144e-10
1.1405e-09
1.31256e-09
1.46674e-09
1.60167e-09
1.71748e-09
1.81526e-09
1.89664e-09
1.96349e-09
2.01772e-09
2.06113e-09
2.09533e-09
2.12169e-09
2.14137e-09
2.15527e-09
2.1641e-09
2.16838e-09
2.1685e-09
2.16472e-09
2.15722e-09
2.14614e-09
2.13156e-09
2.11353e-09
2.0921e-09
2.06666e-09
2.03839e-09
2.00748e-09
1.97323e-09
1.93578e-09
1.89523e-09
1.85168e-09
1.80524e-09
1.75644e-09
1.70481e-09
1.65021e-09
1.59336e-09
1.53439e-09
1.4735e-09
1.41088e-09
1.34677e-09
1.28141e-09
1.21506e-09
1.14796e-09
1.08038e-09
1.01258e-09
9.44827e-10
8.77359e-10
8.1042e-10
7.44239e-10
6.79029e-10
6.14982e-10
5.5227e-10
4.9104e-10
4.31411e-10
3.73486e-10
3.17365e-10
2.63188e-10
2.11213e-10
1.61943e-10
1.16315e-10
7.58727e-11
4.27756e-11
1.91891e-11
5.83217e-12
7.96477e-13
4.71905e-15
1.23674e-14
2.11345e-12
1.6038e-11
5.60494e-11
1.34563e-10
2.569e-10
4.19291e-10
6.11033e-10
8.17798e-10
1.02613e-09
1.22554e-09
1.40906e-09
1.57285e-09
1.71547e-09
1.83712e-09
1.93905e-09
2.0231e-09
2.09134e-09
2.14589e-09
2.18874e-09
2.22169e-09
2.24625e-09
2.2637e-09
2.27506e-09
2.28112e-09
2.28246e-09
2.27954e-09
2.27266e-09
2.26206e-09
2.24789e-09
2.23027e-09
2.20929e-09
2.18482e-09
2.15645e-09
2.12594e-09
2.09237e-09
2.0556e-09
2.0157e-09
1.97276e-09
1.92686e-09
1.87807e-09
1.8267e-09
1.77298e-09
1.71596e-09
1.6566e-09
1.59506e-09
1.53152e-09
1.4662e-09
1.39932e-09
1.33114e-09
1.26194e-09
1.19197e-09
1.12153e-09
1.05088e-09
9.80298e-10
9.10049e-10
8.40383e-10
7.71538e-10
7.03735e-10
6.37181e-10
5.72057e-10
5.08523e-10
4.46713e-10
3.86741e-10
3.28715e-10
2.72775e-10
2.19166e-10
1.68365e-10
1.21274e-10
7.94194e-11
4.49787e-11
2.02762e-11
6.18809e-12
8.47159e-13
5.02402e-15
1.3219e-14
2.25968e-12
1.71579e-11
6.00016e-11
1.44125e-10
2.75226e-10
4.49198e-10
6.54451e-10
8.75489e-10
1.09779e-09
1.31004e-09
1.50475e-09
1.67786e-09
1.82785e-09
1.955e-09
2.06073e-09
2.14708e-09
2.21635e-09
2.27087e-09
2.31285e-09
2.34426e-09
2.36677e-09
2.38181e-09
2.39048e-09
2.39368e-09
2.39207e-09
2.38615e-09
2.3763e-09
2.36277e-09
2.34577e-09
2.32543e-09
2.30187e-09
2.27465e-09
2.24417e-09
2.21165e-09
2.17597e-09
2.13718e-09
2.09536e-09
2.05053e-09
2.00274e-09
1.95206e-09
1.89854e-09
1.84268e-09
1.78381e-09
1.72209e-09
1.65808e-09
1.59195e-09
1.5239e-09
1.45419e-09
1.38308e-09
1.31087e-09
1.23787e-09
1.16436e-09
1.09066e-09
1.01706e-09
9.43842e-10
8.7127e-10
7.99597e-10
7.29057e-10
6.59863e-10
5.92211e-10
5.26271e-10
4.62191e-10
4.00096e-10
3.40106e-10
2.82362e-10
2.27098e-10
1.74765e-10
1.26225e-10
8.29811e-11
4.7209e-11
2.13885e-11
6.55555e-12
8.9976e-13
5.34116e-15
1.40732e-14
2.40631e-12
1.82798e-11
6.39546e-11
1.53669e-10
2.93483e-10
4.78936e-10
6.97552e-10
9.32672e-10
1.16871e-09
1.39355e-09
1.5992e-09
1.78133e-09
1.93837e-09
2.07071e-09
2.17992e-09
2.26825e-09
2.33823e-09
2.39245e-09
2.4333e-09
2.46295e-09
2.48325e-09
2.49575e-09
2.50169e-09
2.50204e-09
2.49756e-09
2.4888e-09
2.47619e-09
2.46003e-09
2.44055e-09
2.41791e-09
2.3922e-09
2.36284e-09
2.33096e-09
2.29681e-09
2.25961e-09
2.21942e-09
2.17623e-09
2.13006e-09
2.08089e-09
2.02872e-09
1.97358e-09
1.91571e-09
1.85524e-09
1.79138e-09
1.72499e-09
1.65625e-09
1.58539e-09
1.5127e-09
1.43846e-09
1.363e-09
1.28668e-09
1.20982e-09
1.13276e-09
1.05584e-09
9.79368e-10
9.03627e-10
8.28887e-10
7.55394e-10
6.83373e-10
6.13027e-10
5.44536e-10
4.78059e-10
4.13733e-10
3.51687e-10
2.92066e-10
2.35097e-10
1.81204e-10
1.31209e-10
8.65756e-11
4.94753e-11
2.25295e-11
6.93583e-12
9.5448e-13
5.67172e-15
1.49252e-14
2.55253e-12
1.93971e-11
6.78838e-11
1.63135e-10
3.11548e-10
5.08308e-10
7.4006e-10
9.89003e-10
1.2385e-09
1.47565e-09
1.69194e-09
1.8828e-09
2.04662e-09
2.18386e-09
2.29625e-09
2.38629e-09
2.45675e-09
2.51043e-09
2.54997e-09
2.57773e-09
2.59573e-09
2.60567e-09
2.60891e-09
2.60653e-09
2.59934e-09
2.588e-09
2.57296e-09
2.55457e-09
2.53307e-09
2.50865e-09
2.48133e-09
2.45055e-09
2.41785e-09
2.3827e-09
2.34465e-09
2.3037e-09
2.25978e-09
2.21285e-09
2.16283e-09
2.10967e-09
2.05334e-09
1.99385e-09
1.93158e-09
1.86606e-09
1.79729e-09
1.72589e-09
1.65209e-09
1.57618e-09
1.49852e-09
1.41948e-09
1.33945e-09
1.25883e-09
1.17802e-09
1.09738e-09
1.01726e-09
9.37991e-10
8.5986e-10
7.83127e-10
7.08027e-10
6.34769e-10
5.63538e-10
4.94502e-10
4.27804e-10
3.63583e-10
3.01986e-10
2.43234e-10
1.8773e-10
1.36252e-10
9.022e-11
5.17851e-11
2.37024e-11
7.33002e-12
1.01149e-12
6.0168e-15
1.57702e-14
2.69746e-12
2.0503e-11
7.17632e-11
1.72455e-10
3.29296e-10
5.37112e-10
7.81694e-10
1.04413e-09
1.30677e-09
1.5559e-09
1.78255e-09
1.98186e-09
2.15218e-09
2.29405e-09
2.40941e-09
2.50095e-09
2.57169e-09
2.62469e-09
2.66281e-09
2.68862e-09
2.70432e-09
2.71176e-09
2.71242e-09
2.70749e-09
2.69789e-09
2.6843e-09
2.66724e-09
2.64711e-09
2.62416e-09
2.59858e-09
2.57028e-09
2.5389e-09
2.50595e-09
2.47054e-09
2.43237e-09
2.39137e-09
2.34741e-09
2.30035e-09
2.25006e-09
2.1964e-09
2.13928e-09
2.07866e-09
2.0146e-09
1.9475e-09
1.87652e-09
1.80236e-09
1.72542e-09
1.64602e-09
1.56458e-09
1.48152e-09
1.39731e-09
1.31242e-09
1.22731e-09
1.14243e-09
1.05818e-09
9.74917e-10
8.92975e-10
8.12631e-10
7.34129e-10
6.57681e-10
5.83476e-10
5.11679e-10
4.4244e-10
3.75897e-10
3.12203e-10
2.51572e-10
1.94384e-10
1.4138e-10
9.39262e-11
5.4145e-11
2.49094e-11
7.73892e-12
1.07093e-12
6.37735e-15
1.66031e-14
2.84023e-12
2.15902e-11
7.55663e-11
1.81564e-10
3.46598e-10
5.65144e-10
8.22172e-10
1.09771e-09
1.3731e-09
1.63388e-09
1.87057e-09
2.07806e-09
2.25465e-09
2.40096e-09
2.51909e-09
2.61197e-09
2.68289e-09
2.73513e-09
2.7718e-09
2.79567e-09
2.80915e-09
2.81423e-09
2.81253e-09
2.80534e-09
2.79366e-09
2.77825e-09
2.75969e-09
2.73837e-09
2.71458e-09
2.68851e-09
2.66008e-09
2.62895e-09
2.59634e-09
2.56147e-09
2.52398e-09
2.4837e-09
2.44042e-09
2.39391e-09
2.34395e-09
2.29033e-09
2.23288e-09
2.17148e-09
2.10609e-09
2.037e-09
1.96416e-09
1.88715e-09
1.80684e-09
1.72363e-09
1.63797e-09
1.55038e-09
1.46142e-09
1.37164e-09
1.28161e-09
1.19184e-09
1.10283e-09
1.01501e-09
9.28724e-10
8.443e-10
7.61989e-10
6.82008e-10
6.04538e-10
5.29738e-10
4.57753e-10
3.88719e-10
3.22786e-10
2.6016e-10
2.01202e-10
1.4661e-10
9.76997e-11
5.65625e-11
2.61518e-11
8.16309e-12
1.13291e-12
6.75412e-15
1.74188e-14
2.97994e-12
2.26517e-11
7.92666e-11
1.90396e-10
3.63327e-10
5.92202e-10
8.61215e-10
1.14938e-09
1.4371e-09
1.70917e-09
1.95558e-09
2.171e-09
2.35365e-09
2.50423e-09
2.62501e-09
2.71916e-09
2.7902e-09
2.84167e-09
2.87694e-09
2.89898e-09
2.91039e-09
2.91332e-09
2.90955e-09
2.90046e-09
2.88714e-09
2.87042e-09
2.85091e-09
2.82904e-09
2.80511e-09
2.77927e-09
2.75158e-09
2.72162e-09
2.68999e-09
2.65653e-09
2.62054e-09
2.58179e-09
2.53995e-09
2.49472e-09
2.44575e-09
2.39274e-09
2.33545e-09
2.27367e-09
2.2073e-09
2.13635e-09
2.06131e-09
1.98172e-09
1.8978e-09
1.81041e-09
1.72007e-09
1.62739e-09
1.53302e-09
1.43764e-09
1.34193e-09
1.24653e-09
1.15202e-09
1.05892e-09
9.6765e-10
8.78567e-10
7.91946e-10
7.08004e-10
6.26915e-10
5.48821e-10
4.7385e-10
4.02127e-10
3.33792e-10
2.69039e-10
2.08209e-10
1.51959e-10
1.0155e-10
5.90367e-11
2.74299e-11
8.60279e-12
1.19749e-12
7.14761e-15
1.82122e-14
3.11569e-12
2.36802e-11
8.28379e-11
1.98886e-10
3.7936e-10
6.18089e-10
8.98553e-10
1.19883e-09
1.49841e-09
1.78136e-09
2.03719e-09
2.2603e-09
2.44883e-09
2.60356e-09
2.72693e-09
2.82232e-09
2.8935e-09
2.94429e-09
2.97826e-09
2.99864e-09
3.00821e-09
3.0093e-09
3.00381e-09
2.99325e-09
2.97878e-09
2.96131e-09
2.94149e-09
2.91976e-09
2.89643e-09
2.87164e-09
2.8454e-09
2.81762e-09
2.7879e-09
2.75658e-09
2.72296e-09
2.68658e-09
2.647e-09
2.60379e-09
2.55651e-09
2.50475e-09
2.44814e-09
2.38642e-09
2.31938e-09
2.24699e-09
2.16943e-09
2.08727e-09
1.99968e-09
1.90777e-09
1.81227e-09
1.71388e-09
1.6134e-09
1.51164e-09
1.40941e-09
1.3075e-09
1.20662e-09
1.1074e-09
1.01037e-09
9.15923e-10
8.24378e-10
7.35955e-10
6.50814e-10
5.69074e-10
4.90834e-10
4.16194e-10
3.45273e-10
2.78246e-10
2.15429e-10
1.5744e-10
1.05483e-10
6.15678e-11
2.87435e-11
9.05798e-12
1.2647e-12
7.55814e-15
1.89783e-14
3.24661e-12
2.46689e-11
8.62549e-11
2.06971e-10
3.94578e-10
6.42619e-10
9.33927e-10
1.24572e-09
1.55664e-09
1.85006e-09
2.115e-09
2.34558e-09
2.53987e-09
2.69868e-09
2.82463e-09
2.9213e-09
2.99272e-09
3.04295e-09
3.07583e-09
3.09479e-09
3.10282e-09
3.10242e-09
3.09563e-09
3.08407e-09
3.06901e-09
3.05139e-09
3.03192e-09
3.01107e-09
2.98912e-09
2.9662e-09
2.94228e-09
2.91722e-09
2.89078e-09
2.86249e-09
2.83191e-09
2.79879e-09
2.7623e-09
2.7219e-09
2.67706e-09
2.62721e-09
2.5719e-09
2.51073e-09
2.44344e-09
2.3699e-09
2.29015e-09
2.20479e-09
2.11381e-09
2.01704e-09
1.91589e-09
1.8112e-09
1.70388e-09
1.59488e-09
1.48521e-09
1.37582e-09
1.26759e-09
1.16129e-09
1.05757e-09
9.56931e-10
8.59723e-10
7.66188e-10
6.76473e-10
5.90663e-10
5.08818e-10
4.30995e-10
3.57277e-10
2.87811e-10
2.22881e-10
1.63062e-10
1.09501e-10
6.41548e-11
3.00912e-11
9.52836e-12
1.33453e-12
7.98579e-15
1.97121e-14
3.37185e-12
2.56111e-11
8.94936e-11
2.14594e-10
4.08872e-10
6.65618e-10
9.67098e-10
1.28976e-09
1.61147e-09
1.91492e-09
2.18865e-09
2.42651e-09
2.62644e-09
2.78932e-09
2.91789e-09
3.01595e-09
3.08777e-09
3.13766e-09
3.16969e-09
3.18754e-09
3.19438e-09
3.1929e-09
3.18528e-09
3.17325e-09
3.15817e-09
3.14106e-09
3.12264e-09
3.1034e-09
3.08362e-09
3.06339e-09
3.04264e-09
3.02117e-09
2.99861e-09
2.97449e-09
2.94831e-09
2.91893e-09
2.88634e-09
2.84954e-09
2.80791e-09
2.76069e-09
2.70731e-09
2.64727e-09
2.58019e-09
2.50587e-09
2.42429e-09
2.33564e-09
2.24095e-09
2.13943e-09
2.0322e-09
1.92061e-09
1.8057e-09
1.68862e-09
1.57053e-09
1.45261e-09
1.33594e-09
1.22149e-09
1.11004e-09
1.00223e-09
8.98484e-10
7.99084e-10
7.04166e-10
6.13779e-10
5.27927e-10
4.4661e-10
3.69855e-10
2.97765e-10
2.30582e-10
1.68834e-10
1.13604e-10
6.67962e-11
3.14713e-11
1.00134e-11
1.40693e-12
8.43039e-15
2.04092e-14
3.49062e-12
2.65006e-11
9.25319e-11
2.21701e-10
4.2214e-10
6.86928e-10
9.97848e-10
1.33068e-09
1.66258e-09
1.97561e-09
2.25782e-09
2.50277e-09
2.70828e-09
2.87525e-09
3.00655e-09
3.10617e-09
3.1786e-09
3.22842e-09
3.25992e-09
3.27702e-09
3.28308e-09
3.28098e-09
3.27302e-09
3.26108e-09
3.24659e-09
3.23062e-09
3.21394e-09
3.19705e-09
3.18021e-09
3.16348e-09
3.14674e-09
3.12968e-09
3.11187e-09
3.09271e-09
3.07152e-09
3.04747e-09
3.01975e-09
2.98681e-09
2.94925e-09
2.90539e-09
2.85464e-09
2.79634e-09
2.73e-09
2.65532e-09
2.57218e-09
2.48072e-09
2.38181e-09
2.27575e-09
2.16217e-09
2.04318e-09
1.92002e-09
1.79401e-09
1.66654e-09
1.53902e-09
1.41275e-09
1.28895e-09
1.16861e-09
1.05252e-09
9.41233e-10
8.35082e-10
7.34215e-10
6.38644e-10
5.48309e-10
4.6313e-10
3.83062e-10
3.08139e-10
2.38548e-10
1.7476e-10
1.17794e-10
6.94895e-11
3.28816e-11
1.05123e-11
1.48181e-12
8.89159e-15
2.10653e-14
3.60218e-12
2.73317e-11
9.53499e-11
2.28245e-10
4.34296e-10
7.0641e-10
1.02599e-09
1.36824e-09
1.7097e-09
2.03182e-09
2.3222e-09
2.57407e-09
2.78513e-09
2.95626e-09
3.09044e-09
3.19183e-09
3.26517e-09
3.31523e-09
3.34658e-09
3.36333e-09
3.36907e-09
3.36682e-09
3.35906e-09
3.34777e-09
3.33446e-09
3.32028e-09
3.30602e-09
3.29219e-09
3.27904e-09
3.26658e-09
3.25462e-09
3.24279e-09
3.23053e-09
3.21716e-09
3.20183e-09
3.18363e-09
3.16157e-09
3.13465e-09
3.10101e-09
3.06113e-09
3.01371e-09
2.95784e-09
2.89286e-09
2.81834e-09
2.73411e-09
2.64022e-09
2.53708e-09
2.42617e-09
2.30653e-09
2.17975e-09
2.04776e-09
1.91207e-09
1.7743e-09
1.63609e-09
1.49905e-09
1.36466e-09
1.23416e-09
1.10857e-09
9.88599e-10
8.7468e-10
7.66991e-10
6.65521e-10
5.70136e-10
4.80665e-10
3.9696e-10
3.18967e-10
2.46796e-10
1.80849e-10