/*--------------------------------*- C++ -*----------------------------------*\
  =========                 |
  \\      /  F ield         | OpenFOAM: The Open Source CFD Toolbox
   \\    /   O peration     | Website:  https://openfoam.org
    \\  /    A nd           | Version:  12
     \\/     M anipulation  |
\*---------------------------------------------------------------------------*/
FoamFile
{
    format      ascii;
    class       volVectorField;
    location    "4";
    object      U;
}
// * * * * * * * * * * * * * * * * * * * * * * * * * * * * * * * * * * * * * //

dimensions      [0 1 -1 0 0 0 0];

internalField   nonuniform List<vector> 
5625
(
(1.12168e-05 -1.1216e-05 0)
(5.41188e-05 -1.68848e-05 0)
(9.83643e-05 -1.52936e-05 0)
(0.0001256 -1.02221e-05 0)
(0.000123454 -4.14447e-06 0)
(8.79125e-05 1.99137e-06 0)
(1.89807e-05 7.69029e-06 0)
(-8.1417e-05 1.2742e-05 0)
(-0.000210451 1.70938e-05 0)
(-0.000364949 2.07817e-05 0)
(-0.000541741 2.38783e-05 0)
(-0.000737874 2.64732e-05 0)
(-0.000950701 2.86569e-05 0)
(-0.00117791 3.05126e-05 0)
(-0.00141752 3.2111e-05 0)
(-0.0016678 3.35081e-05 0)
(-0.00192726 3.47442e-05 0)
(-0.00219453 3.58449e-05 0)
(-0.00246832 3.68212e-05 0)
(-0.00274737 3.76717e-05 0)
(-0.00303037 3.83839e-05 0)
(-0.00331587 3.89366e-05 0)
(-0.00360234 3.93012e-05 0)
(-0.00388803 3.94439e-05 0)
(-0.00417104 3.93278e-05 0)
(-0.00444924 3.89144e-05 0)
(-0.00472032 3.81649e-05 0)
(-0.00498177 3.70427e-05 0)
(-0.00523093 3.5514e-05 0)
(-0.00546498 3.35497e-05 0)
(-0.00568104 3.11269e-05 0)
(-0.00587612 2.82298e-05 0)
(-0.00604726 2.48518e-05 0)
(-0.00619155 2.0995e-05 0)
(-0.00630618 1.66663e-05 0)
(-0.00638857 1.18984e-05 0)
(-0.00643625 6.74774e-06 0)
(-0.00644738 1.23233e-06 0)
(-0.00642015 -4.56641e-06 0)
(-0.00635341 -1.05768e-05 0)
(-0.00624652 -1.67115e-05 0)
(-0.00609938 -2.28709e-05 0)
(-0.00591251 -2.89488e-05 0)
(-0.00568711 -3.48326e-05 0)
(-0.00542503 -4.04061e-05 0)
(-0.0051288 -4.55525e-05 0)
(-0.00480161 -5.0158e-05 0)
(-0.00444728 -5.41152e-05 0)
(-0.00407021 -5.73269e-05 0)
(-0.0036753 -5.97092e-05 0)
(-0.00326787 -6.11948e-05 0)
(-0.00285356 -6.17357e-05 0)
(-0.00243823 -6.13052e-05 0)
(-0.00202782 -5.98991e-05 0)
(-0.0016282 -5.75364e-05 0)
(-0.00124512 -5.42588e-05 0)
(-0.000883982 -5.01295e-05 0)
(-0.000549804 -4.52309e-05 0)
(-0.000247064 -3.96627e-05 0)
(2.03854e-05 -3.35381e-05 0)
(0.000249395 -2.69812e-05 0)
(0.000437597 -2.01233e-05 0)
(0.000583461 -1.31037e-05 0)
(0.000686329 -6.05354e-06 0)
(0.000746498 8.70086e-07 0)
(0.000765259 7.50671e-06 0)
(0.00074499 1.36785e-05 0)
(0.000689271 1.9173e-05 0)
(0.000603093 2.37107e-05 0)
(0.000493162 2.69034e-05 0)
(0.000368286 2.82085e-05 0)
(0.000239939 2.6882e-05 0)
(0.000123262 2.18818e-05 0)
(3.78331e-05 1.18769e-05 0)
(-5.81542e-07 -5.80025e-07 0)
(1.71448e-05 -5.43462e-05 0)
(8.55291e-05 -8.49048e-05 0)
(0.000138276 -6.45144e-05 0)
(0.000141652 -1.5795e-05 0)
(7.20741e-05 4.60011e-05 0)
(-7.99318e-05 0.000111644 0)
(-0.000315738 0.000175787 0)
(-0.000632135 0.000235548 0)
(-0.00102337 0.000289576 0)
(-0.00148243 0.000337465 0)
(-0.00200191 0.000379371 0)
(-0.00257461 0.000415755 0)
(-0.00319381 0.000447211 0)
(-0.0038534 0.000474353 0)
(-0.00454791 0.000497744 0)
(-0.00527242 0.00051785 0)
(-0.00602245 0.000535017 0)
(-0.00679384 0.000549456 0)
(-0.00758258 0.00056125 0)
(-0.00838464 0.00057036 0)
(-0.00919587 0.00057664 0)
(-0.0100119 0.000579853 0)
(-0.0108279 0.000579694 0)
(-0.0116387 0.000575808 0)
(-0.0124387 0.000567815 0)
(-0.0132218 0.000555324 0)
(-0.0139815 0.000537959 0)
(-0.0147106 0.000515377 0)
(-0.0154018 0.000487283 0)
(-0.0160475 0.000453449 0)
(-0.0166397 0.00041373 0)
(-0.0171707 0.000368076 0)
(-0.0176325 0.000316549 0)
(-0.0180176 0.000259326 0)
(-0.0183187 0.000196703 0)
(-0.0185294 0.000129076 0)
(-0.0186432 5.734e-05 0)
(-0.0186558 -1.82214e-05 0)
(-0.018563 -9.65132e-05 0)
(-0.018362 -0.000176591 0)
(-0.0180518 -0.000257357 0)
(-0.0176325 -0.000337616 0)
(-0.017106 -0.000416099 0)
(-0.0164758 -0.000491489 0)
(-0.0157473 -0.000562448 0)
(-0.0149274 -0.00062765 0)
(-0.0140247 -0.000685821 0)
(-0.0130495 -0.000735768 0)
(-0.0120135 -0.000776418 0)
(-0.0109297 -0.000806854 0)
(-0.0098119 -0.000826342 0)
(-0.00867503 -0.000834359 0)
(-0.00753437 -0.000830618 0)
(-0.00640544 -0.000815076 0)
(-0.00530365 -0.000787945 0)
(-0.004244 -0.00074969 0)
(-0.00324072 -0.00070102 0)
(-0.00230702 -0.00064287 0)
(-0.00145476 -0.000576387 0)
(-0.000694179 -0.000502895 0)
(-3.37247e-05 -0.000423878 0)
(0.000520206 -0.000340946 0)
(0.000963412 -0.00025582 0)
(0.00129408 -0.000170348 0)
(0.00151292 -8.64688e-05 0)
(0.00162329 -6.27215e-06 0)
(0.00163146 6.79519e-05 0)
(0.00154693 0.000133578 0)
(0.00138262 0.000187591 0)
(0.00115553 0.000226283 0)
(0.000887155 0.000245175 0)
(0.000603967 0.000238917 0)
(0.000338424 0.000201744 0)
(0.000130342 0.000130528 0)
(1.17239e-05 3.76857e-05 0)
(1.5863e-05 -9.95157e-05 0)
(6.55237e-05 -0.000138104 0)
(7.0445e-05 -7.07225e-05 0)
(-7.54129e-06 5.72053e-05 0)
(-0.000194997 0.000215204 0)
(-0.000503536 0.000383491 0)
(-0.000935324 0.000549715 0)
(-0.00148656 0.000706581 0)
(-0.00214984 0.000850271 0)
(-0.00291574 0.000979247 0)
(-0.00377404 0.0010934 0)
(-0.00471448 0.00119346 0)
(-0.00572721 0.00128059 0)
(-0.00680306 0.00135608 0)
(-0.00793357 0.00142116 0)
(-0.00911095 0.00147685 0)
(-0.0103279 0.00152394 0)
(-0.0115776 0.00156288 0)
(-0.0128531 0.00159382 0)
(-0.0141478 0.00161664 0)
(-0.0154545 0.00163094 0)
(-0.0167658 0.00163611 0)
(-0.0180738 0.00163136 0)
(-0.0193699 0.0016158 0)
(-0.020645 0.00158849 0)
(-0.0218891 0.00154845 0)
(-0.0230918 0.00149479 0)
(-0.024242 0.00142669 0)
(-0.0253282 0.00134347 0)
(-0.0263386 0.00124465 0)
(-0.027261 0.00112996 0)
(-0.0280834 0.000999413 0)
(-0.0287941 0.000853299 0)
(-0.0293817 0.000692231 0)
(-0.0298356 0.00051715 0)
(-0.030146 0.000329336 0)
(-0.0303045 0.000130564 0)
(-0.030304 -7.72425e-05 0)
(-0.0301391 -0.000291766 0)
(-0.0298064 -0.000510332 0)
(-0.0293046 -0.000730002 0)
(-0.0286346 -0.000947617 0)
(-0.0277998 -0.00115984 0)
(-0.0268059 -0.00136324 0)
(-0.0256614 -0.00155434 0)
(-0.0243771 -0.00172972 0)
(-0.0229663 -0.0018861 0)
(-0.0214445 -0.00202042 0)
(-0.0198295 -0.00212994 0)
(-0.0181407 -0.00221231 0)
(-0.0163992 -0.00226566 0)
(-0.014627 -0.00228865 0)
(-0.0128472 -0.00228055 0)
(-0.011083 -0.00224124 0)
(-0.00935747 -0.00217126 0)
(-0.00769315 -0.0020718 0)
(-0.00611147 -0.00194466 0)
(-0.00463237 -0.00179227 0)
(-0.00327384 -0.00161759 0)
(-0.00205153 -0.00142407 0)
(-0.000978387 -0.00121563 0)
(-6.4348e-05 -0.000996517 0)
(0.000683964 -0.00077135 0)
(0.00126349 -0.000545046 0)
(0.00167499 -0.000322842 0)
(0.00192328 -0.000110346 0)
(0.0020175 8.63407e-05 0)
(0.00197146 0.00026049 0)
(0.00180396 0.000404505 0)
(0.00153924 0.000509682 0)
(0.00120725 0.000566105 0)
(0.000843773 0.000562832 0)
(0.000491295 0.000489074 0)
(0.000202291 0.000338598 0)
(2.16378e-05 0.000122785 0)
(1.09031e-05 -0.000127577 0)
(1.43881e-05 -0.000140187 0)
(-6.57453e-05 8.6046e-06 0)
(-0.000265861 0.00025133 0)
(-0.000609894 0.000542212 0)
(-0.00110855 0.000850345 0)
(-0.00176329 0.00115549 0)
(-0.00256931 0.00144516 0)
(-0.00351771 0.00171239 0)
(-0.00459729 0.001954 0)
(-0.00579569 0.0021693 0)
(-0.00710036 0.00235913 0)
(-0.00849904 0.00252516 0)
(-0.00998005 0.00266936 0)
(-0.0115324 0.00279366 0)
(-0.0131458 0.0028997 0)
(-0.0148104 0.00298869 0)
(-0.0165168 0.00306134 0)
(-0.0182554 0.00311783 0)
(-0.0200167 0.00315785 0)
(-0.0217909 0.00318064 0)
(-0.0235676 0.00318506 0)
(-0.0253358 0.0031697 0)
(-0.0270836 0.00313296 0)
(-0.0287985 0.00307316 0)
(-0.0304672 0.00298861 0)
(-0.0320756 0.00287776 0)
(-0.0336089 0.00273923 0)
(-0.0350521 0.00257192 0)
(-0.0363896 0.00237512 0)
(-0.0376058 0.00214851 0)
(-0.0386852 0.00189229 0)
(-0.0396129 0.00160721 0)
(-0.0403744 0.00129458 0)
(-0.0409566 0.000956353 0)
(-0.0413473 0.000595105 0)
(-0.0415362 0.000214118 0)
(-0.0415149 -0.000182811 0)
(-0.0412771 -0.000591263 0)
(-0.0408191 -0.00100625 0)
(-0.0401396 -0.00142231 0)
(-0.0392407 -0.00183359 0)
(-0.0381269 -0.00223396 0)
(-0.0368064 -0.00261712 0)
(-0.0352901 -0.00297675 0)
(-0.0335923 -0.00330662 0)
(-0.0317301 -0.00360077 0)
(-0.0297234 -0.00385368 0)
(-0.0275949 -0.00406037 0)
(-0.0253694 -0.0042166 0)
(-0.0230736 -0.00431899 0)
(-0.0207355 -0.00436511 0)
(-0.0183844 -0.0043536 0)
(-0.0160497 -0.00428423 0)
(-0.0137609 -0.00415795 0)
(-0.0115466 -0.00397687 0)
(-0.00943425 -0.00374427 0)
(-0.00744946 -0.0034645 0)
(-0.00561544 -0.00314298 0)
(-0.00395249 -0.00278602 0)
(-0.00247758 -0.00240079 0)
(-0.00120387 -0.00199519 0)
(-0.000140367 -0.00157777 0)
(0.000708459 -0.0011577 0)
(0.00134296 -0.000744739 0)
(0.00176864 -0.000349314 0)
(0.00199642 1.73631e-05 0)
(0.00204294 0.000343109 0)
(0.00193094 0.000614554 0)
(0.0016894 0.00081689 0)
(0.00135374 0.000933883 0)
(0.000965763 0.000948287 0)
(0.000574754 0.000843346 0)
(0.000242973 0.000606822 0)
(2.67968e-05 0.000239958 0)
(4.48879e-06 -0.000124191 0)
(-5.47674e-05 -6.23113e-05 0)
(-0.00024497 0.000208193 0)
(-0.000596546 0.00060155 0)
(-0.00112672 0.0010584 0)
(-0.00184276 0.00153761 0)
(-0.00274386 0.00201139 0)
(-0.00382328 0.00246211 0)
(-0.00507039 0.0028795 0)
(-0.00647221 0.00325858 0)
(-0.00801459 0.00359791 0)
(-0.00968308 0.00389831 0)
(-0.0114634 0.00416184 0)
(-0.013342 0.00439108 0)
(-0.0153055 0.00458859 0)
(-0.0173416 0.00475657 0)
(-0.019438 0.00489661 0)
(-0.021583 0.00500958 0)
(-0.0237646 0.00509561 0)
(-0.0259707 0.00515408 0)
(-0.0281886 0.00518376 0)
(-0.0304053 0.00518288 0)
(-0.0326067 0.00514926 0)
(-0.034778 0.00508049 0)
(-0.0369036 0.00497405 0)
(-0.0389668 0.00482747 0)
(-0.0409504 0.00463848 0)
(-0.0428364 0.00440513 0)
(-0.0446064 0.00412596 0)
(-0.0462419 0.00380007 0)
(-0.0477241 0.00342725 0)
(-0.0490348 0.00300806 0)
(-0.0501563 0.00254394 0)
(-0.051072 0.00203719 0)
(-0.0517664 0.00149111 0)
(-0.0522258 0.000909925 0)
(-0.0524385 0.000298878 0)
(-0.052395 -0.000335917 0)
(-0.0520887 -0.000987452 0)
(-0.0515156 -0.00164791 0)
(-0.050675 -0.00230877 0)
(-0.0495697 -0.00296096 0)
(-0.0482058 -0.00359502 0)
(-0.046593 -0.00420124 0)
(-0.0447447 -0.00476991 0)
(-0.0426778 -0.00529151 0)
(-0.0404126 -0.00575693 0)
(-0.0379728 -0.00615772 0)
(-0.0353849 -0.00648629 0)
(-0.0326779 -0.00673616 0)
(-0.0298833 -0.00690213 0)
(-0.027034 -0.00698045 0)
(-0.0241642 -0.00696901 0)
(-0.0213085 -0.00686739 0)
(-0.0185017 -0.00667696 0)
(-0.0157776 -0.00640086 0)
(-0.0131688 -0.00604405 0)
(-0.0107057 -0.00561315 0)
(-0.00841615 -0.0051164 0)
(-0.00632467 -0.00456352 0)
(-0.00445191 -0.00396556 0)
(-0.00281416 -0.00333475 0)
(-0.00142287 -0.00268441 0)
(-0.000284209 -0.00202881 0)
(0.000601271 -0.00138316 0)
(0.00123901 -0.000763647 0)
(0.0016407 -0.000187538 0)
(0.0018246 0.000326659 0)
(0.00181569 0.000758998 0)
(0.00164602 0.00108792 0)
(0.0013545 0.00129031 0)
(0.000987023 0.00134193 0)
(0.000597932 0.0012188 0)
(0.000256762 0.000899842 0)
(2.86765e-05 0.000371393 0)
(-2.58993e-06 -8.23848e-05 0)
(-0.000134264 0.000112436 0)
(-0.000451134 0.000550781 0)
(-0.000975002 0.00113299 0)
(-0.00171347 0.00178865 0)
(-0.00266835 0.00246795 0)
(-0.00383509 0.00313663 0)
(-0.0052041 0.00377243 0)
(-0.00676241 0.00436215 0)
(-0.0084951 0.0048991 0)
(-0.0103862 0.00538113 0)
(-0.0124196 0.00580898 0)
(-0.0145794 0.00618506 0)
(-0.01685 0.00651248 0)
(-0.0192165 0.00679435 0)
(-0.0216644 0.00703331 0)
(-0.0241796 0.00723123 0)
(-0.0267481 0.00738904 0)
(-0.0293557 0.00750667 0)
(-0.0319879 0.00758311 0)
(-0.0346296 0.00761653 0)
(-0.0372649 0.00760441 0)
(-0.0398771 0.00754371 0)
(-0.0424486 0.00743113 0)
(-0.0449609 0.00726323 0)
(-0.0473944 0.00703674 0)
(-0.049729 0.00674868 0)
(-0.0519439 0.00639659 0)
(-0.0540179 0.00597868 0)
(-0.0559296 0.00549401 0)
(-0.0576579 0.00494263 0)
(-0.0591822 0.00432567 0)
(-0.0604826 0.00364547 0)
(-0.0615405 0.00290562 0)
(-0.0623389 0.00211105 0)
(-0.0628628 0.00126798 0)
(-0.0630993 0.000383978 0)
(-0.0630385 -0.000532154 0)
(-0.0626731 -0.00147043 0)
(-0.0619994 -0.00241979 0)
(-0.061017 -0.00336826 0)
(-0.0597294 -0.00430313 0)
(-0.0581438 -0.00521118 0)
(-0.0562714 -0.00607891 0)
(-0.0541274 -0.00689283 0)
(-0.0517309 -0.00763971 0)
(-0.0491049 -0.00830695 0)
(-0.0462756 -0.00888281 0)
(-0.0432728 -0.00935678 0)
(-0.0401291 -0.00971981 0)
(-0.0368796 -0.00996464 0)
(-0.0335613 -0.010086 0)
(-0.0302126 -0.0100808 0)
(-0.0268725 -0.00994845 0)
(-0.0235802 -0.00969056 0)
(-0.020374 -0.0093114 0)
(-0.0172911 -0.00881768 0)
(-0.0143663 -0.00821849 0)
(-0.0116317 -0.00752519 0)
(-0.00911571 -0.00675127 0)
(-0.00684258 -0.00591211 0)
(-0.00483176 -0.00502483 0)
(-0.00309735 -0.00410811 0)
(-0.00164755 -0.00318201 0)
(-0.000484343 -0.00226793 0)
(0.000396967 -0.00138852 0)
(0.00100799 -0.000567828 0)
(0.00136753 0.000168663 0)
(0.00150173 0.000793818 0)
(0.00144428 0.00127878 0)
(0.00123636 0.00159297 0)
(0.000926664 0.00170449 0)
(0.000573179 0.00158094 0)
(0.000250147 0.00119075 0)
(2.8405e-05 0.00050424 0)
(-9.93712e-06 1.43002e-06 0)
(-0.000219633 0.000394334 0)
(-0.000673978 0.00105155 0)
(-0.00138458 0.0018636 0)
(-0.00234748 0.00275173 0)
(-0.00355747 0.00365947 0)
(-0.00500503 0.00454741 0)
(-0.00667679 0.0053897 0)
(-0.00855687 0.00617076 0)
(-0.010628 0.00688264 0)
(-0.0128725 0.00752268 0)
(-0.0152723 0.00809166 0)
(-0.0178099 0.00859235 0)
(-0.0204684 0.00902832 0)
(-0.0232312 0.00940317 0)
(-0.0260821 0.00971989 0)
(-0.0290051 0.00998049 0)
(-0.0319844 0.0101858 0)
(-0.0350037 0.0103355 0)
(-0.0380462 0.0104281 0)
(-0.0410947 0.0104609 0)
(-0.0441308 0.0104306 0)
(-0.0471354 0.0103332 0)
(-0.0500882 0.0101645 0)
(-0.0529681 0.00992011 0)
(-0.055753 0.00959593 0)
(-0.0584202 0.00918831 0)
(-0.0609464 0.00869433 0)
(-0.0633079 0.008112 0)
(-0.0654811 0.00744048 0)
(-0.0674427 0.00668022 0)
(-0.0691701 0.00583313 0)
(-0.0706417 0.00490268 0)
(-0.0718374 0.00389399 0)
(-0.0727387 0.00281387 0)
(-0.0733296 0.00167083 0)
(-0.0735965 0.000475059 0)
(-0.0735286 -0.000761666 0)
(-0.0731187 -0.00202608 0)
(-0.0723628 -0.00330356 0)
(-0.0712608 -0.00457837 0)
(-0.0698166 -0.00583385 0)
(-0.0680383 -0.00705271 0)
(-0.0659381 -0.00821734 0)
(-0.0635325 -0.00931016 0)
(-0.0608422 -0.0103139 0)
(-0.0578919 -0.0112123 0)
(-0.0547104 -0.0119898 0)
(-0.0513297 -0.0126328 0)
(-0.0477853 -0.0131294 0)
(-0.0441153 -0.0134701 0)
(-0.0403601 -0.0136477 0)
(-0.0365615 -0.0136581 0)
(-0.0327625 -0.0135 0)
(-0.0290062 -0.0131756 0)
(-0.0253351 -0.0126901 0)
(-0.0217903 -0.0120519 0)
(-0.0184111 -0.0112727 0)
(-0.0152333 -0.0103671 0)
(-0.0122895 -0.00935272 0)
(-0.00960747 -0.00824951 0)
(-0.00721005 -0.00707995 0)
(-0.0051142 -0.00586854 0)
(-0.00333061 -0.00464169 0)
(-0.00186315 -0.00342752 0)
(-0.000708546 -0.0022558 0)
(0.000144007 -0.0011579 0)
(0.000713015 -0.000166866 0)
(0.00102489 0.00068247 0)
(0.00111405 0.00135342 0)
(0.00102294 0.00180743 0)
(0.00080206 0.00200426 0)
(0.000511785 0.00190235 0)
(0.000228725 0.00145908 0)
(2.67687e-05 0.00062957 0)
(-1.73567e-05 0.000129229 0)
(-0.000308259 0.000789766 0)
(-0.000906912 0.00172063 0)
(-0.00181391 0.00280593 0)
(-0.00301252 0.00396132 0)
(-0.00448938 0.00512569 0)
(-0.00622904 0.00625617 0)
(-0.00821356 0.00732448 0)
(-0.0104236 0.00831359 0)
(-0.0128392 0.00921486 0)
(-0.0154404 0.0100255 0)
(-0.0182077 0.0107466 0)
(-0.021122 0.0113813 0)
(-0.0241647 0.0119338 0)
(-0.027318 0.0124081 0)
(-0.0305641 0.0128073 0)
(-0.0338855 0.0131336 0)
(-0.0372646 0.0133877 0)
(-0.0406833 0.0135686 0)
(-0.0441229 0.0136742 0)
(-0.0475641 0.0137012 0)
(-0.0509863 0.0136452 0)
(-0.0543682 0.0135012 0)
(-0.0576873 0.013264 0)
(-0.0609201 0.0129282 0)
(-0.0640422 0.0124891 0)
(-0.0670287 0.0119423 0)
(-0.069854 0.0112845 0)
(-0.0724926 0.0105137 0)
(-0.0749187 0.00962916 0)
(-0.0771072 0.008632 0)
(-0.079034 0.00752506 0)
(-0.0806759 0.00631312 0)
(-0.0820115 0.00500305 0)
(-0.0830212 0.00360375 0)
(-0.0836879 0.00212622 0)
(-0.0839974 0.000583506 0)
(-0.0839384 -0.00100942 0)
(-0.0835029 -0.0026358 0)
(-0.082687 -0.00427724 0)
(-0.0814905 -0.00591399 0)
(-0.0799174 -0.00752522 0)
(-0.0779762 -0.00908935 0)
(-0.0756795 -0.0105844 0)
(-0.0730448 -0.0119885 0)
(-0.0700937 -0.01328 0)
(-0.0668523 -0.0144386 0)
(-0.0633508 -0.0154449 0)
(-0.0596232 -0.0162818 0)
(-0.0557072 -0.0169342 0)
(-0.0516433 -0.0173899 0)
(-0.0474747 -0.0176399 0)
(-0.0432466 -0.0176785 0)
(-0.0390052 -0.0175039 0)
(-0.0347972 -0.0171181 0)
(-0.0306691 -0.0165273 0)
(-0.0266661 -0.0157417 0)
(-0.0228313 -0.0147755 0)
(-0.019205 -0.0136468 0)
(-0.0158235 -0.0123771 0)
(-0.0127185 -0.0109915 0)
(-0.00991659 -0.00951801 0)
(-0.00743787 -0.00798742 0)
(-0.00529598 -0.00643291 0)
(-0.00349723 -0.00488982 0)
(-0.00204032 -0.00339551 0)
(-0.00091592 -0.00198922 0)
(-0.000106497 -0.000712065 0)
(0.000413883 0.000392938 0)
(0.000679648 0.00128079 0)
(0.000733734 0.00190445 0)
(0.000627605 0.00221486 0)
(0.000422931 0.00216095 0)
(0.000196801 0.0016892 0)
(2.43162e-05 0.000741144 0)
(-2.47624e-05 0.000302053 0)
(-0.000398567 0.00130256 0)
(-0.00114559 0.00256447 0)
(-0.00225506 0.00396837 0)
(-0.00369676 0.00542679 0)
(-0.00544838 0.00687614 0)
(-0.00748783 0.0082718 0)
(-0.00979198 0.00958441 0)
(-0.0123375 0.0107966 0)
(-0.0151015 0.0118997 0)
(-0.0180616 0.0128914 0)
(-0.0211965 0.0137734 0)
(-0.0244855 0.0145495 0)
(-0.0279088 0.0152244 0)
(-0.031447 0.0158026 0)
(-0.0350812 0.0162875 0)
(-0.0387926 0.0166811 0)
(-0.0425618 0.0169837 0)
(-0.0463694 0.017194 0)
(-0.0501949 0.017309 0)
(-0.0540169 0.0173244 0)
(-0.0578133 0.0172349 0)
(-0.0615606 0.0170343 0)
(-0.0652343 0.0167165 0)
(-0.068809 0.0162752 0)
(-0.0722583 0.0157048 0)
(-0.0755553 0.0150004 0)
(-0.0786727 0.0141585 0)
(-0.081583 0.013177 0)
(-0.084259 0.0120555 0)
(-0.086674 0.010796 0)
(-0.0888022 0.00940222 0)
(-0.0906195 0.00788056 0)
(-0.092103 0.0062397 0)
(-0.0932323 0.00449083 0)
(-0.0939894 0.00264758 0)
(-0.094359 0.000725988 0)
(-0.0943293 -0.00125565 0)
(-0.0938917 -0.00327691 0)
(-0.0930416 -0.00531549 0)
(-0.0917785 -0.00734751 0)
(-0.0901062 -0.00934778 0)
(-0.0880329 -0.0112902 0)
(-0.0855714 -0.0131484 0)
(-0.0827392 -0.0148957 0)
(-0.0795586 -0.0165062 0)
(-0.0760563 -0.017955 0)
(-0.0722635 -0.0192188 0)
(-0.0682155 -0.0202764 0)
(-0.0639516 -0.0211094 0)
(-0.0595145 -0.0217026 0)
(-0.0549498 -0.0220445 0)
(-0.0503053 -0.0221278 0)
(-0.0456306 -0.0219496 0)
(-0.0409759 -0.0215118 0)
(-0.0363914 -0.0208213 0)
(-0.0319264 -0.0198898 0)
(-0.0276282 -0.0187339 0)
(-0.0235413 -0.017375 0)
(-0.0197064 -0.0158391 0)
(-0.0161595 -0.0141564 0)
(-0.0129309 -0.0123605 0)
(-0.0100447 -0.010489 0)
(-0.00751781 -0.00858217 0)
(-0.00535958 -0.006683 0)
(-0.00357123 -0.00483693 0)
(-0.00214552 -0.00309154 0)
(-0.00106647 -0.0014965 0)
(-0.000309246 -0.000103515 0)
(0.00015998 0.00103365 0)
(0.000383993 0.00185906 0)
(0.000414541 0.00231447 0)
(0.000313571 0.00233921 0)
(0.000157495 0.00186939 0)
(2.14059e-05 0.000834645 0)
(-3.21179e-05 0.000520368 0)
(-0.000489545 0.00193478 0)
(-0.00138702 0.0035868 0)
(-0.00270227 0.00535598 0)
(-0.00439123 0.00715402 0)
(-0.00642217 0.00891688 0)
(-0.00876585 0.0106 0)
(-0.0113935 0.0121743 0)
(-0.0142774 0.0136232 0)
(-0.0173915 0.0149391 0)
(-0.0207108 0.0161207 0)
(-0.024212 0.0171706 0)
(-0.027873 0.0180937 0)
(-0.0316725 0.0188954 0)
(-0.0355902 0.0195806 0)
(-0.0396057 0.020153 0)
(-0.0436991 0.0206143 0)
(-0.0478498 0.0209646 0)
(-0.0520368 0.0212017 0)
(-0.0562383 0.0213219 0)
(-0.0604314 0.0213198 0)
(-0.0645921 0.021189 0)
(-0.0686954 0.0209223 0)
(-0.0727151 0.0205125 0)
(-0.0766241 0.0199525 0)
(-0.0803942 0.0192357 0)
(-0.0839971 0.018357 0)
(-0.0874037 0.0173125 0)
(-0.0905851 0.0161002 0)
(-0.0935126 0.0147204 0)
(-0.0961584 0.0131756 0)
(-0.0984955 0.011471 0)
(-0.100498 0.00961435 0)
(-0.102143 0.0076164 0)
(-0.103408 0.00549065 0)
(-0.104275 0.00325345 0)
(-0.104727 0.000923914 0)
(-0.104751 -0.00147626 0)
(-0.104339 -0.00392296 0)
(-0.103483 -0.00638989 0)
(-0.102184 -0.00884891 0)
(-0.100445 -0.0112704 0)
(-0.0982714 -0.0136237 0)
(-0.0956773 -0.0158776 0)
(-0.0926794 -0.0180009 0)
(-0.0892996 -0.0199627 0)
(-0.085565 -0.0217335 0)
(-0.0815071 -0.0232856 0)
(-0.0771621 -0.0245936 0)
(-0.0725704 -0.0256351 0)
(-0.0677764 -0.0263918 0)
(-0.0628278 -0.0268491 0)
(-0.057775 -0.0269978 0)
(-0.0526706 -0.0268334 0)
(-0.0475682 -0.0263574 0)
(-0.042522 -0.0255769 0)
(-0.0375853 -0.024505 0)
(-0.03281 -0.0231606 0)
(-0.0282452 -0.0215685 0)
(-0.0239363 -0.0197588 0)
(-0.0199237 -0.0177669 0)
(-0.0162425 -0.0156327 0)
(-0.012921 -0.0134004 0)
(-0.00997999 -0.0111179 0)
(-0.0074325 -0.0088362 0)
(-0.00528283 -0.00660937 0)
(-0.00352638 -0.00449379 0)
(-0.00214932 -0.00254816 0)
(-0.00112843 -0.000833347 0)
(-0.000431028 0.000587647 0)
(-1.50172e-05 0.00164959 0)
(0.00017105 0.00228485 0)
(0.000188796 0.00242319 0)
(0.000112987 0.0019908 0)
(1.82639e-05 0.00090711 0)
(-3.94042e-05 0.000784253 0)
(-0.000580467 0.00268721 0)
(-0.00162893 0.00478931 0)
(-0.00315106 0.00697119 0)
(-0.00508878 0.00914587 0)
(-0.00740069 0.0112509 0)
(-0.0100501 0.0132433 0)
(-0.0130023 0.0150961 0)
(-0.016225 0.0167946 0)
(-0.0196884 0.0183331 0)
(-0.0233652 0.019712 0)
(-0.02723 0.0209356 0)
(-0.031259 0.0220101 0)
(-0.0354297 0.0229417 0)
(-0.0397207 0.0237359 0)
(-0.0441106 0.0243965 0)
(-0.0485783 0.0249252 0)
(-0.0531022 0.0253215 0)
(-0.0576601 0.0255826 0)
(-0.062229 0.0257037 0)
(-0.0667847 0.0256783 0)
(-0.0713018 0.025499 0)
(-0.0757538 0.0251574 0)
(-0.0801133 0.0246453 0)
(-0.0843515 0.0239545 0)
(-0.0884392 0.023078 0)
(-0.0923464 0.0220101 0)
(-0.096043 0.0207467 0)
(-0.0994986 0.0192862 0)
(-0.102684 0.0176293 0)
(-0.105569 0.0157792 0)
(-0.108126 0.0137425 0)
(-0.110329 0.0115287 0)
(-0.112153 0.00915029 0)
(-0.113575 0.0066233 0)
(-0.114575 0.00396675 0)
(-0.115135 0.00120279 0)
(-0.115242 -0.00164347 0)
(-0.114884 -0.00454421 0)
(-0.114056 -0.00746915 0)
(-0.112754 -0.0103859 0)
(-0.11098 -0.0132603 0)
(-0.108741 -0.016057 0)
(-0.106048 -0.01874 0)
(-0.102916 -0.021273 0)
(-0.0993673 -0.0236203 0)
(-0.0954284 -0.0257473 0)
(-0.0911305 -0.0276215 0)
(-0.0865101 -0.0292129 0)
(-0.0816086 -0.0304949 0)
(-0.0764713 -0.0314451 0)
(-0.071148 -0.0320458 0)
(-0.0656913 -0.032285 0)
(-0.0601567 -0.0321564 0)
(-0.0546016 -0.0316605 0)
(-0.0490838 -0.0308042 0)
(-0.0436614 -0.0296017 0)
(-0.0383908 -0.028074 0)
(-0.0333262 -0.0262488 0)
(-0.0285182 -0.0241606 0)
(-0.0240124 -0.02185 0)
(-0.0198491 -0.0193631 0)
(-0.0160613 -0.0167514 0)
(-0.0126746 -0.0140705 0)
(-0.0097062 -0.01138 0)
(-0.00716409 -0.00874283 0)
(-0.00504692 -0.00622484 0)
(-0.00334354 -0.00389427 0)
(-0.00203287 -0.00182164 0)
(-0.00108384 -7.96516e-05 0)
(-0.000455511 0.0012568 0)
(-9.72011e-05 0.0021104 0)
(5.19915e-05 0.00240145 0)
(6.47134e-05 0.00204671 0)
(1.50247e-05 0.000956483 0)
(-4.66041e-05 0.0010935 0)
(-0.000670741 0.00355961 0)
(-0.00186946 0.00617194 0)
(-0.00359771 0.00881419 0)
(-0.00578338 0.0114026 0)
(-0.00837535 0.0138783 0)
(-0.0113293 0.0162017 0)
(-0.0146044 0.0183492 0)
(-0.0181636 0.0203094 0)
(-0.0219736 0.0220794 0)
(-0.0260042 0.0236622 0)
(-0.0302279 0.0250644 0)
(-0.0346195 0.0262935 0)
(-0.0391553 0.0273572 0)
(-0.0438127 0.0282615 0)
(-0.0485694 0.0290106 0)
(-0.0534036 0.0296059 0)
(-0.0582926 0.0300465 0)
(-0.0632133 0.0303286 0)
(-0.0681417 0.0304465 0)
(-0.0730525 0.0303926 0)
(-0.0779193 0.0301582 0)
(-0.0827144 0.0297339 0)
(-0.0874092 0.0291103 0)
(-0.091974 0.0282785 0)
(-0.0963783 0.0272308 0)
(-0.100591 0.025961 0)
(-0.104581 0.024465 0)
(-0.108317 0.0227412 0)
(-0.111769 0.020791 0)
(-0.114906 0.0186187 0)
(-0.117698 0.0162318 0)
(-0.12012 0.0136415 0)
(-0.122143 0.0108624 0)
(-0.123745 0.00791266 0)
(-0.124905 0.00481398 0)
(-0.125603 0.00159152 0)
(-0.125823 -0.00172631 0)
(-0.125554 -0.00510805 0)
(-0.124787 -0.00851948 0)
(-0.123518 -0.0119239 0)
(-0.121746 -0.0152828 0)
(-0.119476 -0.018556 0)
(-0.116717 -0.0217024 0)
(-0.113485 -0.0246806 0)
(-0.109799 -0.0274498 0)
(-0.105684 -0.02997 0)
(-0.101171 -0.0322035 0)
(-0.0962964 -0.0341153 0)
(-0.091102 -0.0356738 0)
(-0.085634 -0.0368522 0)
(-0.0799435 -0.0376291 0)
(-0.0740855 -0.0379889 0)
(-0.0681183 -0.0379231 0)
(-0.0621026 -0.0374303 0)
(-0.0561008 -0.0365171 0)
(-0.0501753 -0.035198 0)
(-0.0443879 -0.0334958 0)
(-0.0387983 -0.0314411 0)
(-0.0334628 -0.0290725 0)
(-0.0284331 -0.0264358 0)
(-0.0237549 -0.0235837 0)
(-0.0194671 -0.0205746 0)
(-0.0156007 -0.0174727 0)
(-0.0121776 -0.0143465 0)
(-0.00921034 -0.0112684 0)
(-0.0067014 -0.00831412 0)
(-0.00464286 -0.00556201 0)
(-0.00301631 -0.00309287 0)
(-0.00179273 -0.000989577 0)
(-0.000932722 0.000662876 0)
(-0.000386671 0.00177729 0)
(-9.47538e-05 0.00226427 0)
(1.35227e-05 0.00203167 0)
(1.17594e-05 0.000981261 0)
(-5.36949e-05 0.00144762 0)
(-0.000759816 0.00455089 0)
(-0.00210696 0.00773322 0)
(-0.00403887 0.0108832 0)
(-0.00646964 0.0139223 0)
(-0.0093384 0.0167968 0)
(-0.0125932 0.0194724 0)
(-0.0161871 0.0219305 0)
(-0.0200782 0.0241638 0)
(-0.0242295 0.0261736 0)
(-0.0286081 0.0279663 0)
(-0.0331844 0.029551 0)
(-0.0379316 0.0309375 0)
(-0.042825 0.0321348 0)
(-0.0478409 0.03315 0)
(-0.0529564 0.0339874 0)
(-0.0581486 0.0346484 0)
(-0.0633944 0.0351313 0)
(-0.06867 0.0354318 0)
(-0.0739503 0.0355429 0)
(-0.0792093 0.0354559 0)
(-0.0844199 0.035161 0)
(-0.0895535 0.0346475 0)
(-0.0945806 0.033905 0)
(-0.0994706 0.0329237 0)
(-0.104192 0.0316953 0)
(-0.108714 0.0302132 0)
(-0.113003 0.0284733 0)
(-0.117028 0.0264742 0)
(-0.120758 0.0242177 0)
(-0.12416 0.021709 0)
(-0.127206 0.0189568 0)
(-0.129865 0.0159739 0)
(-0.132112 0.0127766 0)
(-0.133921 0.0093854 0)
(-0.135269 0.00582439 0)
(-0.136136 0.00212161 0)
(-0.136503 -0.00169138 0)
(-0.136358 -0.00557959 0)
(-0.135689 -0.00950495 0)
(-0.134489 -0.0134267 0)
(-0.132756 -0.0173016 0)
(-0.130492 -0.0210848 0)
(-0.127705 -0.0247303 0)
(-0.124406 -0.0281912 0)
(-0.120614 -0.0314211 0)
(-0.116353 -0.0343747 0)
(-0.111651 -0.0370083 0)
(-0.106545 -0.0392814 0)
(-0.101076 -0.041157 0)
(-0.09529 -0.0426034 0)
(-0.0892401 -0.0435942 0)
(-0.0829831 -0.0441101 0)
(-0.0765801 -0.0441392 0)
(-0.0700954 -0.0436779 0)
(-0.0635956 -0.0427315 0)
(-0.0571482 -0.0413145 0)
(-0.0508207 -0.0394508 0)
(-0.0446787 -0.0371738 0)
(-0.0387849 -0.0345257 0)
(-0.0331977 -0.0315577 0)
(-0.0279695 -0.0283289 0)
(-0.0231455 -0.0249054 0)
(-0.0187628 -0.0213598 0)
(-0.0148492 -0.0177701 0)
(-0.0114223 -0.0142188 0)
(-0.00848906 -0.0107921 0)
(-0.00604553 -0.00757914 0)
(-0.00407642 -0.00467158 0)
(-0.00255522 -0.00216309 0)
(-0.00144441 -0.00014924 0)
(-0.000695633 0.0012726 0)
(-0.000250372 0.00200298 0)
(-4.01534e-05 0.00194105 0)
(8.50596e-06 0.000980255 0)
(-6.06469e-05 0.00184589 0)
(-0.000847142 0.00565915 0)
(-0.00233979 0.00947032 0)
(-0.00447141 0.0131747 0)
(-0.00714248 0.0167008 0)
(-0.0102826 0.0200018 0)
(-0.0138323 0.0230505 0)
(-0.0177385 0.0258342 0)
(-0.0219545 0.0283517 0)
(-0.0264397 0.0306091 0)
(-0.0311583 0.032617 0)
(-0.0360789 0.0343879 0)
(-0.0411732 0.0359341 0)
(-0.0464152 0.0372664 0)
(-0.0517805 0.0383928 0)
(-0.0572455 0.0393183 0)
(-0.0627868 0.040044 0)
(-0.0683807 0.0405678 0)
(-0.0740026 0.0408844 0)
(-0.0796271 0.0409858 0)
(-0.0852277 0.0408622 0)
(-0.0907765 0.0405024 0)
(-0.0962445 0.0398947 0)
(-0.101601 0.0390276 0)
(-0.106816 0.0378904 0)
(-0.111857 0.0364742 0)
(-0.116692 0.034772 0)
(-0.121287 0.0327797 0)
(-0.125611 0.0304959 0)
(-0.12963 0.027923 0)
(-0.133314 0.0250668 0)
(-0.136631 0.0219374 0)
(-0.139551 0.0185487 0)
(-0.142046 0.0149188 0)
(-0.144089 0.01107 0)
(-0.145656 0.00702899 0)
(-0.146724 0.00282627 0)
(-0.147274 -0.00150357 0)
(-0.147288 -0.00592225 0)
(-0.146754 -0.010388 0)
(-0.145662 -0.014856 0)
(-0.144007 -0.0192787 0)
(-0.141789 -0.0236063 0)
(-0.13901 -0.0277876 0)
(-0.135682 -0.0317704 0)
(-0.131819 -0.0355026 0)
(-0.127442 -0.0389326 0)
(-0.12258 -0.0420108 0)
(-0.117267 -0.0446905 0)
(-0.111542 -0.0469287 0)
(-0.105453 -0.0486877 0)
(-0.0990537 -0.0499358 0)
(-0.0924016 -0.0506488 0)
(-0.0855609 -0.0508106 0)
(-0.0785995 -0.0504147 0)
(-0.0715882 -0.0494642 0)
(-0.0646001 -0.0479728 0)
(-0.0577084 -0.0459652 0)
(-0.0509856 -0.0434767 0)
(-0.0445015 -0.0405533 0)
(-0.0383218 -0.0372511 0)
(-0.0325063 -0.0336357 0)
(-0.0271078 -0.029781 0)
(-0.0221703 -0.0257688 0)
(-0.0177281 -0.0216868 0)
(-0.0138051 -0.0176283 0)
(-0.0104134 -0.0136906 0)
(-0.0075536 -0.00997443 0)
(-0.00521416 -0.00658298 0)
(-0.00337154 -0.00362143 0)
(-0.0019904 -0.00119654 0)
(-0.00102386 0.000583582 0)
(-0.000414616 0.00160926 0)
(-9.62897e-05 0.00177041 0)
(5.26015e-06 0.000952389 0)
(-6.74223e-05 0.0022873 0)
(-0.000932144 0.00688166 0)
(-0.00256636 0.0113791 0)
(-0.00489221 0.0156834 0)
(-0.00779699 0.0197319 0)
(-0.011201 0.0234866 0)
(-0.0150373 0.0269284 0)
(-0.019247 0.0300526 0)
(-0.0237787 0.0328649 0)
(-0.0285881 0.0353773 0)
(-0.0336369 0.0376054 0)
(-0.0388916 0.0395657 0)
(-0.0443225 0.0412737 0)
(-0.0499027 0.0427421 0)
(-0.0556069 0.0439802 0)
(-0.0614111 0.0449936 0)
(-0.0672913 0.0457834 0)
(-0.0732235 0.046347 0)
(-0.0791828 0.0466782 0)
(-0.0851434 0.046768 0)
(-0.0910784 0.0466053 0)
(-0.0969597 0.0461777 0)
(-0.102758 0.0454724 0)
(-0.108442 0.0444768 0)
(-0.113981 0.0431795 0)
(-0.119343 0.0415708 0)
(-0.124495 0.0396433 0)
(-0.129404 0.0373926 0)
(-0.134036 0.0348178 0)
(-0.138359 0.0319213 0)
(-0.14234 0.0287098 0)
(-0.145947 0.0251941 0)
(-0.149149 0.0213894 0)
(-0.151917 0.0173153 0)
(-0.154223 0.0129958 0)
(-0.156039 0.00845955 0)
(-0.157341 0.00373955 0)
(-0.158107 -0.00112694 0)
(-0.158318 -0.00609854 0)
(-0.157958 -0.01113 0)
(-0.157014 -0.0161727 0)
(-0.155477 -0.0211746 0)
(-0.153343 -0.0260813 0)
(-0.150613 -0.0308364 0)
(-0.147293 -0.035382 0)
(-0.143396 -0.03966 0)
(-0.138939 -0.0436126 0)
(-0.133948 -0.0471835 0)
(-0.128454 -0.0503192 0)
(-0.122498 -0.05297 0)
(-0.116125 -0.0550915 0)
(-0.109388 -0.0566457 0)
(-0.102348 -0.0576027 0)
(-0.095071 -0.0579412 0)
(-0.0876276 -0.0576505 0)
(-0.0800936 -0.0567308 0)
(-0.0725474 -0.0551942 0)
(-0.0650687 -0.0530651 0)
(-0.0577372 -0.0503805 0)
(-0.0506305 -0.0471893 0)
(-0.0438224 -0.0435527 0)
(-0.0373814 -0.0395426 0)
(-0.0313684 -0.0352411 0)
(-0.0258357 -0.0307391 0)