/*--------------------------------*- C++ -*----------------------------------*\
  =========                 |
  \\      /  F ield         | OpenFOAM: The Open Source CFD Toolbox
   \\    /   O peration     | Website:  https://openfoam.org
    \\  /    A nd           | Version:  12
     \\/     M anipulation  |
\*---------------------------------------------------------------------------*/
FoamFile
{
    format      ascii;
    class       volScalarField;
    location    "1.1";
    object      p;
}
// * * * * * * * * * * * * * * * * * * * * * * * * * * * * * * * * * * * * * //

dimensions      [0 2 -2 0 0 0 0];

internalField   nonuniform List<scalar> 
400
(
3.82071e-08
-0.205506
-0.293469
-0.175648
0.128182
0.574045
1.11537
1.71514
2.34798
2.99819
3.65616
4.31399
4.96151
5.58186
6.14744
6.6177
6.9416
7.07107
6.98479
6.77466
0.0621518
-0.116694
-0.181194
-0.0580894
0.234304
0.660228
1.1795
1.75864
2.37336
3.00749
3.65005
4.29145
4.92018
5.51888
6.06118
6.51024
6.82175
6.9562
6.89381
6.711
0.140095
-0.0324277
-0.0806794
0.0491636
0.33355
0.742832
1.2423
1.80194
2.39879
3.01659
3.64325
4.26794
4.87818
5.45652
5.97804
6.4096
6.71257
6.8537
6.80783
6.63145
0.2033
0.0180037
-0.0257293
0.111741
0.395541
0.79756
1.28592
1.83301
2.41725
3.02275
3.63714
4.24925
4.84643
5.41173
5.92178
6.34601
6.64866
6.79788
6.75671
6.56721
0.232574
0.0281782
-0.0151458
0.133144
0.423662
0.826873
1.31185
1.85266
2.42909
3.02605
3.63161
4.23496
4.82395
5.38268
5.8894
6.31537
6.62576
6.78689
6.74657
6.53759
0.213914
-0.00750098
-0.0479432
0.117251
0.422194
0.834323
1.32263
1.86248
2.43519
3.02684
3.62649
4.22424
4.80908
5.36663
5.87692
6.31278
6.63927
6.81913
6.78266
6.55651
0.134523
-0.0964321
-0.126789
0.0643597
0.392639
0.821573
1.31961
1.86344
2.43613
3.02537
3.62171
4.21671
4.80102
5.3622
5.88249
6.33639
6.68845
6.89686
6.87214
6.63672
-0.0188701
-0.246694
-0.25533
-0.0259486
0.336136
0.790206
1.30426
1.85666
2.43261
3.02198
3.61728
4.21201
4.79892
5.36811
5.90456
6.38494
6.77351
7.02352
7.02302
6.7916
-0.261454
-0.466849
-0.437035
-0.153471
0.254601
0.742547
1.27864
1.84362
2.42559
3.01714
3.6132
4.20958
4.80168
5.38271
5.94114
6.45669
6.89425
7.20253
7.24392
7.03661
-0.612121
-0.766309
-0.674894
-0.316962
0.151038
0.681808
1.24542
1.82632
2.41641
3.01155
3.6095
4.20883
4.80802
5.40398
5.98959
6.54908
7.04974
7.43707
7.54452
7.39121
-1.09571
-1.1557
-0.97101
-0.513655
0.0298424
0.612254
1.20806
1.80723
2.40659
3.00591
3.60619
4.20904
4.81636
5.42938
6.04654
6.65846
7.23781
7.72965
7.93585
7.88116
-1.7463
-1.64689
-1.32575
-0.738516
-0.10276
0.539337
1.17064
1.78913
2.3978
3.001
3.60324
4.20934
4.82484
5.45584
6.10759
6.77961
7.45415
8.08138
8.43046
8.54181
-2.6123
-2.25275
-1.73618
-0.98321
-0.238195
0.469858
1.13794
1.77504
2.39179
2.9976
3.60058
4.20873
4.83129
5.47965
6.16712
6.90513
7.69113
8.49054
9.04205
9.42304
-3.76295
-2.98587
-2.19403
-1.23475
-0.365032
0.412018
1.11524
1.76816
2.39028
2.99638
3.59802
4.20605
4.83325
5.49642
6.21809
7.02491
7.93715
8.94957
9.78398
10.5957
-5.29253
-3.85461
-2.68312
-1.47435
-0.468748
0.37521
1.10807
1.7715
2.39479
2.99789
3.59528
4.20011
4.82813
5.50128
6.25203
7.12567
8.17536
9.44278
10.667
12.1556
-7.32446
-4.85541
-3.17345
-1.67517
-0.531386
0.369723
1.12181
1.78769
2.40644
3.0024
3.59199
4.18969
4.81332
5.48903
6.25908
7.19028
8.37984
9.94132
11.6886
14.2262
-10.0932
-5.95887
-3.59882
-1.79306
-0.528699
0.407515
1.16185
1.81895
2.42599
3.00996
3.58769
4.1736
4.78614
5.45382
6.22703
7.19449
8.50653
10.3802
12.8197
17.0439
-14.3027
-7.0989
-3.80553
-1.74744
-0.424491
0.504266
1.23467
1.86773
2.45418
3.02052
3.5817
4.15044
4.74333
5.38822
6.13915
7.10119
8.47469
10.608
13.9968
21.3185
-21.4127
-8.14492
-3.5922
-1.45364
-0.188844
0.669468
1.34259
1.93409
2.49055
3.03363
3.57373
4.11983
4.68368
5.28849
5.98422
6.8785
8.1978
10.4211
15.0896
28.5098
-31.2083
-8.75516
-3.13469
-1.05421
0.0897727
0.848254
1.4528
1.99925
2.5253
3.04584
3.56594
4.09001
4.62417
5.18514
5.81413
6.61095
7.81258
9.98776
15.7423
38.3677
)
;

boundaryField
{
    movingWall
    {
        type            zeroGradient;
    }
    fixedWalls
    {
        type            zeroGradient;
    }
    frontAndBack
    {
        type            empty;
    }
}


// ************************************************************************* //
