/*--------------------------------*- C++ -*----------------------------------*\
  =========                 |
  \\      /  F ield         | OpenFOAM: The Open Source CFD Toolbox
   \\    /   O peration     | Website:  https://openfoam.org
    \\  /    A nd           | Version:  12
     \\/     M anipulation  |
\*---------------------------------------------------------------------------*/
FoamFile
{
    format      ascii;
    class       volScalarField;
    location    "0.55";
    object      p;
}
// * * * * * * * * * * * * * * * * * * * * * * * * * * * * * * * * * * * * * //

dimensions      [0 2 -2 0 0 0 0];

internalField   nonuniform List<scalar> 
400
(
-1.57401e-07
0.000377195
0.000551348
0.000299452
-0.000382691
-0.00144254
-0.00281557
-0.00443135
-0.00621804
-0.00810552
-0.0100264
-0.0119142
-0.0137015
-0.0153178
-0.0166914
-0.0177514
-0.0184333
-0.0186847
-0.0185098
-0.0181318
-0.000293785
0.000166461
0.000360268
7.64779e-05
-0.000635005
-0.00169734
-0.00304391
-0.00461017
-0.00633156
-0.00814481
-0.00998852
-0.011802
-0.0135237
-0.0150903
-0.016437
-0.0174993
-0.0182103
-0.0184932
-0.0182983
-0.017837
0.00137028
0.00176699
0.00181466
0.00131344
0.000362945
-0.000928353
-0.00248138
-0.00422985
-0.00611265
-0.00807377
-0.0100607
-0.0120221
-0.0139054
-0.0156543
-0.0172076
-0.0184988
-0.0194485
-0.0199482
-0.0198984
-0.0194995
0.00584299
0.00584576
0.0053781
0.00432116
0.00281418
0.000991685
-0.00105221
-0.00324968
-0.00554146
-0.00788639
-0.0102485
-0.0125943
-0.0148877
-0.0170853
-0.0191308
-0.0209538
-0.02246
-0.0235145
-0.0239779
-0.0239707
0.0136833
0.0127668
0.0112011
0.00908169
0.00658967
0.00387645
0.00104641
-0.00183402
-0.00472776
-0.00762062
-0.0105122
-0.0134068
-0.0163036
-0.0191877
-0.0220214
-0.0247369
-0.027229
-0.0293448
-0.030903
-0.0318108
0.0255515
0.0228907
0.0193477
0.0154454
0.0114083
0.00738565
0.00347973
-0.000264753
-0.00385546
-0.00733906
-0.0107857
-0.0142731
-0.017871
-0.0216247
-0.0255401
-0.0295704
-0.033611
-0.0375097
-0.0410404
-0.0436854
0.0419906
0.0363021
0.0294583
0.022763
0.0164737
0.0106954
0.00549629
0.000862509
-0.00330576
-0.00717167
-0.0109355
-0.0148095
-0.018993
-0.023647
-0.0288683
-0.0346666
-0.0409691
-0.0476644
-0.0544903
-0.0601528
0.0629967
0.0523314
0.0402576
0.029408
0.0200358
0.0121149
0.00561709
0.00040258
-0.00380175
-0.00736617
-0.0107166
-0.0142963
-0.01853
-0.0237848
-0.0303291
-0.0382957
-0.0477039
-0.058567
-0.0706209
-0.0812473
0.0872097
0.0687314
0.0487287
0.0319927
0.0186831
0.00848241
0.00115031
-0.00369424
-0.00662801
-0.00836852
-0.00971155
-0.0114776
-0.0144613
-0.0193772
-0.0267963
-0.0370895
-0.0504813
-0.0672659
-0.08726
-0.10569
0.110521
0.0802875
0.048781
0.0241481
0.00627435
-0.00572917
-0.0125161
-0.0148969
-0.0139513
-0.0109488
-0.00726124
-0.00429301
-0.0034173
-0.00590475
-0.0128319
-0.0249988
-0.0430358
-0.0677923
-0.0993365
-0.129535
0.123803
0.0766269
0.0292114
-0.0052903
-0.0276069
-0.0396724
-0.042891
-0.0387979
-0.029264
-0.0163922
-0.00240326
0.0104432
0.0199167
0.0238986
0.0205052
0.00820145
-0.014393
-0.0491532
-0.0967263
-0.143942
0.109331
0.0388469
-0.0293291
-0.0748808
-0.0997788
-0.107792
-0.10163
-0.0839965
-0.0579487
-0.0267732
0.0061398
0.0373605
0.0634664
0.0811156
0.0871923
0.0789497
0.0536777
0.00767287
-0.0609075
-0.131639
0.0352333
-0.0655809
-0.158742
-0.214148
-0.236191
-0.231807
-0.205914
-0.163027
-0.107874
-0.0452932
0.019862
0.0827164
0.138334
0.181728
0.208006
0.212495
0.190184
0.134153
0.0401754
-0.0613313
-0.153221
-0.29056
-0.409783
-0.468218
-0.475007
-0.442562
-0.379452
-0.292862
-0.18967
-0.0764956
0.0402671
0.154273
0.258944
0.34732
0.412173
0.445903
0.43959
0.380663
0.260107
0.1213
-0.548531
-0.723882
-0.861031
-0.903103
-0.868888
-0.780289
-0.651676
-0.49383
-0.315926
-0.126119
0.0682
0.259831
0.441163
0.603677
0.737332
0.830309
0.867307
0.825904
0.687177
0.509317
-1.31218
-1.51089
-1.63331
-1.61139
-1.4843
-1.29023
-1.05186
-0.783763
-0.496614
-0.198538
0.1042
0.405941
0.700068
0.977654
1.22665
1.43091
1.56614
1.59243
1.46963
1.2677
-2.73138
-2.89141
-2.90675
-2.71189
-2.38976
-2.00562
-1.5914
-1.16332
-0.72931
-0.292045
0.148341
0.59222
1.03856
1.48301
1.91601
2.31975
2.65927
2.86618
2.85525
2.69339
-5.33453
-5.25661
-4.90856
-4.30771
-3.61165
-2.91183
-2.23962
-1.60023
-0.98831
-0.392893
0.199832
0.80436
1.43407
2.09878
2.80156
3.53313
4.25772
4.88106
5.24224
5.32428
-11.1826
-9.54073
-7.66715
-6.05722
-4.724
-3.6043
-2.65476
-1.83637
-1.10859
-0.431983
0.231225
0.918074
1.66654
2.5156
3.50456
4.66978
6.0497
7.69915
9.60202
11.2636
-29.316
-19.966
-13.208
-9.10227
-6.39378
-4.46385
-3.05231
-1.99195
-1.15159
-0.428671
0.260502
0.995049
1.85884
2.95379
4.41246
6.40296
9.18326
13.3626
20.1807
29.568
)
;

boundaryField
{
    movingWall
    {
        type            zeroGradient;
    }
    fixedWalls
    {
        type            zeroGradient;
    }
    frontAndBack
    {
        type            empty;
    }
}


// ************************************************************************* //
