/*--------------------------------*- C++ -*----------------------------------*\
  =========                 |
  \\      /  F ield         | OpenFOAM: The Open Source CFD Toolbox
   \\    /   O peration     | Website:  https://openfoam.org
    \\  /    A nd           | Version:  12
     \\/     M anipulation  |
\*---------------------------------------------------------------------------*/
FoamFile
{
    format      ascii;
    class       volVectorField;
    location    "0.55";
    object      U;
}
// * * * * * * * * * * * * * * * * * * * * * * * * * * * * * * * * * * * * * //

dimensions      [0 1 -1 0 0 0 0];

internalField   nonuniform List<vector> 
400
(
(2.46111e-06 -4.92416e-06 0)
(2.27404e-05 -1.40633e-05 0)
(5.74513e-05 -2.00355e-05 0)
(0.000100702 -2.2318e-05 0)
(0.000145327 -2.17624e-05 0)
(0.000186423 -1.92743e-05 0)
(0.000221071 -1.56188e-05 0)
(0.000247702 -1.13637e-05 0)
(0.00026562 -6.86501e-06 0)
(0.000274609 -2.29807e-06 0)
(0.00027464 2.27967e-06 0)
(0.000265708 6.85117e-06 0)
(0.000247829 1.13578e-05 0)
(0.000221214 1.56224e-05 0)
(0.000186557 1.92865e-05 0)
(0.000145432 2.17798e-05 0)
(0.000100767 2.23356e-05 0)
(5.74781e-05 2.00481e-05 0)
(2.27421e-05 1.40679e-05 0)
(2.45735e-06 4.92233e-06 0)
(6.6155e-06 -4.47276e-05 0)
(5.28113e-05 -0.000110155 0)
(0.000121331 -0.000148791 0)
(0.000200585 -0.000162656 0)
(0.000278452 -0.000157201 0)
(0.000347486 -0.000138517 0)
(0.000403843 -0.000111901 0)
(0.00044599 -8.12661e-05 0)
(0.000473746 -4.90534e-05 0)
(0.000487496 -1.64427e-05 0)
(0.000487584 1.62189e-05 0)
(0.000473997 4.8872e-05 0)
(0.00044636 8.11599e-05 0)
(0.000404271 0.000111886 0)
(0.000347906 0.000138589 0)
(0.000278804 0.000157335 0)
(0.000200832 0.000162813 0)
(0.000121466 0.000148928 0)
(5.28576e-05 0.000110237 0)
(6.61738e-06 4.47466e-05 0)
(8.29124e-06 -0.000107345 0)
(6.14963e-05 -0.000244529 0)
(0.000132089 -0.000314164 0)
(0.000205645 -0.000330454 0)
(0.000269613 -0.000309075 0)
(0.000318696 -0.000264448 0)
(0.000352543 -0.000208072 0)
(0.000373487 -0.000147778 0)
(0.000384887 -8.77836e-05 0)
(0.000389795 -2.92642e-05 0)
(0.00038998 2.85776e-05 0)
(0.000385412 8.7217e-05 0)
(0.000374268 0.000147426 0)
(0.000353459 0.00020798 0)
(0.000319613 0.000264618 0)
(0.000270404 0.000309445 0)
(0.000206221 0.000330919 0)
(0.00013242 0.000314597 0)
(6.16216e-05 0.000244819 0)
(8.30009e-06 0.000107436 0)
(8.25415e-06 -0.000170856 0)
(4.80476e-05 -0.000364657 0)
(8.42473e-05 -0.000441501 0)
(0.000102782 -0.000436233 0)
(9.60874e-05 -0.000381051 0)
(6.65562e-05 -0.000302548 0)
(2.28287e-05 -0.000220013 0)
(-2.38233e-05 -0.000144823 0)
(-6.22476e-05 -8.09477e-05 0)
(-8.36518e-05 -2.63811e-05 0)
(-8.3281e-05 2.47342e-05 0)
(-6.11936e-05 7.95693e-05 0)
(-2.22572e-05 0.000143931 0)
(2.46863e-05 0.000219734 0)
(6.84491e-05 0.000302885 0)
(9.77465e-05 0.000381881 0)
(0.000104014 0.000437327 0)
(8.49742e-05 0.000442566 0)
(4.83341e-05 0.000365413 0)
(8.27723e-06 0.00017112 0)
(6.28036e-06 -0.000211225 0)
(4.73053e-06 -0.000403207 0)
(-4.66259e-05 -0.000428352 0)
(-0.000156591 -0.00035338 0)
(-0.000319111 -0.000235055 0)
(-0.000515332 -0.000116635 0)
(-0.000719217 -2.62637e-05 0)
(-0.000902859 2.31281e-05 0)
(-0.00104102 3.23441e-05 0)
(-0.00111478 1.29725e-05 0)
(-0.00111408 -1.65221e-05 0)
(-0.00103901 -3.53463e-05 0)
(-0.000899824 -2.51282e-05 0)
(-0.000715588 2.55475e-05 0)
(-0.000511614 0.000117236 0)
(-0.000315803 0.000236752 0)
(-0.000154086 0.000355716 0)
(-4.51103e-05 0.000430713 0)
(5.35e-06 0.000404957 0)
(6.33618e-06 0.000211879 0)
(7.59114e-07 -0.000193198 0)
(-8.76938e-05 -0.000258628 0)
(-0.000312031 -0.000118453 0)
(-0.000667377 0.000111809 0)
(-0.00112001 0.000339911 0)
(-0.00162073 0.000500825 0)
(-0.00211306 0.000557702 0)
(-0.00254097 0.000500805 0)
(-0.00285579 0.000344156 0)
(-0.00302192 0.000120148 0)
(-0.00302066 -0.000127263 0)
(-0.00285216 -0.000350227 0)
(-0.00253546 -0.000504952 0)
(-0.00210641 -0.000559355 0)
(-0.00161382 -0.000499846 0)
(-0.00111376 -0.000336657 0)
(-0.000662544 -0.000107118 0)
(-0.000309029 0.000123369 0)
(-8.64199e-05 0.000262413 0)
(8.85665e-07 0.000194697 0)
(-1.12027e-05 -5.66264e-05 0)
(-0.000261908 0.000236852 0)
(-0.000796549 0.000741512 0)
(-0.00158211 0.00126896 0)
(-0.0025344 0.00167738 0)
(-0.00355226 0.00187494 0)
(-0.00452931 0.00181889 0)
(-0.00536447 0.0015121 0)
(-0.00597229 0.00099642 0)
(-0.00629117 0.00034343 0)
(-0.00628907 -0.000356782 0)
(-0.00596624 -0.00100792 0)
(-0.00535521 -0.00152016 0)
(-0.00451798 -0.0018224 0)
(-0.00354031 -0.00187351 0)
(-0.00252337 -0.00167151 0)
(-0.00157337 -0.00126007 0)
(-0.000790969 -0.00073184 0)
(-0.000259444 -0.000229104 0)
(-1.09328e-05 5.98641e-05 0)
(-3.42059e-05 0.000298389 0)
(-0.000567621 0.00135347 0)
(-0.00162633 0.00255151 0)
(-0.00312485 0.00359937 0)
(-0.00489273 0.00428927 0)
(-0.00674451 0.00449962 0)
(-0.00849577 0.0041899 0)
(-0.00997684 0.00339254 0)
(-0.0110471 0.0022011 0)
(-0.0116066 0.000754947 0)
(-0.0116035 -0.000778254 0)
(-0.0110381 -0.0022214 0)
(-0.00996288 -0.00340717 0)
(-0.00847837 -0.00419685 0)
(-0.00672571 -0.00449797 0)
(-0.00487491 -0.00427949 0)
(-0.0031103 -0.00358362 0)
(-0.0016167 -0.00253361 0)
(-0.000563176 -0.00133852 0)
(-3.36721e-05 -0.000291803 0)
(-7.5204e-05 0.00103076 0)
(-0.00107585 0.00350949 0)
(-0.00297779 0.0059188 0)
(-0.00560399 0.00782225 0)
(-0.00864354 0.00893038 0)
(-0.0117802 0.00909505 0)
(-0.0147132 0.00829584 0)
(-0.0171731 0.00662382 0)
(-0.0189408 0.00426137 0)
(-0.0198624 0.0014581 0)
(-0.0198586 -0.00149525 0)
(-0.0189298 -0.00429422 0)
(-0.0171555 -0.00664836 0)
(-0.0146905 -0.00830873 0)
(-0.0117548 -0.00909424 0)
(-0.00861829 -0.00891582 0)
(-0.00558239 -0.00779666 0)
(-0.00296278 -0.0058881 0)
(-0.00106851 -0.00348255 0)
(-7.42263e-05 -0.0010182 0)
(-0.000144209 0.00238234 0)
(-0.00188288 0.00732489 0)
(-0.00508369 0.0117257 0)
(-0.00941751 0.0149644 0)
(-0.0143543 0.0166616 0)
(-0.0193835 0.0166599 0)
(-0.0240388 0.014994 0)
(-0.0279139 0.0118612 0)
(-0.0306846 0.00758791 0)
(-0.0321262 0.00259368 0)
(-0.0321235 -0.0026455 0)
(-0.0306765 -0.00763483 0)
(-0.0278997 -0.0118982 0)
(-0.0240185 -0.0150161 0)
(-0.0193581 -0.0166629 0)
(-0.0143263 -0.0166437 0)
(-0.00939117 -0.0149277 0)
(-0.00506369 -0.011678 0)
(-0.00187219 -0.00728023 0)
(-0.000142579 -0.00236011 0)
(-0.000255139 0.00470588 0)
(-0.00311239 0.0136782 0)
(-0.00823118 0.0211936 0)
(-0.0150393 0.0264158 0)
(-0.0226776 0.0288896 0)
(-0.0303602 0.0284937 0)
(-0.0373987 0.0253827 0)
(-0.043212 0.0199344 0)
(-0.0473472 0.0126975 0)
(-0.0494951 0.00434055 0)
(-0.0494984 -0.0043968 0)
(-0.0473558 -0.0127511 0)
(-0.0432216 -0.0199812 0)
(-0.037404 -0.0254167 0)
(-0.0303572 -0.0285073 0)
(-0.0226651 -0.0288763 0)
(-0.0150204 -0.0263737 0)
(-0.00821217 -0.0211298 0)
(-0.00309991 -0.0136122 0)
(-0.000252753 -0.00467001 0)
(-0.000426867 0.00849491 0)
(-0.00491426 0.0237556 0)
(-0.0127447 0.0359193 0)
(-0.0229688 0.0439361 0)
(-0.0342518 0.0473385 0)
(-0.0454382 0.046141 0)
(-0.0555653 0.040732 0)
(-0.0638534 0.0317826 0)
(-0.0697134 0.0201688 0)
(-0.0727522 0.00690251 0)
(-0.0727719 -0.00692583 0)
(-0.0697681 -0.020199 0)
(-0.0639309 -0.0318222 0)
(-0.0556487 -0.0407762 0)
(-0.0455105 -0.0461778 0)
(-0.0343008 -0.0473516 0)
(-0.0229907 -0.0439121 0)
(-0.0127457 -0.0358568 0)
(-0.00490693 -0.0236751 0)
(-0.000424099 -0.00844424 0)
(-0.000685057 0.014413 0)
(-0.00746007 0.039072 0)
(-0.018945 0.0578416 0)
(-0.0336176 0.069544 0)
(-0.0494836 0.0738684 0)
(-0.0649278 0.0711662 0)
(-0.0786943 0.0622527 0)
(-0.089825 0.0482573 0)
(-0.0976316 0.030511 0)
(-0.101672 0.0104651 0)
(-0.101726 -0.0103653 0)
(-0.0977842 -0.0304424 0)
(-0.0900494 -0.0482411 0)
(-0.078952 -0.0622927 0)
(-0.0651763 -0.0712461 0)
(-0.0496857 -0.0739552 0)
(-0.0337513 -0.0695984 0)
(-0.0190097 -0.0578362 0)
(-0.00747604 -0.0390126 0)
(-0.000683561 -0.014357 0)
(-0.00106703 0.0233248 0)
(-0.0109404 0.0614391 0)
(-0.0270739 0.0890618 0)
(-0.0470894 0.105169 0)
(-0.068126 0.109991 0)
(-0.0880724 0.104601 0)
(-0.105454 0.0905592 0)
(-0.119257 0.0696764 0)
(-0.128821 0.0438722 0)
(-0.133753 0.0150971 0)
(-0.133866 -0.0146962 0)
(-0.129143 -0.0435508 0)
(-0.11974 -0.0694959 0)
(-0.106026 -0.090548 0)
(-0.0886512 -0.104746 0)
(-0.0686293 -0.110234 0)
(-0.0474569 -0.105423 0)
(-0.0272831 -0.0892404 0)
(-0.0110166 -0.0614964 0)
(-0.00107104 -0.0232991 0)
(-0.00164051 0.0363528 0)
(-0.0155805 0.0928427 0)
(-0.0371614 0.131385 0)
(-0.0627544 0.151846 0)
(-0.0884732 0.155826 0)
(-0.111848 0.145819 0)
(-0.131472 0.124615 0)
(-0.146591 0.0949735 0)
(-0.156848 0.0594851 0)
(-0.162098 0.020548 0)
(-0.162289 -0.019579 0)
(-0.157401 -0.0586803 0)
(-0.147438 -0.0944641 0)
(-0.132502 -0.124468 0)
(-0.112926 -0.146042 0)
(-0.0894542 -0.156341 0)
(-0.0635155 -0.152499 0)
(-0.037633 -0.131982 0)
(-0.0157776 -0.0932151 0)
(-0.00165872 -0.0364443 0)
(-0.0025352 0.0549614 0)
(-0.0216608 0.135071 0)
(-0.0486847 0.185217 0)
(-0.0782944 0.207986 0)
(-0.105723 0.208039 0)
(-0.128729 0.190467 0)
(-0.146664 0.159924 0)
(-0.159625 0.120323 0)
(-0.168016 0.0748081 0)
(-0.17223 0.0259449 0)
(-0.172485 -0.02408 0)
(-0.168757 -0.0732001 0)
(-0.160775 -0.119203 0)
(-0.148103 -0.159472 0)
(-0.1303 -0.190734 0)
(-0.107232 -0.208945 0)
(-0.0795442 -0.209287 0)
(-0.0495211 -0.186572 0)
(-0.0220486 -0.136088 0)
(-0.00258274 -0.0553349 0)
(-0.00382061 0.0812796 0)
(-0.0292147 0.188864 0)
(-0.0591988 0.247028 0)
(-0.0869777 0.265824 0)
(-0.108153 0.256176 0)
(-0.12225 0.2273 0)
(-0.13066 0.186118 0)
(-0.135132 0.137462 0)
(-0.137222 0.0845408 0)
(-0.13808 0.0294135 0)
(-0.138301 -0.0265022 0)
(-0.13788 -0.0819842 0)
(-0.136199 -0.135582 0)
(-0.13208 -0.185164 0)
(-0.123895 -0.227422 0)
(-0.109823 -0.25736 0)
(-0.0884765 -0.267856 0)
(-0.0602982 -0.249411 0)
(-0.0297874 -0.19087 0)
(-0.00390065 -0.0821411 0)
(-0.00567738 0.121377 0)
(-0.0361692 0.252318 0)
(-0.0587989 0.30271 0)
(-0.0690536 0.30332 0)
(-0.0675332 0.27566 0)
(-0.0583177 0.233221 0)
(-0.0457642 0.183969 0)
(-0.033431 0.132215 0)
(-0.0238561 0.0799581 0)
(-0.0186517 0.0278162 0)
(-0.0186134 -0.0243194 0)
(-0.0237722 -0.0767881 0)
(-0.0333838 -0.129712 0)
(-0.0458607 -0.182475 0)
(-0.0586517 -0.233033 0)
(-0.0681453 -0.276928 0)
(-0.0698364 -0.305889 0)
(-0.0595169 -0.30613 0)
(-0.0366594 -0.255632 0)
(-0.00579186 -0.123022 0)
(-0.0145068 0.185289 0)
(-0.0304637 0.315803 0)
(-0.00974727 0.32553 0)
(0.033489 0.28937 0)
(0.0837751 0.238961 0)
(0.13211 0.18716 0)
(0.173939 0.138915 0)
(0.206803 0.0954228 0)
(0.229365 0.0560559 0)
(0.240984 0.0193562 0)
(0.241396 -0.0164658 0)
(0.230557 -0.0533019 0)
(0.20864 -0.0929831 0)
(0.176205 -0.137028 0)
(0.134495 -0.186151 0)
(0.0859322 -0.23919 0)
(0.0350922 -0.291072 0)
(-0.00894819 -0.32851 0)
(-0.0302889 -0.319063 0)
(-0.0145628 -0.187185 0)
(0.102254 0.097845 0)
(0.170891 0.136615 0)
(0.285787 0.116744 0)
(0.399393 0.0889078 0)
(0.490753 0.0651395 0)
(0.559866 0.0463299 0)
(0.610715 0.0317471 0)
(0.646389 0.0204721 0)
(0.669079 0.0115094 0)
(0.680251 0.00389582 0)
(0.680635 -0.00327094 0)
(0.670278 -0.0108174 0)
(0.648323 -0.0197197 0)
(0.61331 -0.0309178 0)
(0.562973 -0.0454405 0)
(0.494121 -0.064261 0)
(0.402646 -0.0881788 0)
(0.28839 -0.116392 0)
(0.172343 -0.136867 0)
(0.102609 -0.0984018 0)
)
;

boundaryField
{
    movingWall
    {
        type            fixedValue;
        value           uniform (1 0 0);
    }
    fixedWalls
    {
        type            noSlip;
    }
    frontAndBack
    {
        type            empty;
    }
}


// ************************************************************************* //
