/*--------------------------------*- C++ -*----------------------------------*\
  =========                 |
  \\      /  F ield         | OpenFOAM: The Open Source CFD Toolbox
   \\    /   O peration     | Website:  https://openfoam.org
    \\  /    A nd           | Version:  12
     \\/     M anipulation  |
\*---------------------------------------------------------------------------*/
FoamFile
{
    format      ascii;
    class       volScalarField;
    location    "3.5";
    object      k;
}
// * * * * * * * * * * * * * * * * * * * * * * * * * * * * * * * * * * * * * //

dimensions      [0 2 -2 0 0 0 0];

internalField   nonuniform List<scalar> 
5625
(
4.89007e-12
3.30531e-11
7.33096e-11
1.2069e-10
1.72645e-10
2.2742e-10
2.83653e-10
3.40246e-10
3.96311e-10
4.5115e-10
5.04238e-10
5.55223e-10
6.03911e-10
6.50257e-10
6.94348e-10
7.36385e-10
7.7666e-10
8.15532e-10
8.53409e-10
8.90721e-10
9.27908e-10
9.65401e-10
1.00361e-09
1.04294e-09
1.08373e-09
1.12631e-09
1.17098e-09
1.218e-09
1.2676e-09
1.31997e-09
1.3753e-09
1.43371e-09
1.49533e-09
1.56024e-09
1.6285e-09
1.7001e-09
1.77504e-09
1.85324e-09
1.93456e-09
2.01881e-09
2.1057e-09
2.19485e-09
2.28575e-09
2.37775e-09
2.47005e-09
2.56163e-09
2.65127e-09
2.7375e-09
2.81861e-09
2.89259e-09
2.95715e-09
3.00973e-09
3.04724e-09
3.06569e-09
3.06684e-09
3.0453e-09
2.99832e-09
2.92425e-09
2.8223e-09
2.69267e-09
2.53668e-09
2.3569e-09
2.15709e-09
1.9421e-09
1.71752e-09
1.48935e-09
1.26349e-09
1.04535e-09
8.39451e-10
6.49232e-10
4.77067e-10
3.24549e-10
1.93201e-10
8.60743e-11
1.27018e-11
3.69523e-11
2.94336e-10
6.57745e-10
1.08465e-09
1.55251e-09
2.04564e-09
2.55181e-09
3.06118e-09
3.56575e-09
4.05923e-09
4.53693e-09
4.99567e-09
5.4337e-09
5.85063e-09
6.24724e-09
6.62536e-09
6.9876e-09
7.33721e-09
7.67786e-09
8.01343e-09
8.34787e-09
8.68507e-09
9.02875e-09
9.38242e-09
9.74929e-09
1.01323e-08
1.05341e-08
1.09571e-08
1.14032e-08
1.18743e-08
1.2372e-08
1.28975e-08
1.34518e-08
1.40357e-08
1.46497e-08
1.52939e-08
1.5968e-08
1.66715e-08
1.74031e-08
1.81611e-08
1.89428e-08
1.97449e-08
2.05627e-08
2.13906e-08
2.22211e-08
2.30453e-08
2.38521e-08
2.46283e-08
2.53585e-08
2.60247e-08
2.66064e-08
2.70803e-08
2.74189e-08
2.75848e-08
2.75947e-08
2.74e-08
2.6976e-08
2.63083e-08
2.53898e-08
2.42222e-08
2.28176e-08
2.11991e-08
1.94007e-08
1.74658e-08
1.5445e-08
1.3392e-08
1.13602e-08
9.39788e-09
7.54583e-09
5.83491e-09
4.28634e-09
2.91428e-09
1.73207e-09
7.65924e-10
9.59258e-11
7.84481e-11
6.71799e-10
1.51108e-09
2.49706e-09
3.57746e-09
4.71598e-09
5.88445e-09
7.06009e-09
8.2245e-09
9.36315e-09
1.04652e-08
1.15233e-08
1.25335e-08
1.34949e-08
1.44093e-08
1.52809e-08
1.61159e-08
1.69217e-08
1.77069e-08
1.84805e-08
1.92516e-08
2.00291e-08
2.08218e-08
2.16376e-08
2.2484e-08
2.33679e-08
2.42953e-08
2.52716e-08
2.63016e-08
2.73895e-08
2.85389e-08
2.97525e-08
3.1033e-08
3.23819e-08
3.38004e-08
3.52887e-08
3.68464e-08
3.84718e-08
4.01622e-08
4.19134e-08
4.37194e-08
4.55722e-08
4.74611e-08
4.93728e-08
5.12901e-08
5.31921e-08
5.50534e-08
5.68433e-08
5.85259e-08
6.00599e-08
6.13979e-08
6.24869e-08
6.32627e-08
6.36352e-08
6.36563e-08
6.32028e-08
6.22199e-08
6.06744e-08
5.85503e-08
5.58518e-08
5.26067e-08
4.88684e-08
4.47154e-08
4.02484e-08
3.55839e-08
3.08467e-08
2.61593e-08
2.1634e-08
1.73643e-08
1.34213e-08
9.85342e-09
6.69271e-09
3.96936e-09
1.74395e-09
2.03142e-10
1.28238e-10
1.12548e-09
2.54378e-09
4.21221e-09
6.0408e-09
7.96767e-09
9.94495e-09
1.1934e-08
1.39037e-08
1.58294e-08
1.76927e-08
1.94813e-08
2.11885e-08
2.28127e-08
2.43573e-08
2.58294e-08
2.72395e-08
2.86004e-08
2.99265e-08
3.12331e-08
3.25358e-08
3.38497e-08
3.51896e-08
3.6569e-08
3.80007e-08
3.94961e-08
4.10655e-08
4.2718e-08
4.44619e-08
4.6304e-08
4.82504e-08
5.03061e-08
5.2475e-08
5.47601e-08
5.7163e-08
5.96842e-08
6.23227e-08
6.50757e-08
6.79382e-08
7.09031e-08
7.396e-08
7.7095e-08
8.02901e-08
8.3522e-08
8.67619e-08
8.99742e-08
9.31155e-08
9.61345e-08
9.89705e-08
1.01554e-07
1.03805e-07
1.05635e-07
1.06935e-07
1.07547e-07
1.07579e-07
1.06806e-07
1.05137e-07
1.02518e-07
9.89217e-08
9.4354e-08
8.88615e-08
8.25343e-08
7.55053e-08
6.79452e-08
6.00522e-08
5.2038e-08
4.41115e-08
3.64627e-08
2.92502e-08
2.25936e-08
1.65739e-08
1.12441e-08
6.65458e-09
2.90953e-09
3.30653e-10
1.8476e-10
1.63778e-09
3.71453e-09
6.16186e-09
8.84557e-09
1.16738e-08
1.45757e-08
1.74945e-08
2.03841e-08
2.32085e-08
2.59405e-08
2.85622e-08
3.10637e-08
3.34429e-08
3.57049e-08
3.78603e-08
3.99246e-08
4.1917e-08
4.38586e-08
4.57721e-08
4.76804e-08
4.9606e-08
5.15703e-08
5.35934e-08
5.56939e-08
5.78887e-08
6.01928e-08
6.26196e-08
6.51811e-08
6.78874e-08
7.07472e-08
7.37677e-08
7.69546e-08
8.0312e-08
8.38421e-08
8.75453e-08
9.14197e-08
9.54608e-08
9.9661e-08
1.04009e-07
1.0849e-07
1.13081e-07
1.17758e-07
1.22484e-07
1.27218e-07
1.31908e-07
1.3649e-07
1.40889e-07
1.45018e-07
1.48775e-07
1.52047e-07
1.54706e-07
1.56586e-07
1.57457e-07
1.57502e-07
1.56367e-07
1.53922e-07
1.50088e-07
1.44823e-07
1.38134e-07
1.30086e-07
1.20811e-07
1.10502e-07
9.94114e-08
8.7831e-08
7.60743e-08
6.44505e-08
5.32407e-08
4.26786e-08
3.29393e-08
2.414e-08
1.63564e-08
9.6612e-09
4.20901e-09
4.73542e-10
2.46925e-10
2.19923e-09
5.00027e-09
8.30714e-09
1.1936e-08
1.5761e-08
1.96857e-08
2.36325e-08
2.7539e-08
3.1356e-08
3.5047e-08
3.85874e-08
4.19642e-08
4.51749e-08
4.82262e-08
5.11332e-08
5.3917e-08
5.66038e-08
5.92226e-08
6.18042e-08
6.43798e-08
6.69798e-08
6.96334e-08
7.23677e-08
7.52079e-08
7.81767e-08
8.12944e-08
8.4579e-08
8.80464e-08
9.17102e-08
9.55819e-08
9.96708e-08
1.03984e-07
1.08527e-07
1.13302e-07
1.18309e-07
1.23545e-07
1.29002e-07
1.3467e-07
1.40531e-07
1.46566e-07
1.52743e-07
1.59027e-07
1.65371e-07
1.71717e-07
1.77996e-07
1.84124e-07
1.90001e-07
1.95512e-07
2.00524e-07
2.04885e-07
2.08429e-07
2.1093e-07
2.12077e-07
2.12142e-07
2.10623e-07
2.07347e-07
2.02203e-07
1.95133e-07
1.86138e-07
1.75305e-07
1.62803e-07
1.48894e-07
1.33919e-07
1.18275e-07
1.02392e-07
8.66922e-08
7.15606e-08
5.73157e-08
4.41948e-08
3.23546e-08
2.18942e-08
1.29096e-08
5.60926e-09
6.28079e-10
3.14033e-10
2.80411e-09
6.3869e-09
1.06238e-08
1.52768e-08
2.01828e-08
2.52167e-08
3.02783e-08
3.52869e-08
4.0179e-08
4.49078e-08
4.94416e-08
5.37638e-08
5.78715e-08
6.1774e-08
6.54907e-08
6.90497e-08
7.24846e-08
7.58332e-08
7.91355e-08
8.24314e-08
8.57603e-08
8.91595e-08
9.26641e-08
9.6306e-08
1.00114e-07
1.04114e-07
1.0833e-07
1.1278e-07
1.17482e-07
1.2245e-07
1.27695e-07
1.33227e-07
1.39049e-07
1.45165e-07
1.51573e-07
1.58268e-07
1.65238e-07
1.72468e-07
1.79937e-07
1.87614e-07
1.95462e-07
2.03433e-07
2.11467e-07
2.19493e-07
2.27422e-07
2.3515e-07
2.42555e-07
2.49493e-07
2.55798e-07
2.61286e-07
2.65749e-07
2.68899e-07
2.70341e-07
2.7044e-07
2.6854e-07
2.6441e-07
2.57907e-07
2.48947e-07
2.37527e-07
2.23742e-07
2.07807e-07
1.9005e-07
1.70909e-07
1.50897e-07
1.30571e-07
1.1048e-07
9.11248e-08
7.29196e-08
5.61702e-08
4.10762e-08
2.77609e-08
1.63438e-08
7.08693e-09
7.9158e-10
3.85634e-10
3.44874e-09
7.86534e-09
1.30958e-08
1.88445e-08
2.49078e-08
3.11295e-08
3.73846e-08
4.35724e-08
4.96143e-08
5.54515e-08
6.10451e-08
6.63749e-08
7.14376e-08
7.62452e-08
8.08226e-08
8.52048e-08
8.94345e-08
9.35588e-08
9.76274e-08
1.0169e-07
1.05796e-07
1.09991e-07
1.14317e-07
1.18816e-07
1.23521e-07
1.28464e-07
1.33674e-07
1.39173e-07
1.44982e-07
1.51118e-07
1.57593e-07
1.64416e-07
1.71593e-07
1.79124e-07
1.87005e-07
1.95228e-07
2.03777e-07
2.12631e-07
2.21761e-07
2.3113e-07
2.40688e-07
2.50379e-07
2.6013e-07
2.69853e-07
2.79445e-07
2.88784e-07
2.97722e-07
3.06093e-07
3.13702e-07
3.20327e-07
3.25723e-07
3.29544e-07
3.31303e-07
3.31459e-07
3.29197e-07
3.24218e-07
3.16343e-07
3.05457e-07
2.91541e-07
2.74702e-07
2.55192e-07
2.3341e-07
2.09892e-07
1.85276e-07
1.60255e-07
1.35518e-07
1.11693e-07
8.92989e-08
6.87177e-08
5.01963e-08
3.38834e-08
1.99214e-08
8.62447e-09
9.61965e-10
4.61434e-10
4.13066e-09
9.42958e-09
1.57126e-08
2.26232e-08
2.99146e-08
3.73969e-08
4.49185e-08
5.23571e-08
5.9617e-08
6.66274e-08
7.33414e-08
7.97346e-08
8.58039e-08
9.15644e-08
9.70471e-08
1.02295e-07
1.0736e-07
1.123e-07
1.17175e-07
1.22045e-07
1.2697e-07
1.32004e-07
1.37199e-07
1.42601e-07
1.48253e-07
1.54192e-07
1.6045e-07
1.67055e-07
1.74028e-07
1.81389e-07
1.89151e-07
1.97322e-07
2.05907e-07
2.14904e-07
2.24304e-07
2.34096e-07
2.44258e-07
2.54761e-07
2.6557e-07
2.76637e-07
2.87906e-07
2.99307e-07
3.10756e-07
3.22153e-07
3.33382e-07
3.44301e-07
3.54746e-07
3.64527e-07
3.73422e-07
3.81177e-07
3.87506e-07
3.92013e-07
3.94111e-07
3.94346e-07
3.91752e-07
3.85946e-07
3.76711e-07
3.63894e-07
3.47458e-07
3.27514e-07
3.0435e-07
2.78433e-07
2.50401e-07
2.21018e-07
1.91121e-07
1.61546e-07
1.33059e-07
1.06294e-07
8.17172e-08
5.96286e-08
4.02043e-08
2.36095e-08
1.0208e-08
1.13763e-09
5.41241e-10
4.84821e-09
1.10756e-08
1.8467e-08
2.66022e-08
3.51883e-08
4.40002e-08
5.28569e-08
6.16133e-08
7.01553e-08
7.83989e-08
8.62886e-08
9.37961e-08
1.00918e-07
1.07674e-07
1.14102e-07
1.20252e-07
1.26188e-07
1.31978e-07
1.37694e-07
1.43408e-07
1.49187e-07
1.55098e-07
1.612e-07
1.67548e-07
1.7419e-07
1.81168e-07
1.88519e-07
1.96273e-07
2.04455e-07
2.13084e-07
2.22173e-07
2.3173e-07
2.41756e-07
2.52244e-07
2.63184e-07
2.74556e-07
2.86333e-07
2.98478e-07
3.10947e-07
3.23685e-07
3.36626e-07
3.49691e-07
3.62786e-07
3.75801e-07
3.88607e-07
4.01051e-07
4.12952e-07
4.241e-07
4.34247e-07
4.43107e-07
4.50358e-07
4.55553e-07
4.58004e-07
4.58336e-07
4.55436e-07
4.48828e-07
4.38254e-07
4.23524e-07
4.04576e-07
3.81523e-07
3.54684e-07
3.24592e-07
2.91981e-07
2.57743e-07
2.22861e-07
1.88322e-07
1.55038e-07
1.23767e-07
9.50686e-08
6.93028e-08
4.66774e-08
2.73819e-08
1.18266e-08
1.31732e-09
6.2492e-10
5.60029e-09
1.28008e-08
2.13543e-08
3.0774e-08
4.07191e-08
5.09262e-08
6.11838e-08
7.13216e-08
8.12061e-08
9.07389e-08
9.98555e-08
1.08524e-07
1.1674e-07
1.24529e-07
1.31935e-07
1.3902e-07
1.45857e-07
1.52528e-07
1.59114e-07
1.65701e-07
1.72366e-07
1.79186e-07
1.86228e-07
1.93555e-07
2.01221e-07
2.09273e-07
2.17751e-07
2.26687e-07
2.36109e-07
2.46034e-07
2.56474e-07
2.67434e-07
2.78911e-07
2.90895e-07
3.03369e-07
3.16306e-07
3.29671e-07
3.4342e-07
3.57502e-07
3.71853e-07
3.86399e-07
4.01054e-07
4.15718e-07
4.30272e-07
4.44578e-07
4.58474e-07
4.71764e-07
4.84221e-07
4.95574e-07
5.05505e-07
5.13651e-07
5.19521e-07
5.22321e-07
5.22756e-07
5.19561e-07
5.12168e-07
5.00277e-07
4.83662e-07
4.62235e-07
4.36109e-07
4.05627e-07
3.71382e-07
3.34201e-07
2.95096e-07
2.55191e-07
2.15628e-07
1.77468e-07
1.416e-07
1.08688e-07
7.91613e-08
5.32658e-08
3.12173e-08
1.34712e-08
1.5e-09
7.12388e-10
6.38621e-09
1.46034e-08
2.43714e-08
3.5134e-08
4.65e-08
5.81661e-08
6.98877e-08
8.14679e-08
9.27522e-08
1.03627e-07
1.14018e-07
1.23889e-07
1.33237e-07
1.42092e-07
1.50506e-07
1.58552e-07
1.66316e-07
1.7389e-07
1.81371e-07
1.88855e-07
1.96431e-07
2.04185e-07
2.12194e-07
2.20526e-07
2.29242e-07
2.38393e-07
2.48021e-07
2.58161e-07
2.68839e-07
2.80072e-07
2.91869e-07
3.04232e-07
3.17153e-07
3.30615e-07
3.44594e-07
3.59056e-07
3.73959e-07
3.89253e-07
4.04876e-07
4.20761e-07
4.36827e-07
4.52982e-07
4.69123e-07
4.85125e-07
5.00845e-07
5.16112e-07
5.30719e-07
5.44422e-07
5.56924e-07
5.67879e-07
5.76879e-07
5.83386e-07
5.86508e-07
5.87032e-07
5.83531e-07
5.75352e-07
5.62159e-07
5.43691e-07
5.19838e-07
4.90705e-07
4.56659e-07
4.18345e-07
3.76668e-07
3.32752e-07
2.87855e-07
2.43269e-07
2.00204e-07
1.59691e-07
1.22505e-07
8.91575e-08
5.99399e-08
3.50991e-08
1.51346e-08
1.68487e-09
8.03594e-10
7.20555e-09
1.64824e-08
2.75165e-08
3.96793e-08
5.2527e-08
6.57141e-08
7.89611e-08
9.20425e-08
1.04781e-07
1.17047e-07
1.28756e-07
1.39868e-07
1.50381e-07
1.60329e-07
1.69776e-07
1.78805e-07
1.87515e-07
1.96012e-07
2.04407e-07
2.12806e-07
2.21312e-07
2.3002e-07
2.39014e-07
2.48369e-07
2.58152e-07
2.68417e-07
2.79208e-07
2.90561e-07
3.02499e-07
3.15038e-07
3.28184e-07
3.41933e-07
3.5627e-07
3.71173e-07
3.86611e-07
4.02541e-07
4.18915e-07
4.35675e-07
4.52756e-07
4.70083e-07
4.87574e-07
5.05134e-07
5.22656e-07
5.40015e-07
5.57063e-07
5.73621e-07
5.89472e-07
6.04352e-07
6.17941e-07
6.29858e-07
6.39656e-07
6.46732e-07
6.50124e-07
6.50701e-07
6.46854e-07
6.37869e-07
6.23378e-07
6.03089e-07
5.76872e-07
5.44826e-07
5.07335e-07
4.65081e-07
4.19039e-07
3.70429e-07
3.20631e-07
2.71077e-07
2.23128e-07
1.77956e-07
1.36465e-07
9.92546e-08
6.66765e-08
3.9014e-08
1.68113e-08
1.87129e-09
8.98512e-10
8.05808e-09
1.84374e-08
3.07886e-08
4.44081e-08
5.87974e-08
7.35665e-08
8.83989e-08
1.03038e-07
1.17283e-07
1.30987e-07
1.44054e-07
1.5644e-07
1.68145e-07
1.79211e-07
1.8971e-07
1.99738e-07
2.09409e-07
2.18843e-07
2.28164e-07
2.37492e-07
2.46941e-07
2.56614e-07
2.66605e-07
2.76995e-07
2.87854e-07
2.99239e-07
3.11195e-07
3.23757e-07
3.36948e-07
3.50779e-07
3.65251e-07
3.80354e-07
3.96067e-07
4.12361e-07
4.29196e-07
4.46525e-07
4.64292e-07
4.82433e-07
5.00881e-07
5.19557e-07
5.38379e-07
5.57251e-07
5.76067e-07
5.94699e-07
6.12996e-07
6.30771e-07
6.47794e-07
6.63782e-07
6.78388e-07
6.91196e-07
7.01716e-07
7.09264e-07
7.12848e-07
7.13422e-07
7.09159e-07
6.99328e-07
6.83529e-07
6.61448e-07
6.32936e-07
5.98089e-07
5.57296e-07
5.11271e-07
4.6104e-07
4.07901e-07
3.53339e-07
2.98918e-07
2.46141e-07
1.9633e-07
1.50522e-07
1.09425e-07
7.34583e-08
4.29523e-08
1.84969e-08
2.05878e-09
9.97133e-10
8.94375e-09
2.04682e-08
3.41874e-08
4.93199e-08
6.53101e-08
8.17213e-08
9.81976e-08
1.1445e-07
1.30251e-07
1.45436e-07
1.59897e-07
1.73587e-07
1.86508e-07
1.98709e-07
2.10273e-07
2.21312e-07
2.31953e-07
2.42332e-07
2.52587e-07
2.62851e-07
2.73249e-07
2.83894e-07
2.94887e-07
3.06315e-07
3.1825e-07
3.30753e-07
3.43868e-07
3.57628e-07
3.72052e-07
3.87149e-07
4.02913e-07
4.19327e-07
4.36366e-07
4.53991e-07
4.72156e-07
4.90808e-07
5.09887e-07
5.29325e-07
5.49052e-07
5.68992e-07
5.8906e-07
6.09165e-07
6.29198e-07
6.49033e-07
6.68513e-07
6.8744e-07
7.05571e-07
7.22597e-07
7.38144e-07
7.51758e-07
7.6291e-07
7.7081e-07
7.74483e-07
7.74984e-07
7.70207e-07
7.59473e-07
7.42346e-07
7.18493e-07
6.87757e-07
6.50225e-07
6.0629e-07
5.56683e-07
5.02465e-07
4.44994e-07
3.85842e-07
3.26687e-07
2.6917e-07
2.14764e-07
1.64647e-07
1.19648e-07
8.02736e-08
4.69071e-08
2.01885e-08
2.24699e-09
1.09946e-09
9.86259e-09
2.25748e-08
3.77128e-08
5.44145e-08
7.20646e-08
9.01772e-08
1.08355e-07
1.26273e-07
1.43678e-07
1.60384e-07
1.76272e-07
1.91291e-07
2.05446e-07
2.18795e-07
2.31434e-07
2.43488e-07
2.55103e-07
2.6643e-07
2.77621e-07
2.88822e-07
3.0017e-07
3.11787e-07
3.23781e-07
3.36243e-07
3.49248e-07
3.62858e-07
3.77116e-07
3.92054e-07
4.07686e-07
4.24014e-07
4.41029e-07
4.58707e-07
4.77014e-07
4.95906e-07
5.15333e-07
5.35235e-07
5.55548e-07
5.76206e-07
5.97138e-07
6.18268e-07
6.39516e-07
6.60791e-07
6.81986e-07
7.02972e-07
7.23583e-07
7.43611e-07
7.6279e-07
7.80787e-07
7.97195e-07
8.11523e-07
8.23204e-07
8.31322e-07
8.3497e-07
8.35305e-07
8.29902e-07
8.18193e-07
7.99705e-07
7.74092e-07
7.41193e-07
7.0109e-07
6.54172e-07
6.01176e-07
5.43186e-07
4.81596e-07
4.18047e-07
3.54313e-07
2.92166e-07
2.33224e-07
1.78819e-07
1.29914e-07
8.71153e-08
5.08744e-08
2.18841e-08
2.43571e-09
1.2055e-09
1.08147e-08
2.47575e-08
4.13653e-08
5.96922e-08
7.90609e-08
9.89339e-08
1.18869e-07
1.38505e-07
1.57558e-07
1.75821e-07
1.93164e-07
2.09532e-07
2.24934e-07
2.39438e-07
2.53155e-07
2.66226e-07
2.78813e-07
2.91085e-07
3.03208e-07
3.15343e-07
3.27637e-07
3.40221e-07
3.53208e-07
3.66695e-07
3.80759e-07
3.95459e-07
4.1084e-07
4.26929e-07
4.43735e-07
4.61258e-07
4.79478e-07
4.98368e-07
5.17887e-07
5.37986e-07
5.58609e-07
5.79695e-07
6.01179e-07
6.22994e-07
6.45072e-07
6.67341e-07
6.89724e-07
7.1213e-07
7.34454e-07
7.56558e-07
7.78268e-07
7.99357e-07
8.19535e-07
8.3844e-07
8.55627e-07
8.70572e-07
8.82672e-07
8.90872e-07
8.9439e-07
8.9444e-07
8.88295e-07
8.75524e-07
8.55633e-07
8.28258e-07
7.93242e-07
7.50662e-07
7.00904e-07
6.44702e-07
5.83144e-07
5.17648e-07
4.49901e-07
3.81756e-07
3.15099e-07
2.51693e-07
1.93028e-07
1.40217e-07
9.3981e-08
5.48524e-08
2.35828e-08
2.62483e-09
1.31528e-09
1.18002e-08
2.70166e-08
4.51453e-08
6.51536e-08
8.62995e-08
1.07991e-07
1.29739e-07
1.51142e-07
1.71884e-07
1.91737e-07
2.10559e-07
2.28291e-07
2.44948e-07
2.6061e-07
2.75402e-07
2.89485e-07
3.03037e-07
3.16246e-07
3.29294e-07
3.42354e-07
3.55585e-07
3.69125e-07
3.83095e-07
3.97593e-07
4.12697e-07
4.28469e-07
4.44948e-07
4.62157e-07
4.80105e-07
4.9878e-07
5.18162e-07
5.38215e-07
5.58894e-07
5.80146e-07
6.01912e-07
6.2413e-07
6.46736e-07
6.69667e-07
6.92856e-07
7.16237e-07
7.39735e-07
7.6326e-07
7.86701e-07
8.09915e-07
8.32709e-07
8.54835e-07
8.75974e-07
8.9573e-07
9.13623e-07
9.29089e-07
9.41491e-07
9.49637e-07
9.52984e-07
9.52566e-07
9.45575e-07
9.31653e-07
9.10301e-07
8.81143e-07
8.44031e-07
7.99042e-07
7.46555e-07
6.87297e-07
6.22353e-07
5.53147e-07
4.81391e-07
4.09e-07
3.37958e-07
2.70166e-07
2.07275e-07
1.50559e-07
1.00872e-07
5.88419e-08
2.52846e-08
2.81435e-09
1.4288e-09
1.28193e-08
2.93524e-08
4.90533e-08
7.07993e-08
9.37806e-08
1.17348e-07
1.40963e-07
1.64179e-07
1.8665e-07
2.08122e-07
2.28441e-07
2.47547e-07
2.65462e-07
2.82277e-07
2.98137e-07
3.13221e-07
3.27727e-07
3.4186e-07
3.55821e-07
3.69794e-07
3.83949e-07
3.98433e-07
4.1337e-07
4.28862e-07
4.44989e-07
4.61808e-07
4.79359e-07
4.9766e-07
5.16714e-07
5.36506e-07
5.57009e-07
5.78183e-07
5.9998e-07
6.22343e-07
6.45214e-07
6.6853e-07
6.92233e-07
7.1626e-07
7.40552e-07
7.65045e-07
7.89666e-07
8.14323e-07
8.38898e-07
8.63232e-07
8.87116e-07
9.10271e-07
9.32348e-07
9.52912e-07
9.71446e-07
9.87349e-07
9.9995e-07
1.00793e-06
1.01105e-06
1.01e-06
1.00206e-06
9.86896e-07
9.64014e-07
9.33029e-07
8.9381e-07
8.46436e-07
7.91286e-07
7.29078e-07
6.60888e-07
5.88134e-07
5.12538e-07
4.36054e-07
3.60749e-07
2.88648e-07
2.21565e-07
1.60945e-07
1.07793e-07
6.28451e-08
2.69903e-08
3.00433e-09
1.54609e-09
1.38721e-08
3.17653e-08
5.30898e-08
7.66297e-08
1.01505e-07
1.27005e-07
1.52538e-07
1.77613e-07
2.01847e-07
2.24962e-07
2.46793e-07
2.67277e-07
2.86446e-07
3.04406e-07
3.21321e-07
3.3739e-07
3.52834e-07
3.67877e-07
3.82734e-07
3.97605e-07
4.12669e-07
4.28081e-07
4.43969e-07
4.60437e-07
4.77566e-07
4.95412e-07
5.14009e-07
5.33375e-07
5.53505e-07
5.74383e-07
5.95975e-07
6.18239e-07
6.41124e-07
6.64574e-07
6.88531e-07
7.12935e-07
7.37732e-07
7.62866e-07
7.8828e-07
8.13914e-07
8.39693e-07
8.65521e-07
8.91269e-07
9.1676e-07
9.41757e-07
9.65953e-07
9.88961e-07
1.01031e-06
1.02944e-06
1.04571e-06
1.05843e-06
1.06615e-06
1.06899e-06
1.06718e-06
1.05819e-06
1.04169e-06
1.01719e-06
9.84312e-07
9.42935e-07
8.93152e-07
8.35346e-07
7.70234e-07
6.98881e-07
6.22693e-07
5.43391e-07
4.62947e-07
3.83488e-07
3.07152e-07
2.35911e-07
1.71387e-07
1.14752e-07
6.68658e-08
2.87011e-08
3.19491e-09
1.66716e-09
1.49588e-08
3.42555e-08
5.72552e-08
8.26453e-08
1.09471e-07
1.3696e-07
1.64462e-07
1.91438e-07
2.17466e-07
2.42244e-07
2.65595e-07
2.87456e-07
3.0787e-07
3.26961e-07
3.44912e-07
3.61948e-07
3.78311e-07
3.94243e-07
4.09978e-07
4.2573e-07
4.41687e-07
4.58011e-07
4.74833e-07
4.92261e-07
5.10374e-07
5.29226e-07
5.4885e-07
5.69258e-07
5.90443e-07
6.12384e-07
6.35046e-07
6.58383e-07
6.82345e-07
7.06877e-07
7.31923e-07
7.57431e-07
7.83348e-07
8.09624e-07
8.36208e-07
8.63038e-07
8.90039e-07
9.17104e-07
9.44087e-07
9.70791e-07
9.96947e-07
1.02221e-06
1.04617e-06
1.06829e-06
1.08799e-06
1.1046e-06
1.11738e-06
1.12477e-06
1.12729e-06
1.12463e-06
1.1145e-06
1.09657e-06
1.07035e-06
1.03548e-06
9.91853e-07
9.3958e-07
8.7906e-07
8.11018e-07
7.36515e-07
6.56948e-07
5.74025e-07
4.8972e-07
4.06201e-07
3.25697e-07
2.50327e-07
1.81897e-07
1.21756e-07
7.09088e-08
3.04188e-08
3.38629e-09
1.79203e-09
1.60794e-08
3.68233e-08
6.15498e-08
8.88461e-08
1.17681e-07
1.47213e-07
1.76731e-07
2.05647e-07
2.33496e-07
2.59952e-07
2.84825e-07
3.08058e-07
3.29702e-07
3.49903e-07
3.6887e-07
3.86849e-07
4.04107e-07
4.20908e-07
4.37503e-07
4.54118e-07
4.70952e-07
4.88171e-07
5.05915e-07
5.24288e-07
5.4337e-07
5.63214e-07
5.8385e-07
6.05287e-07
6.27516e-07
6.50511e-07
6.74237e-07
6.98649e-07
7.23697e-07
7.49328e-07
7.75493e-07
8.02143e-07
8.29233e-07
8.56716e-07
8.84544e-07
9.12655e-07
9.40964e-07
9.69354e-07
9.97659e-07
1.02565e-06
1.05303e-06
1.07943e-06
1.10436e-06
1.12728e-06
1.14756e-06
1.16449e-06
1.17732e-06
1.18434e-06
1.1865e-06
1.18292e-06
1.17158e-06
1.15213e-06
1.12409e-06
1.0871e-06
1.04108e-06
9.86181e-07
9.22816e-07
8.51737e-07
7.74019e-07
6.91055e-07
6.04538e-07
5.16433e-07
4.28922e-07
3.44304e-07
2.6483e-07
1.92487e-07
1.28817e-07
7.49797e-08
3.21454e-08
3.57868e-09
1.92069e-09
1.7234e-08
3.94688e-08
6.59737e-08
9.5232e-08
1.26131e-07
1.57759e-07
1.89341e-07
2.20231e-07
2.49924e-07
2.78067e-07
3.04462e-07
3.29052e-07
3.51907e-07
3.73195e-07
3.93149e-07
4.12046e-07
4.30176e-07
4.47824e-07
4.65259e-07
4.8272e-07
5.00416e-07
5.1852e-07
5.37173e-07
5.56482e-07
5.76526e-07
5.97356e-07
6.19e-07
6.41464e-07
6.64737e-07
6.88793e-07
7.13597e-07
7.39104e-07
7.65267e-07
7.9204e-07
8.19377e-07
8.47237e-07
8.75578e-07
9.0436e-07
9.33533e-07
9.63031e-07
9.9276e-07
1.02258e-06
1.05232e-06
1.0817e-06
1.11039e-06
1.13798e-06
1.16396e-06
1.18773e-06
1.20863e-06
1.2259e-06
1.23876e-06
1.24543e-06
1.24722e-06
1.24269e-06
1.23008e-06
1.20902e-06
1.17904e-06
1.13979e-06
1.0912e-06
1.03347e-06
9.67055e-07
8.9275e-07
8.11663e-07
7.25201e-07
6.35049e-07
5.43152e-07
4.51688e-07
3.62996e-07
2.79437e-07
2.03172e-07
1.35942e-07
7.90838e-08
3.38831e-08
3.7723e-09
2.05315e-09
1.84227e-08
4.21919e-08
7.05266e-08
1.01802e-07
1.34822e-07
1.68598e-07
2.02285e-07
2.35181e-07
2.66736e-07
2.96571e-07
3.24477e-07
3.50407e-07
3.74448e-07
3.96794e-07
4.17708e-07
4.37494e-07
4.5647e-07
4.74943e-07
4.932e-07
5.11494e-07
5.30042e-07
5.49023e-07
5.68581e-07
5.88824e-07
6.0983e-07
6.31649e-07
6.54308e-07
6.7781e-07
7.02145e-07
7.27287e-07
7.532e-07
7.79844e-07
8.07177e-07
8.35158e-07
8.63746e-07
8.92906e-07
9.22604e-07
9.52799e-07
9.8344e-07
1.01445e-06
1.04573e-06
1.07712e-06
1.1084e-06
1.13928e-06
1.1694e-06
1.19828e-06
1.22538e-06
1.25008e-06
1.27166e-06
1.28935e-06
1.30225e-06
1.30862e-06
1.31006e-06
1.30457e-06
1.29066e-06
1.26791e-06
1.23587e-06
1.19418e-06
1.14281e-06
1.082e-06
1.01226e-06
9.34455e-07
8.49755e-07
7.59605e-07
6.65697e-07
5.69958e-07
4.7454e-07
3.81794e-07
2.94162e-07
2.13963e-07
1.43142e-07
8.32265e-08
3.56338e-08
3.96738e-09
2.18941e-09
1.96453e-08
4.49925e-08
7.52082e-08
1.08556e-07
1.4375e-07
1.79723e-07
2.15556e-07
2.50485e-07
2.83915e-07
3.15439e-07
3.44844e-07
3.7209e-07
3.97288e-07
4.20659e-07
4.42501e-07
4.63148e-07
4.82945e-07
5.02224e-07
5.21288e-07
5.40404e-07
5.59799e-07
5.79656e-07
6.00122e-07
6.21306e-07
6.43286e-07
6.66111e-07
6.89805e-07
7.14374e-07
7.39805e-07
7.66075e-07
7.93151e-07
8.20997e-07
8.49576e-07
8.78853e-07
9.08795e-07
9.39373e-07
9.70553e-07
1.0023e-06
1.03455e-06
1.06722e-06
1.1002e-06
1.13329e-06
1.16626e-06
1.19878e-06
1.23043e-06
1.26072e-06
1.28906e-06
1.31479e-06
1.33715e-06
1.35535e-06
1.36833e-06
1.37448e-06
1.3756e-06
1.36917e-06
1.35394e-06
1.32945e-06
1.29523e-06
1.25093e-06
1.19654e-06
1.13235e-06
1.05894e-06
9.77285e-07
8.88635e-07
7.94513e-07
6.96645e-07
5.96944e-07
4.97526e-07
4.00721e-07
3.09017e-07
2.2487e-07
1.50424e-07
8.74124e-08
3.73992e-08
4.1641e-09
2.32946e-09
2.09017e-08
4.78702e-08
8.00177e-08
1.15492e-07
1.52913e-07
1.9113e-07
2.29146e-07
2.6613e-07
3.01441e-07
3.34648e-07
3.65531e-07
3.94064e-07
4.20385e-07
4.44748e-07
4.67485e-07
4.88964e-07
5.0956e-07
5.29628e-07
5.49489e-07
5.69424e-07
5.89667e-07
6.10408e-07
6.31795e-07
6.53939e-07
6.76917e-07
7.00777e-07
7.25544e-07
7.51224e-07
7.77804e-07
8.05266e-07
8.33579e-07
8.62713e-07
8.92638e-07
9.23324e-07
9.54745e-07
9.86875e-07
1.01968e-06
1.05313e-06
1.08715e-06
1.12165e-06
1.15648e-06
1.19144e-06
1.22624e-06
1.26054e-06
1.29387e-06
1.3257e-06
1.3554e-06
1.38227e-06
1.40554e-06
1.42436e-06
1.43752e-06
1.44355e-06
1.4444e-06
1.43708e-06
1.42055e-06
1.39428e-06
1.35777e-06
1.31067e-06
1.25301e-06
1.1851e-06
1.10764e-06
1.0217e-06
9.28674e-07
8.302e-07
7.28073e-07
6.24215e-07
5.20696e-07
4.19797e-07
3.24011e-07
2.35898e-07
1.57793e-07
9.1645e-08
3.91808e-08
4.36261e-09
2.47327e-09
2.21919e-08
5.08247e-08
8.49543e-08
1.22608e-07
1.62308e-07
2.02812e-07
2.43043e-07
2.82101e-07
3.19295e-07
3.5417e-07
3.86505e-07
4.16293e-07
4.437e-07
4.69018e-07
4.92617e-07
5.14901e-07
5.36276e-07
5.57121e-07
5.77776e-07
5.98534e-07
6.19637e-07
6.4128e-07
6.63613e-07
6.86748e-07
7.10762e-07
7.35704e-07
7.61598e-07
7.88451e-07
8.16255e-07
8.44992e-07
8.74638e-07
9.05169e-07
9.36559e-07
9.68787e-07
1.00183e-06
1.03567e-06
1.07027e-06
1.10559e-06
1.14155e-06
1.17804e-06
1.21489e-06
1.25187e-06
1.28867e-06
1.32489e-06
1.36005e-06
1.39356e-06
1.42476e-06
1.45292e-06
1.47722e-06
1.4968e-06
1.51028e-06
1.5163e-06
1.51694e-06
1.50882e-06
1.49101e-06
1.46293e-06
1.42405e-06
1.374e-06
1.31279e-06
1.24082e-06
1.15888e-06
1.06817e-06
9.70267e-07
8.66967e-07
7.60187e-07
6.5189e-07
5.44107e-07
4.39043e-07
3.39149e-07
2.4705e-07
1.65252e-07
9.59265e-08
4.09794e-08
4.56299e-09
2.62082e-09
2.35154e-08
5.38552e-08
9.00165e-08
1.29901e-07
1.71929e-07
2.14762e-07
2.57237e-07
2.98379e-07
3.37452e-07
3.73976e-07
4.07733e-07
4.38737e-07
4.6719e-07
4.93425e-07
5.17855e-07
5.40922e-07
5.63061e-07
5.84678e-07
6.06131e-07
6.27724e-07
6.49709e-07
6.72284e-07
6.95602e-07
7.19775e-07
7.4488e-07
7.70966e-07
7.9806e-07
8.26169e-07
8.55289e-07
8.85406e-07
9.16502e-07
9.48557e-07
9.81553e-07
1.01547e-06
1.0503e-06
1.08601e-06
1.12258e-06
1.15994e-06
1.19802e-06
1.23668e-06
1.27572e-06
1.31489e-06
1.35385e-06
1.39215e-06
1.42928e-06
1.46462e-06
1.49748e-06
1.52707e-06
1.55255e-06
1.57302e-06
1.58699e-06
1.59314e-06
1.59364e-06
1.58482e-06
1.56579e-06
1.53591e-06
1.49459e-06
1.44143e-06
1.37644e-06
1.30007e-06
1.21319e-06
1.11718e-06
1.01383e-06
9.05141e-07
7.93217e-07
6.80108e-07
5.67826e-07
4.5848e-07
3.54435e-07
2.58324e-07
1.72801e-07
1.00257e-07
4.27951e-08
4.76528e-09
2.77207e-09
2.48721e-08
5.69611e-08
9.52028e-08
1.37369e-07
1.81771e-07
2.26972e-07
2.71712e-07
3.14947e-07
3.55888e-07
3.94035e-07
4.29177e-07
4.61356e-07
4.90814e-07
5.1793e-07
5.43161e-07
5.6699e-07
5.89886e-07
6.12278e-07
6.34543e-07
6.56997e-07
6.79898e-07
7.0345e-07
7.27805e-07
7.53078e-07
7.79346e-07
8.06659e-07
8.35044e-07
8.64512e-07
8.9506e-07
9.26681e-07
9.59362e-07
9.93088e-07
1.02785e-06
1.06363e-06
1.10041e-06
1.13818e-06
1.17689e-06
1.21648e-06
1.25685e-06
1.29785e-06
1.33926e-06
1.38079e-06
1.42205e-06
1.46259e-06
1.50184e-06
1.53916e-06
1.57381e-06
1.60498e-06
1.63179e-06
1.6533e-06
1.66794e-06
1.67435e-06
1.6748e-06
1.6654e-06
1.64523e-06
1.61358e-06
1.5698e-06
1.51342e-06
1.44444e-06
1.36333e-06
1.27107e-06
1.16921e-06
1.05978e-06
9.45065e-07
8.27411e-07
7.09024e-07
5.9193e-07
4.78134e-07
3.69868e-07
2.69717e-07
1.80437e-07
1.04637e-07
4.46276e-08
4.96939e-09
2.92699e-09
2.62615e-08
6.01412e-08
1.00511e-07
1.45008e-07
1.91829e-07
2.39429e-07
2.86455e-07
3.31782e-07
3.74573e-07
4.14312e-07
4.50799e-07
4.84108e-07
5.14529e-07
5.42491e-07
5.68499e-07
5.93077e-07
6.16729e-07
6.39909e-07
6.63011e-07
6.86363e-07
7.1023e-07
7.34817e-07
7.60281e-07
7.86734e-07
8.14255e-07
8.42895e-07
8.72682e-07
9.03629e-07
9.35739e-07
9.69007e-07
1.00343e-06
1.03899e-06
1.07568e-06
1.11349e-06
1.15242e-06
1.19242e-06
1.23347e-06
1.27547e-06
1.31831e-06
1.36182e-06
1.40576e-06
1.4498e-06
1.49352e-06
1.53644e-06
1.57796e-06
1.61739e-06
1.65397e-06
1.68686e-06
1.71514e-06
1.73783e-06
1.75333e-06
1.76014e-06
1.76062e-06
1.75077e-06
1.72957e-06
1.69622e-06
1.64997e-06
1.59031e-06
1.51717e-06
1.43103e-06
1.33297e-06
1.22471e-06
1.10854e-06
9.87098e-07
8.63044e-07
7.38816e-07
6.16509e-07
4.98034e-07
3.85446e-07
2.81217e-07
1.88154e-07
1.09061e-07
4.64753e-08
5.1752e-09
3.08553e-09
2.76832e-08
6.33944e-08
1.05939e-07
1.52813e-07
2.02094e-07
2.52124e-07
3.01448e-07
3.48861e-07
3.93478e-07
4.34772e-07
4.72558e-07
5.06952e-07
5.38295e-07
5.6707e-07
5.93835e-07
6.19158e-07
6.43575e-07
6.67568e-07
6.91546e-07
7.15848e-07
7.40744e-07
7.66443e-07
7.93101e-07
8.20833e-07
8.49716e-07
8.79802e-07
9.11121e-07
9.43689e-07
9.77511e-07
1.01259e-06
1.04891e-06
1.08648e-06
1.12529e-06
1.16533e-06
1.20658e-06
1.24901e-06
1.29257e-06
1.33716e-06
1.38265e-06
1.42883e-06
1.47544e-06
1.52213e-06
1.56846e-06
1.61389e-06
1.65779e-06
1.69946e-06
1.7381e-06
1.77283e-06
1.8027e-06
1.8267e-06
1.84322e-06
1.85059e-06
1.85119e-06
1.84102e-06
1.81891e-06
1.78395e-06
1.7353e-06
1.67233e-06
1.59492e-06
1.50353e-06
1.39928e-06
1.28409e-06
1.16052e-06
1.0316e-06
9.00403e-07
7.69677e-07
6.41668e-07
5.18215e-07
4.01169e-07
2.92814e-07
1.95941e-07
1.13525e-07
4.83364e-08
5.38245e-09
3.24762e-09
2.91365e-08
6.67194e-08
1.11485e-07
1.60781e-07
2.12559e-07
2.65044e-07
3.16671e-07
3.66158e-07
4.12572e-07
4.55377e-07
4.94414e-07
5.29846e-07
5.62069e-07
5.91631e-07
6.1914e-07
6.45211e-07
6.70416e-07
6.95258e-07
7.20165e-07
7.45484e-07
7.71491e-07
7.98395e-07
8.26355e-07
8.55482e-07
8.85855e-07
9.17526e-07
9.50527e-07
9.84874e-07
1.02058e-06
1.05763e-06
1.09605e-06
1.13582e-06
1.17693e-06
1.21938e-06
1.26315e-06
1.30819e-06
1.35444e-06
1.40179e-06
1.45008e-06
1.49908e-06
1.54851e-06
1.59798e-06
1.64702e-06
1.69506e-06
1.74146e-06
1.78546e-06
1.82625e-06
1.86292e-06
1.89449e-06
1.91991e-06
1.93761e-06
1.94565e-06
1.94648e-06
1.93613e-06
1.91323e-06
1.87678e-06
1.82581e-06
1.75958e-06
1.67786e-06
1.58105e-06
1.47031e-06
1.3477e-06
1.2161e-06
1.07894e-06
9.39786e-07
8.0182e-07
6.67526e-07
5.38723e-07
4.17036e-07
3.04492e-07
2.03785e-07
1.18023e-07
5.02077e-08
5.59081e-09
3.41319e-09
3.0621e-08
7.01145e-08
1.17144e-07
1.68905e-07
2.23214e-07
2.78173e-07
3.32105e-07
3.83645e-07
4.31819e-07
4.76087e-07
5.16324e-07
5.52746e-07
5.85814e-07
6.1614e-07
6.4439e-07
6.71224e-07
6.97249e-07
7.22994e-07
7.48898e-07
7.75319e-07
8.02535e-07
8.30758e-07
8.60142e-07
8.90802e-07
9.22813e-07
9.56227e-07
9.91075e-07
1.02738e-06
1.06514e-06
1.10437e-06
1.14507e-06
1.18723e-06
1.23085e-06
1.2759e-06
1.32237e-06
1.3702e-06
1.41931e-06
1.46957e-06
1.5208e-06
1.57276e-06
1.62512e-06
1.67746e-06
1.7293e-06
1.78005e-06
1.82901e-06
1.87542e-06
1.91844e-06
1.95712e-06
1.99046e-06
2.01737e-06
2.03635e-06
2.0452e-06
2.04632e-06
2.03591e-06
2.01237e-06
1.97457e-06
1.92141e-06
1.85201e-06
1.76601e-06
1.6637e-06
1.54626e-06
1.41583e-06
1.2756e-06
1.12945e-06
9.81495e-07
8.35473e-07