/*--------------------------------*- C++ -*----------------------------------*\
  =========                 |
  \\      /  F ield         | OpenFOAM: The Open Source CFD Toolbox
   \\    /   O peration     | Website:  https://openfoam.org
    \\  /    A nd           | Version:  12
     \\/     M anipulation  |
\*---------------------------------------------------------------------------*/
FoamFile
{
    format      ascii;
    class       volScalarField;
    location    "3";
    object      k;
}
// * * * * * * * * * * * * * * * * * * * * * * * * * * * * * * * * * * * * * //

dimensions      [0 2 -2 0 0 0 0];

internalField   nonuniform List<scalar> 
18225
(
3.06944e-10
1.5339e-09
3.35682e-09
5.54571e-09
7.998e-09
1.06531e-08
1.34681e-08
1.64098e-08
1.9451e-08
2.2569e-08
2.57445e-08
2.89615e-08
3.22061e-08
3.54668e-08
3.87344e-08
4.20012e-08
4.52617e-08
4.85115e-08
5.17479e-08
5.49696e-08
5.81762e-08
6.13686e-08
6.45481e-08
6.77173e-08
7.08788e-08
7.4036e-08
7.71923e-08
8.03514e-08
8.35168e-08
8.6692e-08
8.98803e-08
9.30845e-08
9.63072e-08
9.95504e-08
1.02816e-07
1.06104e-07
1.09415e-07
1.1275e-07
1.16107e-07
1.19485e-07
1.22882e-07
1.26295e-07
1.29721e-07
1.33157e-07
1.36597e-07
1.40038e-07
1.43473e-07
1.46897e-07
1.50303e-07
1.53685e-07
1.57033e-07
1.60341e-07
1.636e-07
1.668e-07
1.69932e-07
1.72986e-07
1.75952e-07
1.78817e-07
1.81572e-07
1.84205e-07
1.86702e-07
1.89053e-07
1.91244e-07
1.93264e-07
1.95099e-07
1.96737e-07
1.98166e-07
1.99373e-07
2.00347e-07
2.01078e-07
2.01551e-07
2.01757e-07
2.01698e-07
2.0136e-07
2.00734e-07
1.99817e-07
1.98602e-07
1.97089e-07
1.95276e-07
1.93165e-07
1.90758e-07
1.88061e-07
1.85079e-07
1.81822e-07
1.783e-07
1.74524e-07
1.70509e-07
1.66271e-07
1.61825e-07
1.57192e-07
1.52389e-07
1.47438e-07
1.42361e-07
1.37178e-07
1.31913e-07
1.26589e-07
1.21226e-07
1.15848e-07
1.10476e-07
1.05131e-07
9.98324e-08
9.45988e-08
8.94476e-08
8.43949e-08
7.9455e-08
7.4641e-08
6.99639e-08
6.54334e-08
6.10572e-08
5.68418e-08
5.27915e-08
4.89096e-08
4.51977e-08
4.1656e-08
3.82836e-08
3.50781e-08
3.20362e-08
2.91539e-08
2.64264e-08
2.38481e-08
2.14131e-08
1.91154e-08
1.69485e-08
1.49064e-08
1.29831e-08
1.11733e-08
9.47271e-09
7.87793e-09
6.38745e-09
5.00204e-09
3.72591e-09
2.56852e-09
1.5487e-09
7.06161e-10
1.41234e-10
1.53482e-09
1.32054e-08
2.98369e-08
4.96337e-08
7.17588e-08
9.56913e-08
1.21054e-07
1.4755e-07
1.74938e-07
2.03013e-07
2.31604e-07
2.60563e-07
2.89768e-07
3.19117e-07
3.48524e-07
3.77924e-07
4.07265e-07
4.36508e-07
4.6563e-07
4.94618e-07
5.23469e-07
5.5219e-07
5.80797e-07
6.09308e-07
6.37751e-07
6.66154e-07
6.9455e-07
7.2297e-07
7.51447e-07
7.80013e-07
8.08696e-07
8.37524e-07
8.66518e-07
8.95697e-07
9.25074e-07
9.54659e-07
9.84454e-07
1.01446e-06
1.04466e-06
1.07506e-06
1.10562e-06
1.13634e-06
1.16717e-06
1.19808e-06
1.22904e-06
1.26001e-06
1.29092e-06
1.32173e-06
1.35239e-06
1.38282e-06
1.41295e-06
1.44272e-06
1.47205e-06
1.50086e-06
1.52905e-06
1.55654e-06
1.58323e-06
1.60903e-06
1.63383e-06
1.65753e-06
1.68002e-06
1.70118e-06
1.72091e-06
1.7391e-06
1.75563e-06
1.77038e-06
1.78325e-06
1.79413e-06
1.80289e-06
1.80944e-06
1.81367e-06
1.81549e-06
1.81494e-06
1.81186e-06
1.80621e-06
1.79792e-06
1.78696e-06
1.77332e-06
1.75698e-06
1.73795e-06
1.71627e-06
1.69197e-06
1.66512e-06
1.63579e-06
1.60408e-06
1.57008e-06
1.53394e-06
1.49579e-06
1.45578e-06
1.41407e-06
1.37085e-06
1.3263e-06
1.28061e-06
1.23397e-06
1.1866e-06
1.13869e-06
1.09045e-06
1.04206e-06
9.9373e-07
9.45641e-07
8.97971e-07
8.50887e-07
8.04546e-07
7.59092e-07
7.14654e-07
6.71347e-07
6.29274e-07
5.88518e-07
5.49153e-07
5.11233e-07
4.74799e-07
4.3988e-07
4.0649e-07
3.74628e-07
3.44288e-07
3.15449e-07
2.88084e-07
2.62156e-07
2.3762e-07
2.14428e-07
1.92526e-07
1.71859e-07
1.52369e-07
1.34001e-07
1.16702e-07
1.00423e-07
8.51254e-08
7.07781e-08
5.73667e-08
4.48974e-08
3.34059e-08
2.29733e-08
1.37576e-08
6.07631e-09
7.05867e-10
3.3671e-09
2.99085e-08
6.81517e-08
1.13848e-07
1.64977e-07
2.20295e-07
2.78916e-07
3.40153e-07
4.03442e-07
4.68313e-07
5.34368e-07
6.0127e-07
6.68735e-07
7.36526e-07
8.04449e-07
8.7235e-07
9.40109e-07
1.00764e-06
1.07489e-06
1.14183e-06
1.20845e-06
1.27477e-06
1.34082e-06
1.40666e-06
1.47234e-06
1.53793e-06
1.6035e-06
1.66914e-06
1.73492e-06
1.8009e-06
1.86717e-06
1.93377e-06
2.00076e-06
2.06818e-06
2.13607e-06
2.20444e-06
2.2733e-06
2.34265e-06
2.41247e-06
2.48272e-06
2.55337e-06
2.62437e-06
2.69563e-06
2.76709e-06
2.83865e-06
2.91021e-06
2.98166e-06
3.05286e-06
3.12369e-06
3.19399e-06
3.26361e-06
3.33238e-06
3.40011e-06
3.46661e-06
3.53169e-06
3.59514e-06
3.65673e-06
3.71624e-06
3.77343e-06
3.82806e-06
3.87988e-06
3.92863e-06
3.97406e-06
4.0159e-06
4.0539e-06
4.08779e-06
4.11732e-06
4.14223e-06
4.16229e-06
4.17725e-06
4.18683e-06
4.19084e-06
4.18939e-06
4.18213e-06
4.1689e-06
4.14958e-06
4.12411e-06
4.09243e-06
4.05453e-06
4.01044e-06
3.96022e-06
3.90398e-06
3.84184e-06
3.77399e-06
3.70065e-06
3.62206e-06
3.53851e-06
3.45034e-06
3.35788e-06
3.26154e-06
3.1617e-06
3.0588e-06
2.95328e-06
2.84561e-06
2.73624e-06
2.62564e-06
2.51428e-06
2.4026e-06
2.29107e-06
2.1801e-06
2.07011e-06
1.96148e-06
1.85457e-06
1.74972e-06
1.64721e-06
1.54733e-06
1.4503e-06
1.35631e-06
1.26553e-06
1.1781e-06
1.09409e-06
1.01358e-06
9.36607e-07
8.63162e-07
7.93227e-07
7.26758e-07
6.63688e-07
6.03929e-07
5.47382e-07
4.93932e-07
4.43455e-07
3.95822e-07
3.50903e-07
3.08569e-07
2.68696e-07
2.31173e-07
1.95907e-07
1.62829e-07
1.31905e-07
1.03149e-07
7.66466e-08
5.25902e-08
3.13618e-08
1.37348e-08
1.5454e-09
5.58692e-09
4.99671e-08
1.14337e-07
1.9154e-07
2.78075e-07
3.71775e-07
4.71105e-07
5.74875e-07
6.82123e-07
7.92048e-07
9.03971e-07
1.01732e-06
1.13162e-06
1.24645e-06
1.3615e-06
1.47651e-06
1.59127e-06
1.70563e-06
1.81951e-06
1.93286e-06
2.04567e-06
2.15797e-06
2.26983e-06
2.38132e-06
2.49255e-06
2.60364e-06
2.71472e-06
2.82591e-06
2.93734e-06
3.04914e-06
3.16143e-06
3.2743e-06
3.38785e-06
3.50214e-06
3.61723e-06
3.73315e-06
3.8499e-06
3.96749e-06
4.08588e-06
4.20501e-06
4.32481e-06
4.44518e-06
4.566e-06
4.68715e-06
4.80846e-06
4.92975e-06
5.05083e-06
5.17148e-06
5.29147e-06
5.41054e-06
5.52843e-06
5.64484e-06
5.75947e-06
5.87199e-06
5.98207e-06
6.08935e-06
6.19345e-06
6.29398e-06
6.39056e-06
6.48277e-06
6.57018e-06
6.65237e-06
6.72891e-06
6.79935e-06
6.86325e-06
6.92019e-06
6.96972e-06
7.01144e-06
7.04493e-06
7.06979e-06
7.0855e-06
7.09178e-06
7.08889e-06
7.07613e-06
7.05328e-06
7.02013e-06
6.97656e-06
6.9225e-06
6.85793e-06
6.7829e-06
6.6975e-06
6.60192e-06
6.49639e-06
6.38122e-06
6.25676e-06
6.12344e-06
5.98177e-06
5.83228e-06
5.67557e-06
5.5123e-06
5.34315e-06
5.16884e-06
4.99014e-06
4.80782e-06
4.62265e-06
4.43544e-06
4.24696e-06
4.05799e-06
3.86928e-06
3.68157e-06
3.49553e-06
3.31183e-06
3.13107e-06
2.95381e-06
2.78055e-06
2.61174e-06
2.44777e-06
2.28898e-06
2.13563e-06
1.98793e-06
1.84606e-06
1.71011e-06
1.58013e-06
1.45613e-06
1.33808e-06
1.22588e-06
1.11942e-06
1.01857e-06
9.23137e-07
8.32935e-07
7.47755e-07
6.67376e-07
5.91576e-07
5.20136e-07
4.52847e-07
3.89522e-07
3.30003e-07
2.74173e-07
2.21977e-07
1.73443e-07
1.28723e-07
8.81594e-08
5.2426e-08
2.28635e-08
2.55491e-09
8.1088e-09
7.26988e-08
1.66731e-07
2.79828e-07
4.06817e-07
5.44458e-07
6.90445e-07
8.43001e-07
1.00069e-06
1.16232e-06
1.32688e-06
1.49354e-06
1.66158e-06
1.8304e-06
1.99952e-06
2.16857e-06
2.33724e-06
2.50532e-06
2.67269e-06
2.83927e-06
3.00506e-06
3.1701e-06
3.33449e-06
3.49836e-06
3.66186e-06
3.82516e-06
3.98847e-06
4.15196e-06
4.31583e-06
4.48027e-06
4.64544e-06
4.8115e-06
4.97856e-06
5.14674e-06
5.31611e-06
5.4867e-06
5.65853e-06
5.83159e-06
6.00581e-06
6.18111e-06
6.35739e-06
6.53448e-06
6.71221e-06
6.89038e-06
7.06874e-06
7.24704e-06
7.42497e-06
7.60221e-06
7.77842e-06
7.95323e-06
8.12622e-06
8.29698e-06
8.46504e-06
8.62995e-06
8.79118e-06
8.94823e-06
9.10054e-06
9.24756e-06
9.3887e-06
9.52336e-06
9.65092e-06
9.77077e-06
9.88227e-06
9.98479e-06
1.00777e-05
1.01603e-05
1.02321e-05
1.02924e-05
1.03406e-05
1.03762e-05
1.03982e-05
1.04065e-05
1.04014e-05
1.03818e-05
1.03474e-05
1.02979e-05
1.02332e-05
1.01531e-05
1.00576e-05
9.94673e-06
9.82072e-06
9.67979e-06
9.52429e-06
9.35466e-06
9.17143e-06
8.97524e-06
8.76681e-06
8.54693e-06
8.3165e-06
8.07647e-06
7.82785e-06
7.57171e-06
7.30915e-06
7.04132e-06
6.76938e-06
6.49448e-06
6.21777e-06
5.94041e-06
5.66348e-06
5.38807e-06
5.11519e-06
4.84578e-06
4.58075e-06
4.32091e-06
4.067e-06
3.81966e-06
3.57946e-06
3.34689e-06
3.12235e-06
2.90613e-06
2.69848e-06
2.49953e-06
2.30935e-06
2.12796e-06
1.95528e-06
1.79119e-06
1.63553e-06
1.48806e-06
1.34854e-06
1.21668e-06
1.09216e-06
9.74661e-07
8.63859e-07
7.5943e-07
6.61067e-07
5.68496e-07
4.81486e-07
3.99869e-07
3.2357e-07
2.52638e-07
1.87309e-07
1.28107e-07
7.60408e-08
3.30866e-08
3.68823e-09
1.08919e-08
9.77615e-08
2.24508e-07
3.77256e-07
5.4902e-07
7.35375e-07
9.33151e-07
1.1399e-06
1.35366e-06
1.57277e-06
1.79588e-06
2.02183e-06
2.24963e-06
2.4785e-06
2.70776e-06
2.9369e-06
3.16552e-06
3.39334e-06
3.62018e-06
3.84594e-06
4.07064e-06
4.29433e-06
4.51715e-06
4.73927e-06
4.96091e-06
5.18232e-06
5.40374e-06
5.62546e-06
5.84771e-06
6.07077e-06
6.29484e-06
6.52013e-06
6.74682e-06
6.97502e-06
7.20484e-06
7.43632e-06
7.66946e-06
7.90424e-06
8.14057e-06
8.37833e-06
8.61734e-06
8.85739e-06
9.09824e-06
9.33959e-06
9.58111e-06
9.82243e-06
1.00631e-05
1.03028e-05
1.0541e-05
1.07771e-05
1.10106e-05
1.12409e-05
1.14675e-05
1.16897e-05
1.19068e-05
1.21181e-05
1.23229e-05
1.25204e-05
1.27098e-05
1.28904e-05
1.30614e-05
1.32218e-05
1.33709e-05
1.35078e-05
1.36317e-05
1.37418e-05
1.38371e-05
1.39169e-05
1.39805e-05
1.4027e-05
1.4055e-05
1.40648e-05
1.40566e-05
1.40288e-05
1.3981e-05
1.39129e-05
1.38243e-05
1.37149e-05
1.35848e-05
1.3434e-05
1.32627e-05
1.30713e-05
1.28603e-05
1.26302e-05
1.23818e-05
1.21158e-05
1.18334e-05
1.15355e-05
1.12234e-05
1.08983e-05
1.05616e-05
1.02149e-05
9.85946e-06
9.49698e-06
9.12899e-06
8.75706e-06
8.38278e-06
8.00767e-06
7.63325e-06
7.26096e-06
6.89217e-06
6.52819e-06
6.1702e-06
5.81932e-06
5.47654e-06
5.14273e-06
4.81865e-06
4.50496e-06
4.20216e-06
3.91068e-06
3.63081e-06
3.36275e-06
3.10657e-06
2.86227e-06
2.62975e-06
2.40885e-06
2.19933e-06
2.00086e-06
1.81311e-06
1.63568e-06
1.46815e-06
1.31007e-06
1.16101e-06
1.02051e-06
8.88182e-07
7.63641e-07
6.46581e-07
5.36784e-07
4.34154e-07
3.3877e-07
2.50968e-07
1.7147e-07
1.01655e-07
4.41729e-08
4.91841e-09
1.3915e-08
1.24973e-07
2.87233e-07
4.83059e-07
7.03521e-07
9.4292e-07
1.19715e-06
1.46302e-06
1.73797e-06
2.01987e-06
2.30694e-06
2.59766e-06
2.89078e-06
3.18525e-06
3.48023e-06
3.77504e-06
4.06917e-06
4.36225e-06
4.65406e-06
4.94449e-06
5.23354e-06
5.52131e-06
5.80796e-06
6.09373e-06
6.3789e-06
6.6638e-06
6.94875e-06
7.2341e-06
7.52018e-06
7.8073e-06
8.09576e-06
8.3858e-06
8.67762e-06
8.97139e-06
9.26721e-06
9.56513e-06
9.86514e-06
1.01672e-05
1.04711e-05
1.07768e-05
1.10839e-05
1.13923e-05
1.17015e-05
1.20112e-05
1.23209e-05
1.26302e-05
1.29384e-05
1.32452e-05
1.35497e-05
1.38514e-05
1.41496e-05
1.44435e-05
1.47323e-05
1.50153e-05
1.52915e-05
1.55601e-05
1.58202e-05
1.60709e-05
1.63111e-05
1.65398e-05
1.67561e-05
1.69589e-05
1.71471e-05
1.73197e-05
1.74757e-05
1.76139e-05
1.77333e-05
1.78329e-05
1.79118e-05
1.79691e-05
1.80025e-05
1.8013e-05
1.80005e-05
1.79631e-05
1.79002e-05
1.78114e-05
1.76964e-05
1.75549e-05
1.7387e-05
1.71927e-05
1.69723e-05
1.67262e-05
1.6455e-05
1.61594e-05
1.58403e-05
1.54989e-05
1.51364e-05
1.4754e-05
1.43535e-05
1.39364e-05
1.35044e-05
1.30595e-05
1.26036e-05
1.21387e-05
1.16668e-05
1.11899e-05
1.071e-05
1.02292e-05
9.7493e-06
9.27227e-06
8.79983e-06
8.33367e-06
7.87531e-06
7.42618e-06
6.98754e-06
6.56052e-06
6.14607e-06
5.74503e-06
5.35805e-06
4.98565e-06
4.6282e-06
4.28592e-06
3.95891e-06
3.64716e-06
3.35052e-06
3.06877e-06
2.80157e-06
2.54854e-06
2.3092e-06
2.08304e-06
1.86952e-06
1.66806e-06
1.4781e-06
1.29906e-06
1.13043e-06
9.71728e-07
8.22564e-07
6.82666e-07
5.51921e-07
4.30445e-07
3.18683e-07
2.17574e-07
1.28881e-07
5.59569e-08
6.22664e-09
1.71675e-08
1.54242e-07
3.54692e-07
5.96856e-07
8.69736e-07
1.16628e-06
1.48137e-06
1.81103e-06
2.15205e-06
2.50175e-06
2.85791e-06
3.21863e-06
3.58235e-06
3.94774e-06
4.31376e-06
4.67955e-06
5.04447e-06
5.40809e-06
5.77011e-06
6.1304e-06
6.48897e-06
6.84595e-06
7.20154e-06
7.55605e-06
7.90984e-06
8.26329e-06
8.61683e-06
8.97088e-06
9.32584e-06
9.68209e-06
1.004e-05
1.03998e-05
1.07618e-05
1.11262e-05
1.1493e-05
1.18623e-05
1.22341e-05
1.26082e-05
1.29845e-05
1.33627e-05
1.37425e-05
1.41236e-05
1.45054e-05
1.48876e-05
1.52695e-05
1.56504e-05
1.60299e-05
1.6407e-05
1.67812e-05
1.71514e-05
1.7517e-05
1.7877e-05
1.82304e-05
1.85763e-05
1.89136e-05
1.92413e-05
1.95582e-05
1.98633e-05
2.01554e-05
2.04332e-05
2.06956e-05
2.09413e-05
2.1169e-05
2.13776e-05
2.15656e-05
2.17319e-05
2.18752e-05
2.19943e-05
2.2088e-05
2.21551e-05
2.21928e-05
2.22031e-05
2.21851e-05
2.21366e-05
2.20569e-05
2.19454e-05
2.18019e-05
2.16259e-05
2.14176e-05
2.11768e-05
2.09041e-05
2.05997e-05
2.02646e-05
1.98994e-05
1.95054e-05
1.90838e-05
1.86362e-05
1.81643e-05
1.76698e-05
1.7155e-05
1.66219e-05
1.60728e-05
1.55101e-05
1.49363e-05
1.43538e-05
1.37653e-05
1.31732e-05
1.25799e-05
1.19879e-05
1.13995e-05
1.08168e-05
1.0242e-05
9.67698e-06
9.12345e-06
8.583e-06
8.05701e-06
7.54667e-06
7.05299e-06
6.57678e-06
6.11866e-06
5.67907e-06
5.25828e-06
4.8564e-06
4.47338e-06
4.10904e-06
3.76307e-06
3.43506e-06
3.12451e-06
2.83081e-06
2.55334e-06
2.2914e-06
2.04429e-06
1.81129e-06
1.5917e-06
1.38488e-06
1.19025e-06
1.00732e-06
8.35771e-07
6.75477e-07
5.26594e-07
3.89681e-07
2.65901e-07
1.57417e-07
6.83097e-08
7.5984e-09
2.06453e-08
1.85534e-07
4.26805e-07
7.18503e-07
1.04744e-06
1.40512e-06
1.78537e-06
2.18337e-06
2.5952e-06
3.01762e-06
3.44789e-06
3.88373e-06
4.3232e-06
4.76471e-06
5.20696e-06
5.64892e-06
6.08981e-06
6.52908e-06
6.96639e-06
7.40158e-06
7.83466e-06
8.26579e-06
8.69523e-06
9.12335e-06
9.55057e-06
9.97738e-06
1.04043e-05
1.08318e-05
1.12603e-05
1.16904e-05
1.21224e-05
1.25566e-05
1.29933e-05
1.34327e-05
1.38749e-05
1.43199e-05
1.47676e-05
1.52179e-05
1.56704e-05
1.6125e-05
1.65811e-05
1.70382e-05
1.74959e-05
1.79535e-05
1.84103e-05
1.88655e-05
1.93184e-05
1.97681e-05
2.02136e-05
2.0654e-05
2.10884e-05
2.15156e-05
2.19345e-05
2.2344e-05
2.27428e-05
2.31299e-05
2.35038e-05
2.38633e-05
2.42071e-05
2.45336e-05
2.48417e-05
2.51297e-05
2.53963e-05
2.564e-05
2.58592e-05
2.60527e-05
2.62188e-05
2.63562e-05
2.64635e-05
2.65393e-05
2.65798e-05
2.65888e-05
2.65638e-05
2.65026e-05
2.64043e-05
2.62684e-05
2.60944e-05
2.58819e-05
2.56309e-05
2.53414e-05
2.50137e-05
2.46485e-05
2.42464e-05
2.38087e-05
2.33364e-05
2.28313e-05
2.22949e-05
2.17295e-05
2.11371e-05
2.05203e-05
1.98815e-05
1.92236e-05
1.85493e-05
1.78616e-05
1.71636e-05
1.64583e-05
1.57486e-05
1.50375e-05
1.4328e-05
1.36229e-05
1.29247e-05
1.2236e-05
1.1559e-05
1.0896e-05
1.02488e-05
9.61898e-06
9.0081e-06
8.41731e-06
7.8476e-06
7.2997e-06
6.77412e-06
6.27119e-06
5.79101e-06
5.33351e-06
4.89846e-06
4.48546e-06
4.09401e-06
3.72348e-06
3.37315e-06
3.04223e-06
2.72989e-06
2.43526e-06
2.15748e-06
1.89571e-06
1.64917e-06
1.41717e-06
1.19914e-06
9.94703e-07
8.03709e-07
6.26362e-07
4.6334e-07
3.16037e-07
1.87022e-07
8.1127e-08
9.022e-09
2.43487e-08
2.18851e-07
5.03581e-07
8.48013e-07
1.23664e-06
1.65945e-06
2.10915e-06
2.58001e-06
3.06739e-06
3.56741e-06
4.07681e-06
4.59286e-06
5.11324e-06
5.63603e-06
6.15968e-06
6.68295e-06
7.2049e-06
7.72488e-06
8.24246e-06
8.75747e-06
9.26992e-06
9.77999e-06
1.0288e-05
1.07944e-05
1.12996e-05
1.18043e-05
1.2309e-05
1.28143e-05
1.33208e-05
1.38289e-05
1.43392e-05
1.48518e-05
1.53673e-05
1.58856e-05
1.64068e-05
1.69311e-05
1.74581e-05
1.79877e-05
1.85195e-05
1.90531e-05
1.9588e-05
2.01235e-05
2.06591e-05
2.11938e-05
2.1727e-05
2.22577e-05
2.2785e-05
2.33078e-05
2.38252e-05
2.43359e-05
2.48389e-05
2.5333e-05
2.58168e-05
2.62892e-05
2.67487e-05
2.7194e-05
2.76236e-05
2.80362e-05
2.84301e-05
2.88039e-05
2.91559e-05
2.94845e-05
2.97882e-05
3.00652e-05
3.0314e-05
3.05328e-05
3.07199e-05
3.08739e-05
3.09929e-05
3.10755e-05
3.11168e-05
3.1123e-05
3.10893e-05
3.10136e-05
3.08952e-05
3.07331e-05
3.05269e-05
3.02761e-05
2.99807e-05
2.96406e-05
2.92563e-05
2.88283e-05
2.83575e-05
2.78451e-05
2.72926e-05
2.67017e-05
2.60744e-05
2.5413e-05
2.47202e-05
2.39986e-05
2.32514e-05
2.24816e-05
2.16926e-05
2.08878e-05
2.00708e-05
1.9245e-05
1.84141e-05
1.75815e-05
1.67505e-05
1.59246e-05
1.51069e-05
1.43002e-05
1.35073e-05
1.27307e-05
1.19727e-05
1.12352e-05
1.052e-05
9.82844e-06
9.16168e-06
8.52059e-06
7.9058e-06
7.31765e-06
6.75628e-06
6.22158e-06
5.71327e-06
5.23087e-06
4.77377e-06
4.34121e-06
3.93233e-06
3.54619e-06
3.18179e-06
2.83811e-06
2.51413e-06
2.20886e-06
1.92137e-06
1.65086e-06
1.39666e-06
1.15833e-06
9.35711e-07
7.29054e-07
5.39155e-07
3.67641e-07
2.17496e-07
9.43229e-08
1.04879e-08
2.82809e-08
2.54224e-07
5.85088e-07
9.85503e-07
1.4375e-06
1.92949e-06
2.45297e-06
3.00128e-06
3.56899e-06
4.15156e-06
4.74517e-06
5.34657e-06
5.95305e-06
6.56233e-06
7.17257e-06
7.78229e-06
8.39039e-06
8.99608e-06
9.59886e-06
1.01985e-05
1.0795e-05
1.13887e-05
1.19798e-05
1.25688e-05
1.31564e-05
1.37432e-05
1.43298e-05
1.4917e-05
1.55052e-05
1.60952e-05
1.66873e-05
1.72819e-05
1.78792e-05
1.84796e-05
1.90828e-05
1.9689e-05
2.02978e-05
2.09089e-05
2.15219e-05
2.21362e-05
2.27512e-05
2.33662e-05
2.39803e-05
2.45927e-05
2.52024e-05
2.58083e-05
2.64095e-05
2.70047e-05
2.75928e-05
2.81725e-05
2.87426e-05
2.93017e-05
2.98485e-05
3.03816e-05
3.08994e-05
3.14005e-05
3.18832e-05
3.23461e-05
3.27875e-05
3.32056e-05
3.35988e-05
3.39653e-05
3.43032e-05
3.46108e-05
3.48862e-05
3.51276e-05
3.53332e-05
3.55011e-05
3.56296e-05
3.57161e-05
3.57562e-05
3.57577e-05
3.57133e-05
3.56213e-05
3.54808e-05
3.52909e-05
3.5051e-05
3.47607e-05
3.44196e-05
3.40279e-05
3.35859e-05
3.30942e-05
3.25538e-05
3.1966e-05
3.13324e-05
3.0655e-05
2.99359e-05
2.91779e-05
2.83837e-05
2.75565e-05
2.66997e-05
2.58169e-05
2.49119e-05
2.39885e-05
2.30508e-05
2.21028e-05
2.11486e-05
2.01921e-05
1.92375e-05
1.82883e-05
1.73483e-05
1.64208e-05
1.55092e-05
1.46162e-05
1.37444e-05
1.28963e-05
1.20737e-05
1.12785e-05
1.05118e-05
9.77473e-06
9.06803e-06
8.3921e-06
7.74709e-06
7.13289e-06
6.54915e-06
5.99532e-06
5.47068e-06
4.97434e-06
4.50529e-06
4.06243e-06
3.64459e-06
3.25059e-06
2.87924e-06
2.52937e-06
2.19993e-06
1.88997e-06
1.59873e-06
1.32572e-06
1.07075e-06
8.34107e-07
6.16716e-07
4.20438e-07
2.4868e-07
1.07827e-07
1.19882e-08
3.24473e-08
2.91699e-07
6.71437e-07
1.13116e-06
1.65031e-06
2.2156e-06
2.8173e-06
3.44776e-06
4.1007e-06
4.77088e-06
5.45385e-06
6.14586e-06
6.84372e-06
7.54476e-06
8.24682e-06
8.94817e-06
9.64749e-06
1.03439e-05
1.10367e-05
1.17257e-05
1.24109e-05
1.30925e-05
1.37709e-05
1.44467e-05
1.51206e-05
1.57934e-05
1.64656e-05
1.71381e-05
1.78115e-05
1.84864e-05
1.91633e-05
1.98425e-05
2.05244e-05
2.1209e-05
2.18963e-05
2.2586e-05
2.3278e-05
2.39717e-05
2.46667e-05
2.53621e-05
2.60573e-05
2.67515e-05
2.74436e-05
2.81326e-05
2.88175e-05
2.94971e-05
3.01702e-05
3.08355e-05
3.14918e-05
3.21378e-05
3.27719e-05
3.33929e-05
3.39993e-05
3.45894e-05
3.51618e-05
3.57148e-05
3.62469e-05
3.67562e-05
3.7241e-05
3.76995e-05
3.81298e-05
3.85301e-05
3.88984e-05
3.92328e-05
3.95312e-05
3.97916e-05
4.00121e-05
4.01907e-05
4.03255e-05
4.04126e-05
4.04495e-05
4.04436e-05
4.03862e-05
4.02758e-05
4.01116e-05
3.98925e-05
3.96177e-05
3.92868e-05
3.88994e-05
3.84556e-05
3.79558e-05
3.74006e-05
3.67909e-05
3.61282e-05
3.54143e-05
3.46511e-05
3.38412e-05
3.29874e-05
3.20928e-05
3.11609e-05
3.01955e-05
2.92004e-05
2.81799e-05
2.71383e-05
2.60801e-05
2.50099e-05
2.39321e-05
2.28515e-05
2.17723e-05
2.06989e-05
1.96355e-05
1.85859e-05
1.75538e-05
1.65425e-05
1.55551e-05
1.45942e-05
1.36622e-05
1.2761e-05
1.18922e-05
1.1057e-05
1.02562e-05
9.49031e-06
8.75959e-06
8.06391e-06
7.40286e-06
6.77584e-06
6.18201e-06
5.62036e-06
5.08972e-06
4.58884e-06
4.11639e-06
3.67097e-06
3.25124e-06
2.85587e-06
2.48364e-06
2.13347e-06
1.8045e-06
1.49616e-06
1.20824e-06
9.41077e-07
6.95698e-07
4.74208e-07
2.80442e-07
1.21585e-07
1.35168e-08
3.68542e-08
3.31338e-07
7.62767e-07
1.28522e-06
1.8754e-06
2.51826e-06
3.20275e-06
3.92017e-06
4.66337e-06
5.42636e-06
6.20402e-06
6.992e-06
7.78662e-06
8.5848e-06
9.38398e-06
1.01821e-05
1.09777e-05
1.17697e-05
1.25573e-05
1.33402e-05
1.41184e-05
1.48921e-05
1.56619e-05
1.64283e-05
1.71921e-05
1.79541e-05
1.87151e-05
1.94758e-05
2.0237e-05
2.09994e-05
2.17633e-05
2.25292e-05
2.32971e-05
2.40673e-05
2.48396e-05
2.56136e-05
2.6389e-05
2.71653e-05
2.79417e-05
2.87174e-05
2.94916e-05
3.02632e-05
3.10313e-05
3.17946e-05
3.25519e-05
3.33021e-05
3.40437e-05
3.47755e-05
3.54961e-05
3.6204e-05
3.68978e-05
3.7576e-05
3.82371e-05
3.88794e-05
3.95014e-05
4.01013e-05
4.06774e-05
4.12279e-05
4.1751e-05
4.22447e-05
4.27071e-05
4.31363e-05
4.353e-05
4.38863e-05
4.4203e-05
4.44781e-05
4.47093e-05
4.48945e-05
4.50317e-05
4.51156e-05
4.51471e-05
4.51308e-05
4.50579e-05
4.49271e-05
4.47374e-05
4.44878e-05
4.41774e-05
4.38055e-05
4.3372e-05
4.28766e-05
4.23199e-05
4.17023e-05
4.1025e-05
4.02894e-05
3.94973e-05
3.86509e-05
3.77528e-05
3.6806e-05
3.58139e-05
3.47802e-05
3.37089e-05
3.26042e-05
3.14709e-05
3.03135e-05
2.9137e-05
2.79464e-05
2.67468e-05
2.55431e-05
2.43403e-05
2.31433e-05
2.19567e-05
2.07848e-05
1.96319e-05
1.85016e-05
1.73976e-05
1.63228e-05
1.528e-05
1.42713e-05
1.32987e-05
1.23636e-05
1.14669e-05
1.06093e-05
9.79115e-06
9.01225e-06
8.27225e-06
7.57045e-06
6.90594e-06
6.27758e-06
5.68408e-06
5.124e-06
4.59584e-06
4.09804e-06
3.62905e-06
3.18737e-06
2.77163e-06
2.38061e-06
2.01332e-06
1.66912e-06
1.34777e-06
1.04963e-06
7.75857e-07
5.28787e-07
3.12687e-07
1.35553e-07
1.50689e-08
4.1509e-08
3.73205e-07
8.59232e-07
1.44794e-06
2.11317e-06
2.83799e-06
3.60998e-06
4.41935e-06
5.25802e-06
6.11916e-06
6.99696e-06
7.88644e-06
8.78333e-06
9.68408e-06
1.05857e-05
1.14859e-05
1.23828e-05
1.32751e-05
1.41621e-05
1.50432e-05
1.59185e-05
1.67883e-05
1.7653e-05
1.85133e-05
1.93701e-05
2.02242e-05
2.10765e-05
2.19277e-05
2.27788e-05
2.36302e-05
2.44825e-05
2.53359e-05
2.61907e-05
2.70467e-05
2.79038e-05
2.87616e-05
2.96195e-05
3.0477e-05
3.1333e-05
3.21869e-05
3.30374e-05
3.38836e-05
3.47241e-05
3.55579e-05
3.63835e-05
3.71997e-05
3.80051e-05
3.87982e-05
3.95777e-05
4.0342e-05
4.10896e-05
4.18191e-05
4.25288e-05
4.32171e-05
4.38823e-05
4.45227e-05
4.51366e-05
4.57219e-05
4.62769e-05
4.67996e-05
4.7288e-05
4.77399e-05
4.81532e-05
4.85257e-05
4.88553e-05
4.91396e-05
4.93765e-05
4.95637e-05
4.9699e-05
4.97755e-05
4.97991e-05
4.97691e-05
4.96782e-05
4.95251e-05
4.93086e-05
4.90276e-05
4.86812e-05
4.82688e-05
4.779e-05
4.72446e-05
4.66329e-05
4.59557e-05
4.52138e-05
4.44088e-05
4.35424e-05
4.2617e-05
4.16352e-05
4.06002e-05
3.95154e-05
3.83847e-05
3.72124e-05
3.6003e-05
3.47614e-05
3.34926e-05
3.22019e-05
3.08947e-05
2.95766e-05
2.82528e-05
2.6929e-05
2.56104e-05
2.43022e-05
2.30092e-05
2.17362e-05
2.04874e-05
1.92667e-05
1.80776e-05
1.69232e-05
1.58062e-05
1.47286e-05
1.36923e-05
1.26983e-05
1.17475e-05
1.08403e-05
9.97667e-06
9.15617e-06
8.37812e-06
7.64152e-06
6.94513e-06
6.28752e-06
5.66711e-06
5.08221e-06
4.53108e-06
4.012e-06
3.52328e-06
3.06337e-06
2.6309e-06
2.22477e-06
1.84424e-06
1.48903e-06
1.15954e-06
8.57026e-07
5.8406e-07
3.45347e-07
1.49703e-07
1.66413e-08
4.64196e-08
4.17371e-07
9.60994e-07
1.61961e-06
2.36401e-06
3.17533e-06
4.03971e-06
4.94617e-06
5.88567e-06
6.8505e-06
7.83406e-06
8.83067e-06
9.83546e-06
1.08443e-05
1.18538e-05
1.28611e-05
1.38643e-05
1.48617e-05
1.58524e-05
1.68359e-05
1.78121e-05
1.87813e-05
1.97441e-05
2.07012e-05
2.16534e-05
2.26018e-05
2.35473e-05
2.44906e-05
2.54326e-05
2.63739e-05
2.73149e-05
2.8256e-05
2.91971e-05
3.01381e-05
3.10788e-05
3.20186e-05
3.29568e-05
3.38928e-05
3.48254e-05
3.57538e-05
3.66767e-05
3.75929e-05
3.85012e-05
3.94002e-05
4.02886e-05
4.11649e-05
4.20278e-05
4.28758e-05
4.37074e-05
4.45212e-05
4.53157e-05
4.60892e-05
4.68401e-05
4.7567e-05
4.8268e-05
4.89414e-05
4.95854e-05
5.01981e-05
5.07777e-05
5.1322e-05
5.18291e-05
5.22967e-05
5.27228e-05
5.3105e-05
5.34411e-05
5.37289e-05
5.39659e-05
5.415e-05
5.42785e-05
5.43434e-05
5.43562e-05
5.43093e-05
5.4198e-05
5.40208e-05
5.37765e-05
5.34639e-05
5.30821e-05
5.26304e-05
5.21082e-05
5.15154e-05
5.08522e-05
5.01192e-05
4.93174e-05
4.84481e-05
4.75132e-05
4.65148e-05
4.54558e-05
4.43391e-05
4.31685e-05
4.19477e-05
4.06813e-05
3.93739e-05
3.80306e-05
3.66567e-05
3.52578e-05
3.38396e-05
3.2408e-05
3.09688e-05
2.9528e-05
2.80914e-05
2.66645e-05
2.52528e-05
2.38615e-05
2.24954e-05
2.11588e-05
1.98558e-05
1.85898e-05
1.7364e-05
1.61808e-05
1.50423e-05
1.39498e-05
1.29045e-05
1.19069e-05
1.0957e-05
1.00545e-05
9.19877e-06
8.38866e-06
7.62289e-06
6.89991e-06
6.218e-06
5.5753e-06
4.96989e-06
4.39986e-06
3.86335e-06
3.35861e-06
2.88412e-06
2.43865e-06
2.02134e-06
1.63189e-06
1.27069e-06
9.39114e-07
6.39966e-07
3.78385e-07
1.64019e-07
1.82323e-08
5.15936e-08
4.63906e-07
1.06821e-06
1.80048e-06
2.62833e-06
3.53084e-06
4.49263e-06
5.50152e-06
6.54738e-06
7.62159e-06
8.71669e-06
9.82621e-06
1.09446e-05
1.20671e-05
1.31898e-05
1.43094e-05
1.54236e-05
1.65306e-05
1.76292e-05
1.87188e-05
1.97994e-05
2.08711e-05
2.19346e-05
2.29907e-05
2.40403e-05
2.50845e-05
2.61241e-05
2.71602e-05
2.81934e-05
2.92244e-05
3.02536e-05
3.12811e-05
3.2307e-05
3.3331e-05
3.43527e-05
3.53715e-05
3.63866e-05
3.73971e-05
3.84019e-05
3.93999e-05
4.03897e-05
4.13703e-05
4.234e-05
4.32977e-05
4.42419e-05
4.51712e-05
4.60841e-05
4.69793e-05
4.78551e-05
4.87102e-05
4.95431e-05
5.03522e-05
5.1136e-05
5.18928e-05
5.26209e-05
5.33187e-05
5.39844e-05
5.4616e-05
5.52117e-05
5.57694e-05
5.62871e-05
5.67627e-05
5.71939e-05
5.75786e-05
5.79144e-05
5.81992e-05
5.84305e-05
5.86063e-05
5.87216e-05
5.87719e-05
5.87707e-05
5.8704e-05
5.85702e-05
5.83677e-05
5.80952e-05
5.77516e-05
5.73357e-05
5.68468e-05
5.62843e-05
5.56481e-05
5.49381e-05
5.41549e-05
5.32993e-05
5.23726e-05
5.13765e-05
5.03131e-05
4.9185e-05
4.79953e-05
4.67475e-05
4.54455e-05
4.40938e-05
4.26971e-05
4.12606e-05
3.97898e-05
3.82904e-05
3.67685e-05
3.52302e-05
3.36818e-05
3.21295e-05
3.05796e-05
2.90382e-05
2.75113e-05
2.60046e-05
2.45233e-05
2.30724e-05
2.16565e-05
2.02794e-05
1.89448e-05
1.76556e-05
1.64141e-05
1.52222e-05
1.40812e-05
1.29918e-05
1.19542e-05
1.09683e-05
1.00332e-05
9.14811e-06
8.31152e-06
7.52181e-06
6.77713e-06
6.07547e-06
5.41474e-06
4.79284e-06
4.20771e-06
3.65743e-06
3.14031e-06
2.65496e-06
2.20042e-06
1.77632e-06
1.38306e-06
1.02211e-06
6.96491e-07
4.11793e-07
1.78496e-07
1.98413e-08
5.70385e-08
5.12877e-07
1.18105e-06
1.99084e-06
2.90653e-06
3.90506e-06
4.96946e-06
6.08624e-06
7.24417e-06
8.43361e-06
9.64615e-06
1.08745e-05
1.21122e-05
1.3354e-05
1.45952e-05
1.58322e-05
1.70621e-05
1.82829e-05
1.94932e-05
2.06924e-05
2.18802e-05
2.30569e-05
2.42232e-05
2.53799e-05
2.6528e-05
2.76686e-05
2.88027e-05
2.99313e-05
3.1055e-05
3.21745e-05
3.329e-05
3.44019e-05
3.55098e-05
3.66136e-05
3.77126e-05
3.88061e-05
3.98933e-05
4.0973e-05
4.20441e-05
4.31054e-05
4.41556e-05
4.51933e-05
4.62171e-05
4.72256e-05
4.82175e-05
4.91912e-05
5.01455e-05
5.10788e-05
5.19897e-05
5.28769e-05
5.37388e-05
5.4574e-05
5.53809e-05
5.61581e-05
5.69038e-05
5.76164e-05
5.82942e-05
5.89353e-05
5.95379e-05
6.01e-05
6.06196e-05
6.10946e-05
6.15229e-05
6.19023e-05
6.22305e-05
6.25055e-05
6.27249e-05
6.28865e-05
6.29832e-05
6.30183e-05
6.29974e-05
6.29086e-05
6.27508e-05
6.25225e-05
6.22223e-05
6.18489e-05
6.14013e-05
6.08786e-05
6.02802e-05
5.96057e-05
5.88551e-05
5.80286e-05
5.7127e-05
5.61512e-05
5.5103e-05
5.39841e-05
5.2797e-05
5.15446e-05
5.02302e-05
4.88577e-05
4.74313e-05
4.59558e-05
4.44364e-05
4.28786e-05
4.12882e-05
3.96715e-05
3.80347e-05
3.63846e-05
3.47277e-05
3.30707e-05
3.14202e-05
2.97826e-05
2.81641e-05
2.65707e-05
2.50077e-05
2.34803e-05
2.19932e-05
2.05501e-05
1.91547e-05
1.78098e-05
1.65176e-05
1.52796e-05
1.4097e-05
1.29702e-05
1.18991e-05
1.08832e-05
9.92142e-06
9.01239e-06
8.15441e-06
7.34552e-06
6.58359e-06
5.86635e-06
5.19151e-06
4.55683e-06
3.96021e-06
3.39975e-06
2.87392e-06
2.38163e-06
1.92244e-06
1.49673e-06
1.10606e-06
7.53671e-07
4.4559e-07
1.93144e-07
2.14694e-08
6.27612e-08
5.64347e-07
1.29964e-06
2.19093e-06
3.19897e-06
4.29848e-06
5.47082e-06
6.70113e-06
7.97698e-06
9.28762e-06
1.06236e-05
1.19767e-05
1.33396e-05
1.47062e-05
1.60712e-05
1.74304e-05
1.87805e-05
2.0119e-05
2.14446e-05
2.27562e-05
2.40537e-05
2.53373e-05
2.66078e-05
2.78659e-05
2.91129e-05
3.03498e-05
3.15777e-05
3.27975e-05
3.40099e-05
3.52156e-05
3.64148e-05
3.76075e-05
3.87936e-05
3.99726e-05
4.11439e-05
4.23066e-05
4.34597e-05
4.46021e-05
4.57325e-05
4.68496e-05
4.79522e-05
4.90387e-05
5.01078e-05
5.11581e-05
5.21883e-05
5.31969e-05
5.41826e-05
5.5144e-05
5.60798e-05
5.69887e-05
5.78693e-05
5.87201e-05
5.95397e-05
6.03267e-05
6.10795e-05
6.17966e-05
6.24763e-05
6.31168e-05
6.37164e-05
6.42732e-05
6.47854e-05
6.5251e-05
6.56678e-05
6.6034e-05
6.63473e-05
6.66056e-05
6.68069e-05
6.69486e-05
6.70223e-05
6.70399e-05
6.69958e-05
6.6883e-05
6.67004e-05
6.64465e-05
6.61198e-05
6.57191e-05
6.52432e-05
6.46911e-05
6.40623e-05
6.3356e-05
6.25721e-05
6.17107e-05
6.07721e-05
5.97573e-05
5.86675e-05
5.75043e-05
5.62698e-05
5.49666e-05
5.35978e-05
5.2167e-05
5.06783e-05
4.91361e-05
4.75456e-05
4.59122e-05
4.42418e-05
4.25407e-05
4.08153e-05
3.90724e-05
3.73191e-05
3.55622e-05
3.38089e-05
3.20661e-05
3.03405e-05
2.86385e-05
2.69663e-05
2.53296e-05
2.37336e-05
2.21828e-05
2.06813e-05
1.92325e-05
1.7839e-05
1.65029e-05
1.52257e-05
1.40079e-05
1.28499e-05
1.17512e-05
1.07109e-05
9.72755e-06
8.79953e-06
7.92478e-06
7.10102e-06
6.32587e-06
5.59684e-06
4.91151e-06
4.26757e-06
3.66295e-06
3.09593e-06
2.56528e-06
2.07048e-06
1.61187e-06
1.19108e-06
8.11586e-07
4.79824e-07
2.07981e-07
2.31187e-08
6.8768e-08
6.1837e-07
1.42412e-06
2.40096e-06
3.50598e-06
4.71155e-06
5.99729e-06
7.34689e-06
8.74663e-06
1.01846e-05
1.16501e-05
1.3134e-05
1.46279e-05
1.61248e-05
1.76187e-05
1.91047e-05
2.05791e-05
2.20391e-05
2.34828e-05
2.49094e-05
2.63184e-05
2.77102e-05
2.90855e-05
3.04452e-05
3.17905e-05
3.31226e-05
3.44426e-05
3.57514e-05
3.70498e-05
3.83382e-05
3.9617e-05
4.08861e-05
4.21452e-05
4.33938e-05
4.46311e-05