/*--------------------------------*- C++ -*----------------------------------*\
  =========                 |
  \\      /  F ield         | OpenFOAM: The Open Source CFD Toolbox
   \\    /   O peration     | Website:  https://openfoam.org
    \\  /    A nd           | Version:  12
     \\/     M anipulation  |
\*---------------------------------------------------------------------------*/
FoamFile
{
    format      ascii;
    class       volScalarField;
    location    "3";
    object      nut;
}
// * * * * * * * * * * * * * * * * * * * * * * * * * * * * * * * * * * * * * //

dimensions      [0 2 -1 0 0 0 0];

internalField   nonuniform List<scalar> 
18225
(
7.54166e-15
3.76882e-14
8.24777e-14
1.36259e-13
1.96512e-13
2.61749e-13
3.30915e-13
4.03193e-13
4.77916e-13
5.54525e-13
6.32551e-13
7.11593e-13
7.91314e-13
8.71433e-13
9.51719e-13
1.03199e-12
1.1121e-12
1.19195e-12
1.27148e-12
1.35064e-12
1.42943e-12
1.50788e-12
1.58601e-12
1.66388e-12
1.74157e-12
1.81915e-12
1.89671e-12
1.97434e-12
2.05213e-12
2.13016e-12
2.20851e-12
2.28725e-12
2.36645e-12
2.44615e-12
2.52639e-12
2.6072e-12
2.68858e-12
2.77053e-12
2.85303e-12
2.93605e-12
3.01952e-12
3.1034e-12
3.18761e-12
3.27204e-12
3.35659e-12
3.44114e-12
3.52557e-12
3.60971e-12
3.69342e-12
3.77651e-12
3.8588e-12
3.94009e-12
4.02017e-12
4.09881e-12
4.17578e-12
4.25084e-12
4.32371e-12
4.39414e-12
4.46184e-12
4.52652e-12
4.5879e-12
4.64566e-12
4.69952e-12
4.74914e-12
4.79424e-12
4.83449e-12
4.8696e-12
4.89926e-12
4.92321e-12
4.94116e-12
4.95278e-12
4.95785e-12
4.95639e-12
4.94807e-12
4.93271e-12
4.91015e-12
4.88031e-12
4.84312e-12
4.79857e-12
4.74669e-12
4.68754e-12
4.62126e-12
4.54799e-12
4.46795e-12
4.38139e-12
4.2886e-12
4.18994e-12
4.08578e-12
3.97654e-12
3.86267e-12
3.74465e-12
3.62299e-12
3.49821e-12
3.37086e-12
3.24148e-12
3.11063e-12
2.97886e-12
2.84671e-12
2.7147e-12
2.58335e-12
2.45314e-12
2.32453e-12
2.19795e-12
2.07379e-12
1.9524e-12
1.8341e-12
1.71917e-12
1.60784e-12
1.50031e-12
1.39672e-12
1.2972e-12
1.20181e-12
1.11059e-12
1.02357e-12
9.40699e-13
8.61931e-13
7.87185e-13
7.1636e-13
6.49338e-13
5.85984e-13
5.26152e-13
4.69692e-13
4.16448e-13
3.66269e-13
3.19011e-13
2.74543e-13
2.32756e-13
1.9357e-13
1.56947e-13
1.22906e-13
9.15499e-14
6.31114e-14
3.80532e-14
1.73511e-14
3.47027e-15
3.77108e-14
3.42033e-12
1.16142e-11
2.14587e-11
3.22107e-11
4.36821e-11
5.57458e-11
6.82904e-11
8.12174e-11
9.44401e-11
1.07883e-10
1.2148e-10
1.35177e-10
1.48927e-10
1.62694e-10
1.76446e-10
1.9016e-10
2.0382e-10
2.17415e-10
2.30939e-10
2.44393e-10
2.5778e-10
2.71108e-10
2.84386e-10
2.97627e-10
3.10845e-10
3.24057e-10
3.37276e-10
3.50519e-10
3.63801e-10
3.77136e-10
3.90537e-10
4.04013e-10
4.17575e-10
4.31228e-10
4.44977e-10
4.58824e-10
4.72769e-10
4.86807e-10
5.00935e-10
5.15142e-10
5.2942e-10
5.43754e-10
5.5813e-10
5.7253e-10
5.86934e-10
6.01319e-10
6.15661e-10
6.29933e-10
6.44106e-10
6.58148e-10
6.72027e-10
6.85707e-10
6.9915e-10
7.12316e-10
7.25164e-10
7.37649e-10
7.49726e-10
7.61348e-10
7.72466e-10
7.83029e-10
7.92986e-10
8.02285e-10
8.10872e-10
8.18694e-10
8.25698e-10
8.3183e-10
8.37036e-10
8.41252e-10
8.44432e-10
8.46529e-10
8.47496e-10
8.47361e-10
8.46051e-10
8.43532e-10
8.39779e-10
8.34774e-10
8.28506e-10
8.20972e-10
8.12175e-10
8.02127e-10
7.90846e-10
7.78359e-10
7.64702e-10
7.49918e-10
7.34057e-10
7.17178e-10
6.99347e-10
6.80635e-10
6.61121e-10
6.40888e-10
6.20023e-10
5.98618e-10
5.76766e-10
5.54563e-10
5.32106e-10
5.09488e-10
4.86805e-10
4.64147e-10
4.41605e-10
4.19261e-10
3.97195e-10
3.75481e-10
3.54187e-10
3.33375e-10
3.13098e-10
2.93404e-10
2.74333e-10
2.55918e-10
2.38186e-10
2.21155e-10
2.04837e-10
1.89239e-10
1.74359e-10
1.60193e-10
1.46733e-10
1.33965e-10
1.21871e-10
1.1043e-10
9.96175e-11
8.94083e-11
7.9775e-11
7.069e-11
6.2126e-11
5.40566e-11
4.64576e-11
3.93077e-11
3.25895e-11
2.62911e-11
2.04073e-11
1.49409e-11
9.90545e-12
5.3472e-12
1.57359e-12
1.73439e-14
8.27303e-14
1.16277e-11
5.90002e-11
1.32981e-10
2.18998e-10
3.11201e-10
4.07498e-10
5.06867e-10
6.08599e-10
7.12108e-10
8.16883e-10
9.2248e-10
1.02852e-09
1.13468e-09
1.24069e-09
1.34635e-09
1.4515e-09
1.55603e-09
1.65987e-09
1.763e-09
1.86543e-09
1.96721e-09
2.06839e-09
2.16908e-09
2.26938e-09
2.36941e-09
2.46929e-09
2.56916e-09
2.66915e-09
2.76937e-09
2.86994e-09
2.97096e-09
3.07252e-09
3.1747e-09
3.27755e-09
3.3811e-09
3.48539e-09
3.5904e-09
3.69613e-09
3.80253e-09
3.90955e-09
4.01711e-09
4.12513e-09
4.23349e-09
4.34206e-09
4.45071e-09
4.55927e-09
4.66756e-09
4.77538e-09
4.88254e-09
4.98879e-09
5.0939e-09
5.1976e-09
5.29962e-09
5.39966e-09
5.4974e-09
5.59254e-09
5.68471e-09
5.77358e-09
5.85876e-09
5.93988e-09
6.01654e-09
6.08835e-09
6.15489e-09
6.21576e-09
6.27054e-09
6.31881e-09
6.36016e-09
6.39415e-09
6.42042e-09
6.43855e-09
6.44793e-09
6.44914e-09
6.44138e-09
6.42437e-09
6.3979e-09
6.36182e-09
6.31601e-09
6.26042e-09
6.19505e-09
6.11998e-09
6.03533e-09
5.94129e-09
5.83811e-09
5.72612e-09
5.6057e-09
5.47729e-09
5.3414e-09
5.19858e-09
5.04944e-09
4.89463e-09
4.73483e-09
4.57076e-09
4.40315e-09
4.23277e-09
4.06036e-09
3.88668e-09
3.71246e-09
3.53844e-09
3.36532e-09
3.19374e-09
3.02435e-09
2.85771e-09
2.69436e-09
2.53478e-09
2.37939e-09
2.22856e-09
2.08259e-09
1.94174e-09
1.8062e-09
1.67612e-09
1.55157e-09
1.43261e-09
1.31921e-09
1.21134e-09
1.1089e-09
1.01179e-09
9.19836e-10
8.32878e-10
7.50712e-10
6.73126e-10
5.99895e-10
5.30787e-10
4.65569e-10
4.04014e-10
3.45902e-10
2.91028e-10
2.39208e-10
1.90291e-10
1.44185e-10
1.00948e-10
6.11484e-11
2.71205e-11
5.34404e-12
3.79721e-14
1.37272e-13
2.15537e-11
1.3319e-10
3.54402e-10
6.49177e-10
9.83514e-10
1.33909e-09
1.707e-09
2.08256e-09
2.46289e-09
2.84593e-09
3.23006e-09
3.614e-09
3.99669e-09
4.37731e-09
4.7552e-09
5.12991e-09
5.50115e-09
5.86878e-09
6.23279e-09
6.59333e-09
6.95061e-09
7.30496e-09
7.65677e-09
8.00651e-09
8.35465e-09
8.7017e-09
9.04818e-09
9.39458e-09
9.7414e-09
1.00891e-08
1.0438e-08
1.07885e-08
1.1141e-08
1.14956e-08
1.18525e-08
1.22118e-08
1.25735e-08
1.29377e-08
1.33042e-08
1.36728e-08
1.40434e-08
1.44157e-08
1.47893e-08
1.51638e-08
1.55388e-08
1.59138e-08
1.62881e-08
1.66612e-08
1.70324e-08
1.74009e-08
1.77659e-08
1.81265e-08
1.84819e-08
1.8831e-08
1.91728e-08
1.95063e-08
1.98301e-08
2.01431e-08
2.04441e-08
2.07316e-08
2.10044e-08
2.12609e-08
2.14998e-08
2.17196e-08
2.19188e-08
2.20958e-08
2.22493e-08
2.23776e-08
2.24796e-08
2.25533e-08
2.2596e-08
2.26109e-08
2.25943e-08
2.25452e-08
2.24627e-08
2.23461e-08
2.2195e-08
2.2009e-08
2.1788e-08
2.15323e-08
2.12421e-08
2.0918e-08
2.05609e-08
2.01718e-08
1.97521e-08
1.93033e-08
1.88272e-08
1.83257e-08
1.78011e-08
1.72556e-08
1.66917e-08
1.6112e-08
1.55193e-08
1.49162e-08
1.43056e-08
1.36901e-08
1.30725e-08
1.24554e-08
1.18414e-08
1.12329e-08
1.06323e-08
1.00415e-08
9.46264e-09
8.89733e-09
8.34714e-09
7.81338e-09
7.29716e-09
6.79937e-09
6.3207e-09
5.86162e-09
5.42242e-09
5.00322e-09
4.60393e-09
4.22434e-09
3.8641e-09
3.52273e-09
3.19963e-09
2.89411e-09
2.6054e-09
2.33266e-09
2.07501e-09
1.83154e-09
1.60132e-09
1.38341e-09
1.17692e-09
9.81016e-10
7.95002e-10
6.18511e-10
4.51958e-10
2.97687e-10
1.62545e-10
6.1126e-11
9.87937e-12
6.27771e-14
1.99235e-13
3.25358e-11
2.20182e-10
6.50715e-10
1.30085e-09
2.09933e-09
2.98505e-09
3.91923e-09
4.8793e-09
5.85194e-09
6.82887e-09
7.80454e-09
8.77506e-09
9.73759e-09
1.06901e-08
1.16311e-08
1.25597e-08
1.34755e-08
1.43785e-08
1.52688e-08
1.6147e-08
1.70142e-08
1.78712e-08
1.87193e-08
1.95599e-08
2.03945e-08
2.12243e-08
2.20509e-08
2.28758e-08
2.37002e-08
2.45254e-08
2.53525e-08
2.61825e-08
2.70162e-08
2.78544e-08
2.86976e-08
2.9546e-08
3.04e-08
3.12595e-08
3.21245e-08
3.29946e-08
3.38696e-08
3.47487e-08
3.56314e-08
3.65167e-08
3.74037e-08
3.82914e-08
3.91784e-08
4.00634e-08
4.09448e-08
4.18211e-08
4.26903e-08
4.35506e-08
4.43998e-08
4.52356e-08
4.60556e-08
4.68572e-08
4.76377e-08
4.83941e-08
4.91235e-08
4.98226e-08
5.04882e-08
5.11166e-08
5.17045e-08
5.22482e-08
5.27439e-08
5.31879e-08
5.35765e-08
5.39061e-08
5.41754e-08
5.43735e-08
5.44991e-08
5.4559e-08
5.45431e-08
5.44485e-08
5.42731e-08
5.4015e-08
5.36727e-08
5.32452e-08
5.27322e-08
5.21336e-08
5.14503e-08
5.06833e-08
4.98346e-08
4.89066e-08
4.79025e-08
4.68258e-08
4.56808e-08
4.44724e-08
4.32058e-08
4.18867e-08
4.05212e-08
3.91157e-08
3.76769e-08
3.62116e-08
3.47265e-08
3.32287e-08
3.17249e-08
3.02217e-08
2.87255e-08
2.72423e-08
2.5778e-08
2.43377e-08
2.29264e-08
2.15483e-08
2.02074e-08
1.89068e-08
1.76493e-08
1.64371e-08
1.5272e-08
1.4155e-08
1.30868e-08
1.20676e-08
1.10973e-08
1.01751e-08
9.30015e-09
8.47111e-09
7.68638e-09
6.94411e-09
6.24225e-09
5.57856e-09
4.95069e-09
4.35617e-09
3.79252e-09
3.25729e-09
2.7482e-09
2.26341e-09
1.80205e-09
1.36522e-09
9.58216e-10
5.94132e-10
2.97653e-10
1.00723e-10
1.48432e-11
9.06239e-14
2.67617e-13
4.44756e-11
3.14936e-10
9.90545e-10
2.10706e-09
3.58254e-09
5.30274e-09
7.17195e-09
9.12352e-09
1.11143e-08
1.31168e-08
1.51133e-08
1.70922e-08
1.90459e-08
2.09693e-08
2.28594e-08
2.47145e-08
2.65342e-08
2.83188e-08
3.00697e-08
3.17885e-08
3.34777e-08
3.51401e-08
3.67786e-08
3.83966e-08
3.99974e-08
4.15843e-08
4.31609e-08
4.47301e-08
4.62952e-08
4.78589e-08
4.94238e-08
5.0992e-08
5.25656e-08
5.41462e-08
5.57349e-08
5.73329e-08
5.89407e-08
6.05586e-08
6.21866e-08
6.38245e-08
6.54716e-08
6.71272e-08
6.87901e-08
7.04589e-08
7.21319e-08
7.38074e-08
7.5483e-08
7.71564e-08
7.88248e-08
8.04852e-08
8.21343e-08
8.37685e-08
8.53839e-08
8.69762e-08
8.85408e-08
9.0073e-08
9.15674e-08
9.30186e-08
9.44207e-08
9.57675e-08
9.70526e-08
9.82693e-08
9.94106e-08
1.0047e-07
1.01439e-07
1.02311e-07
1.03078e-07
1.03733e-07
1.04278e-07
1.04677e-07
1.04945e-07
1.05087e-07
1.05084e-07
1.04929e-07
1.04619e-07
1.0415e-07
1.03518e-07
1.02722e-07
1.0176e-07
1.00632e-07
9.93403e-08
9.78857e-08
9.6272e-08
9.45038e-08
9.25869e-08
9.05281e-08
8.83356e-08
8.60185e-08
8.35868e-08
8.10515e-08
7.84243e-08
7.57177e-08
7.29444e-08
7.01176e-08
6.72506e-08
6.43569e-08
6.14496e-08
5.85417e-08
5.56457e-08
5.27736e-08
4.99365e-08
4.71448e-08
4.44082e-08
4.17353e-08
3.91335e-08
3.66095e-08
3.41686e-08
3.18153e-08
2.95528e-08
2.73836e-08
2.53089e-08
2.33291e-08
2.14438e-08
1.96516e-08
1.79506e-08
1.63381e-08
1.48107e-08
1.33647e-08
1.19958e-08
1.06993e-08
9.47042e-09
8.30398e-09
7.19499e-09
6.13877e-09
5.13147e-09
4.1711e-09
3.25925e-09
2.40425e-09
1.62543e-09
9.58133e-10
4.51157e-10
1.43284e-10
2.01535e-11
1.20851e-13
3.41896e-13
5.73411e-11
4.16215e-10
1.35906e-09
3.01491e-09
5.33226e-09
8.16041e-09
1.13341e-08
1.47161e-08
1.82061e-08
2.1735e-08
2.52573e-08
2.87427e-08
3.21719e-08
3.55328e-08
3.88184e-08
4.20256e-08
4.51538e-08
4.82045e-08
5.11808e-08
5.40872e-08
5.6929e-08
5.9712e-08
6.24429e-08
6.51284e-08
6.77753e-08
7.03904e-08
7.29804e-08
7.55517e-08
7.81101e-08
8.06612e-08
8.32098e-08
8.57604e-08
8.83167e-08
9.08819e-08
9.34587e-08
9.6049e-08
9.86542e-08
1.01275e-07
1.03913e-07
1.06566e-07
1.09234e-07
1.11917e-07
1.14613e-07
1.17319e-07
1.20033e-07
1.22752e-07
1.25473e-07
1.28192e-07
1.30905e-07
1.33606e-07
1.36291e-07
1.38953e-07
1.41586e-07
1.44184e-07
1.46738e-07
1.49241e-07
1.51684e-07
1.54058e-07
1.56353e-07
1.58558e-07
1.60664e-07
1.62659e-07
1.64531e-07
1.66269e-07
1.67861e-07
1.69293e-07
1.70553e-07
1.71632e-07
1.72532e-07
1.73183e-07
1.73626e-07
1.73863e-07
1.73859e-07
1.73608e-07
1.731e-07
1.72331e-07
1.71294e-07
1.69988e-07
1.6841e-07
1.66559e-07
1.64438e-07
1.6205e-07
1.594e-07
1.56496e-07
1.53348e-07
1.49966e-07
1.46363e-07
1.42554e-07
1.38556e-07
1.34387e-07
1.30064e-07
1.25609e-07
1.21042e-07
1.16385e-07
1.11659e-07
1.06887e-07
1.02089e-07
9.72877e-08
9.25028e-08
8.77541e-08
8.30602e-08
7.84385e-08
7.39048e-08
6.94734e-08
6.51571e-08
6.09669e-08
5.69119e-08
5.29996e-08
4.92359e-08
4.56246e-08
4.21681e-08
3.88674e-08
3.57215e-08
3.27284e-08
2.98847e-08
2.71858e-08
2.46261e-08
2.21992e-08
1.98977e-08
1.77136e-08
1.56385e-08
1.36638e-08
1.17814e-08
9.98442e-09
8.26885e-09
6.63546e-09
5.09387e-09
3.66817e-09
2.40291e-09
1.36264e-09
6.14935e-10
1.87885e-10
2.57558e-11
1.52996e-13
4.21811e-13
7.11201e-11
5.23848e-10
1.75103e-09
3.99574e-09
7.27283e-09
1.14249e-08
1.62234e-08
2.14452e-08
2.69071e-08
3.24722e-08
3.80442e-08
4.3558e-08
4.89712e-08
5.42576e-08
5.94021e-08
6.43979e-08
6.92441e-08
7.39439e-08
7.85036e-08
8.29321e-08
8.72394e-08
9.1437e-08
9.5537e-08
9.95517e-08
1.03493e-07
1.07375e-07
1.11207e-07
1.15001e-07
1.18768e-07
1.22516e-07
1.26255e-07
1.29992e-07
1.33733e-07
1.37485e-07
1.4125e-07
1.45033e-07
1.48837e-07
1.52663e-07
1.56512e-07
1.60384e-07
1.64278e-07
1.68192e-07
1.72126e-07
1.76074e-07
1.80035e-07
1.84003e-07
1.87974e-07
1.91941e-07
1.95899e-07
1.99841e-07
2.03757e-07
2.0764e-07
2.11479e-07
2.15264e-07
2.18985e-07
2.22628e-07
2.26181e-07
2.2963e-07
2.32961e-07
2.36158e-07
2.39205e-07
2.42087e-07
2.44785e-07
2.47282e-07
2.49561e-07
2.51604e-07
2.53393e-07
2.54917e-07
2.56178e-07
2.57061e-07
2.57651e-07
2.57932e-07
2.5786e-07
2.57424e-07
2.56612e-07
2.55417e-07
2.53833e-07
2.51856e-07
2.49482e-07
2.46713e-07
2.43551e-07
2.40002e-07
2.36075e-07
2.31779e-07
2.27129e-07
2.22141e-07
2.16834e-07
2.11229e-07
2.05349e-07
1.9922e-07
1.92868e-07
1.86323e-07
1.79615e-07
1.72773e-07
1.65829e-07
1.58814e-07
1.51758e-07
1.44694e-07
1.37649e-07
1.30653e-07
1.23731e-07
1.16911e-07
1.10214e-07
1.03662e-07
9.7273e-08
9.10643e-08
8.50494e-08
7.92397e-08
7.36439e-08
6.82684e-08
6.3117e-08
5.81912e-08
5.34904e-08
4.90115e-08
4.47497e-08
4.06984e-08
3.68492e-08
3.31924e-08
2.9717e-08
2.6411e-08
2.32619e-08
2.02577e-08
1.73872e-08
1.46427e-08
1.20223e-08
9.53483e-09
7.20611e-09
5.08545e-09
3.24922e-09
1.79069e-09
7.85073e-10
2.34087e-10
3.16021e-11
1.86701e-13
5.07261e-13
8.5814e-11
6.37963e-10
2.16528e-09
5.03734e-09
9.36052e-09
1.49997e-08
2.16798e-08
2.90882e-08
3.6941e-08
4.50095e-08
5.31237e-08
6.11635e-08
6.90489e-08
7.67289e-08
8.41745e-08
9.13719e-08
9.83187e-08
1.0502e-07
1.11487e-07
1.17734e-07
1.2378e-07
1.29643e-07
1.35343e-07
1.40901e-07
1.46337e-07
1.51672e-07
1.56923e-07
1.62109e-07
1.67245e-07
1.72347e-07
1.77428e-07
1.825e-07
1.87572e-07
1.92653e-07
1.97751e-07
2.02869e-07
2.08013e-07
2.13185e-07
2.18387e-07
2.23618e-07
2.28878e-07
2.34164e-07
2.39474e-07
2.44804e-07
2.50149e-07
2.55501e-07
2.60855e-07
2.66201e-07
2.7153e-07
2.76832e-07
2.82096e-07
2.8731e-07
2.92458e-07
2.97527e-07
3.02501e-07
3.07364e-07
3.12095e-07
3.16678e-07
3.21092e-07
3.25315e-07
3.29327e-07
3.33104e-07
3.36625e-07
3.39865e-07
3.42801e-07
3.45409e-07
3.47668e-07
3.49554e-07
3.51086e-07
3.52096e-07
3.52724e-07
3.52924e-07
3.52645e-07
3.51874e-07
3.506e-07
3.48813e-07
3.46506e-07
3.43676e-07
3.4032e-07
3.36441e-07
3.32043e-07
3.27135e-07
3.21728e-07
3.15838e-07
3.09483e-07
3.02685e-07
2.95469e-07
2.87862e-07
2.79895e-07
2.71602e-07
2.63017e-07
2.54178e-07
2.45123e-07
2.35891e-07
2.26522e-07
2.17058e-07
2.07538e-07
1.98001e-07
1.88487e-07
1.79032e-07
1.69671e-07
1.60438e-07
1.51363e-07
1.42474e-07
1.33797e-07
1.25353e-07
1.17162e-07
1.09239e-07
1.01596e-07
9.42432e-08
8.71851e-08
8.04247e-08
7.39617e-08
6.77925e-08
6.1911e-08
5.63087e-08
5.09741e-08
4.58941e-08
4.10538e-08
3.64372e-08
3.20279e-08
2.78106e-08
2.37729e-08
1.99087e-08
1.62228e-08
1.27377e-08
9.50233e-09
6.59792e-09
4.13562e-09
2.23247e-09
9.59503e-10
2.81583e-10
3.76502e-11
2.21681e-13
5.98254e-13
1.01435e-10
7.58785e-10
2.60222e-09
6.13617e-09
1.15749e-08
1.88279e-08
2.75912e-08
3.74673e-08
4.80613e-08
5.90336e-08
7.01186e-08
8.11219e-08
9.19098e-08
1.02396e-07
1.1253e-07
1.22288e-07
1.31663e-07
1.40665e-07
1.49308e-07
1.57618e-07
1.6562e-07
1.73346e-07
1.80825e-07
1.8809e-07
1.95171e-07
2.02097e-07
2.08897e-07
2.15596e-07
2.22219e-07
2.28785e-07
2.35316e-07
2.41827e-07
2.48332e-07
2.54844e-07
2.61372e-07
2.67923e-07
2.74503e-07
2.81116e-07
2.87762e-07
2.94443e-07
3.01157e-07
3.079e-07
3.14669e-07
3.21457e-07
3.28257e-07
3.35061e-07
3.41858e-07
3.48636e-07
3.55384e-07
3.62087e-07
3.68729e-07
3.75294e-07
3.81763e-07
3.88116e-07
3.94333e-07
4.00391e-07
4.06267e-07
4.11936e-07
4.17372e-07
4.22548e-07
4.27437e-07
4.32011e-07
4.36242e-07
4.401e-07
4.43557e-07
4.46584e-07
4.49154e-07
4.51239e-07
4.52851e-07
4.53816e-07
4.54305e-07
4.54232e-07
4.53552e-07
4.52252e-07
4.50319e-07
4.47746e-07
4.44526e-07
4.40656e-07
4.36137e-07
4.30972e-07
4.2517e-07
4.18743e-07
4.11706e-07
4.0408e-07
3.95887e-07
3.87155e-07
3.77914e-07
3.682e-07
3.5805e-07
3.47503e-07
3.36603e-07
3.25394e-07
3.13922e-07
3.02234e-07
2.9038e-07
2.78407e-07
2.66364e-07
2.54298e-07
2.42257e-07
2.30284e-07
2.18422e-07
2.06713e-07
1.95193e-07
1.83897e-07
1.72856e-07
1.62098e-07
1.51646e-07
1.41521e-07
1.31738e-07
1.2231e-07
1.13243e-07
1.04542e-07
9.62065e-08
8.82336e-08
8.06155e-08
7.33418e-08
6.63988e-08
5.977e-08
5.3437e-08
4.73801e-08
4.15799e-08
3.6019e-08
3.06854e-08
2.55775e-08
2.07111e-08
1.61281e-08
1.19063e-08
8.16304e-09
5.04344e-09
2.68211e-09
1.13695e-09
3.30123e-10
4.38637e-11
2.57699e-13
6.94872e-13
1.18002e-10
8.86585e-10
3.06289e-09
7.29286e-09
1.39094e-08
2.28817e-08
3.38915e-08
4.64623e-08
6.00831e-08
7.42898e-08
8.87035e-08
1.03038e-07
1.17092e-07
1.30732e-07
1.4388e-07
1.56496e-07
1.6857e-07
1.80113e-07
1.91149e-07
2.01711e-07
2.1184e-07
2.21578e-07
2.3097e-07
2.4006e-07
2.48892e-07
2.57507e-07
2.65943e-07
2.74237e-07
2.82422e-07
2.90525e-07
2.98573e-07
3.06589e-07
3.14589e-07
3.22591e-07
3.30606e-07
3.38644e-07
3.46711e-07
3.54812e-07
3.62948e-07
3.71118e-07
3.7932e-07
3.8755e-07
3.958e-07
4.04063e-07
4.12328e-07
4.20584e-07
4.28816e-07
4.3701e-07
4.45149e-07
4.53213e-07
4.61184e-07
4.69038e-07
4.76753e-07
4.84303e-07
4.91663e-07
4.98804e-07
5.05697e-07
5.12312e-07
5.18618e-07
5.24582e-07
5.30172e-07
5.35356e-07
5.40098e-07
5.44368e-07
5.48131e-07
5.51356e-07
5.54013e-07
5.56071e-07
5.57499e-07
5.58203e-07
5.5834e-07
5.57767e-07
5.56464e-07
5.54418e-07
5.51621e-07
5.48065e-07
5.43747e-07
5.38665e-07
5.32824e-07
5.2623e-07
5.18895e-07
5.10835e-07
5.02071e-07
4.92626e-07
4.82529e-07
4.71813e-07
4.60513e-07
4.48671e-07
4.36329e-07
4.23534e-07
4.10334e-07
3.96781e-07
3.82928e-07
3.68828e-07
3.54536e-07
3.40108e-07
3.25599e-07
3.11063e-07
2.96553e-07
2.82121e-07
2.67816e-07
2.53683e-07
2.39768e-07
2.26109e-07
2.12743e-07
1.99703e-07
1.87016e-07
1.74707e-07
1.62794e-07
1.51291e-07
1.4021e-07
1.29554e-07
1.19325e-07
1.09519e-07
1.00127e-07
9.1138e-08
8.25353e-08
7.43e-08
6.64106e-08
5.88445e-08
5.15801e-08
4.45994e-08
3.7893e-08
3.14669e-08
2.53515e-08
1.96127e-08
1.4361e-08
9.75119e-09
5.96056e-09
3.13587e-09
1.31653e-09
3.79496e-10
5.02118e-11
2.94564e-13
7.97241e-13
1.35545e-10
1.02166e-09
3.54858e-09
8.50997e-09
1.6365e-08
2.71521e-08
4.05487e-08
5.60033e-08
7.2886e-08
9.05979e-08
1.08633e-07
1.26599e-07
1.44213e-07
1.61288e-07
1.7771e-07
1.93421e-07
2.08407e-07
2.22678e-07
2.3627e-07
2.49228e-07
2.61606e-07
2.73463e-07
2.8486e-07
2.95856e-07
3.06509e-07
3.16875e-07
3.27004e-07
3.36943e-07
3.46735e-07
3.56416e-07
3.66019e-07
3.75572e-07
3.85098e-07
3.94616e-07
4.04141e-07
4.13684e-07
4.23252e-07
4.32849e-07
4.42476e-07
4.52131e-07
4.6181e-07
4.71506e-07
4.8121e-07
4.9091e-07
5.00592e-07
5.10242e-07
5.1984e-07
5.29368e-07
5.38803e-07
5.48123e-07
5.57301e-07
5.66312e-07
5.75126e-07
5.83713e-07
5.92041e-07
6.00078e-07
6.07789e-07
6.15139e-07
6.22092e-07
6.28612e-07
6.34662e-07
6.40205e-07
6.45204e-07
6.49625e-07
6.53431e-07
6.5659e-07
6.5907e-07
6.60841e-07
6.61813e-07
6.62004e-07
6.61575e-07
6.60267e-07
6.58119e-07
6.55121e-07
6.51266e-07
6.46552e-07
6.40976e-07
6.34542e-07
6.27257e-07
6.19131e-07
6.1018e-07
6.00425e-07
5.89889e-07
5.78601e-07
5.66595e-07
5.53906e-07
5.40578e-07
5.26653e-07
5.12181e-07
4.97212e-07
4.818e-07
4.66002e-07
4.49875e-07
4.33479e-07
4.16874e-07
4.00119e-07
3.83277e-07
3.66406e-07
3.49564e-07
3.32808e-07
3.16192e-07
2.99768e-07
2.83583e-07
2.67683e-07
2.52108e-07
2.36894e-07
2.22073e-07
2.07672e-07
1.93713e-07
1.80213e-07
1.67182e-07
1.54628e-07
1.42552e-07
1.30949e-07
1.19811e-07
1.09124e-07
9.88712e-08
8.90299e-08
7.95766e-08
7.04866e-08
6.17368e-08
5.33103e-08
4.52022e-08
3.74285e-08
3.00373e-08
2.31211e-08
1.68252e-08
1.13421e-08
6.87901e-09
3.59124e-09
1.49754e-09
4.29526e-10
5.66695e-11
3.32124e-13
9.05521e-13
1.54094e-10
1.16433e-09
4.06065e-09
9.79083e-09
1.89464e-08
3.16412e-08
4.75529e-08
6.60576e-08
8.64021e-08
1.07844e-07
1.2974e-07
1.5158e-07
1.72992e-07
1.93723e-07
2.13623e-07
2.32611e-07
2.50667e-07
2.67806e-07
2.84072e-07
2.99526e-07
3.14239e-07
3.28287e-07
3.41749e-07
3.54701e-07
3.67219e-07
3.79371e-07
3.91222e-07
4.0283e-07
4.14249e-07
4.25523e-07
4.36693e-07
4.47791e-07
4.58846e-07
4.69878e-07
4.80905e-07
4.91939e-07
5.02987e-07
5.14053e-07
5.25135e-07
5.36231e-07
5.47334e-07
5.58433e-07
5.69515e-07
5.80567e-07
5.91568e-07
6.02501e-07
6.13342e-07
6.24066e-07
6.34648e-07
6.45059e-07
6.55268e-07
6.65244e-07
6.74952e-07
6.84358e-07
6.93426e-07
7.02118e-07
7.10395e-07
7.1822e-07
7.25552e-07
7.32352e-07
7.38581e-07
7.442e-07
7.49171e-07
7.53458e-07
7.57025e-07
7.59839e-07
7.61869e-07
7.63085e-07
7.63349e-07
7.62782e-07
7.61573e-07
7.5932e-07
7.56128e-07
7.51997e-07
7.46925e-07
7.40911e-07
7.33959e-07
7.26074e-07
7.17268e-07
7.07554e-07
6.96954e-07
6.85489e-07
6.73189e-07
6.60085e-07
6.46214e-07
6.31618e-07
6.1634e-07
6.0043e-07
5.83938e-07
5.66919e-07
5.49432e-07
5.31534e-07
5.1329e-07
4.9476e-07
4.76009e-07
4.57102e-07
4.38103e-07
4.19074e-07
4.00079e-07
3.81178e-07
3.62428e-07
3.43885e-07
3.25601e-07
3.07625e-07
2.9e-07
2.72765e-07
2.55955e-07
2.39601e-07
2.23725e-07
2.08346e-07
1.93478e-07
1.79128e-07
1.65297e-07
1.51981e-07
1.3917e-07
1.26849e-07
1.15e-07
1.03598e-07
9.26173e-08
8.20318e-08
7.18182e-08
6.19615e-08
5.24626e-08
4.33493e-08
3.4689e-08
2.66025e-08
1.92704e-08
1.29223e-08
7.79355e-09
4.04651e-09
1.67949e-09
4.80078e-10
6.32178e-11
3.70261e-13
1.01989e-12
1.73684e-10
1.31491e-09
4.60045e-09
1.11391e-08
2.16602e-08
3.63569e-08
5.49077e-08
7.66161e-08
1.006e-07
1.25967e-07
1.51925e-07
1.77837e-07
2.03234e-07
2.27797e-07
2.51329e-07
2.73731e-07
2.94974e-07
3.1508e-07
3.34103e-07
3.5212e-07
3.69221e-07
3.85503e-07
4.01063e-07
4.15997e-07
4.30397e-07
4.44348e-07
4.57929e-07
4.7121e-07
4.84254e-07
4.97115e-07
5.0984e-07
5.22467e-07
5.35027e-07
5.47546e-07
5.6004e-07
5.72522e-07
5.84998e-07
5.97472e-07
6.0994e-07
6.22396e-07
6.3483e-07
6.47228e-07
6.59574e-07
6.71847e-07
6.84027e-07
6.96087e-07
7.08001e-07
7.1974e-07
7.31272e-07
7.42564e-07
7.53581e-07
7.64287e-07
7.74643e-07
7.84611e-07
7.9415e-07
8.03221e-07
8.11782e-07
8.19792e-07
8.2721e-07
8.33995e-07
8.40107e-07
8.45508e-07
8.5016e-07
8.54028e-07
8.57077e-07
8.59277e-07
8.60597e-07
8.61012e-07
8.60332e-07
8.58814e-07
8.5659e-07
8.5325e-07
8.4885e-07
8.43446e-07
8.37037e-07
8.29628e-07
8.21224e-07
8.11836e-07
8.01478e-07
7.90168e-07
7.77929e-07
7.64788e-07
7.50775e-07
7.35926e-07
7.2028e-07
7.0388e-07
6.86773e-07
6.6901e-07
6.50645e-07
6.31735e-07
6.12339e-07
5.92519e-07
5.72339e-07
5.51864e-07
5.31162e-07
5.10298e-07
4.89339e-07
4.68352e-07
4.47402e-07
4.26552e-07
4.05863e-07
3.85394e-07
3.65198e-07
3.45328e-07
3.2583e-07
3.06746e-07
2.88113e-07
2.69963e-07
2.52321e-07
2.35208e-07
2.18638e-07
2.02618e-07
1.87151e-07
1.72231e-07
1.57848e-07
1.43987e-07
1.30625e-07
1.17738e-07
1.05298e-07
9.32772e-08
8.16529e-08
7.04127e-08
5.95643e-08
4.91477e-08
3.92505e-08
3.00218e-08
2.16774e-08
1.44828e-08
8.70073e-09
4.50059e-09
1.86205e-09
5.31058e-10
6.98435e-11
4.08899e-13
1.14055e-12
1.9435e-10
1.47372e-09
5.16931e-09
1.25584e-08
2.45136e-08
4.13095e-08
6.26241e-08
8.76849e-08
1.15474e-07
1.44939e-07
1.75131e-07
2.05282e-07
2.34818e-07
2.63347e-07
2.90631e-07
3.16547e-07
3.41061e-07
3.642e-07
3.86031e-07
4.06651e-07
4.26169e-07
4.44704e-07
4.62374e-07
4.79294e-07
4.95575e-07
5.11319e-07
5.26617e-07
5.41554e-07
5.56201e-07
5.70622e-07
5.84869e-07
5.98985e-07
6.13006e-07
6.26956e-07
6.40854e-07
6.54713e-07
6.68538e-07
6.82328e-07
6.96079e-07
7.0978e-07
7.23418e-07
7.36976e-07
7.50431e-07
7.63761e-07
7.76938e-07
7.89933e-07
8.02715e-07
8.15248e-07
8.27499e-07
8.39428e-07
8.50998e-07
8.62168e-07
8.72897e-07
8.83144e-07
8.92866e-07
9.02022e-07
9.10569e-07
9.18465e-07
9.2567e-07
9.32143e-07
9.37846e-07
9.42743e-07
9.46798e-07
9.49977e-07
9.52252e-07
9.53593e-07
9.53973e-07
9.53362e-07
9.51536e-07
9.48949e-07
9.45486e-07
9.4096e-07
9.35234e-07
9.2846e-07
9.20641e-07
9.11786e-07
9.01902e-07
8.91004e-07
8.79108e-07
8.66236e-07
8.52413e-07
8.37667e-07
8.22032e-07
8.05544e-07
7.88244e-07
7.70177e-07
7.5139e-07
7.31936e-07
7.11869e-07
6.91246e-07
6.70128e-07
6.48579e-07
6.26662e-07
6.04444e-07
5.81993e-07
5.59377e-07
5.36665e-07
5.13925e-07
4.91222e-07
4.68624e-07
4.46194e-07
4.23991e-07
4.02073e-07
3.80494e-07
3.59303e-07
3.38543e-07
3.18255e-07
2.98471e-07
2.79219e-07
2.60521e-07
2.4239e-07
2.24836e-07
2.07861e-07
1.91459e-07
1.75619e-07
1.60324e-07
1.45551e-07
1.31272e-07
1.1746e-07
1.04084e-07
9.11237e-08
7.85682e-08
6.64324e-08
5.47688e-08
4.36846e-08
3.33564e-08
2.40341e-08
1.60182e-08
9.59857e-09
4.95289e-09
2.04502e-09
5.82414e-10
7.65394e-11
4.47991e-13
1.26768e-12
2.16126e-10
1.64105e-09
5.76851e-09
1.40523e-08
2.75137e-08
4.65104e-08
7.07164e-08
9.92773e-08
1.3103e-07
1.64754e-07
1.99336e-07
2.33868e-07
2.67669e-07
3.00275e-07
3.31401e-07
3.60903e-07
3.88743e-07
4.14955e-07
4.39623e-07
4.62862e-07
4.84805e-07
5.05592e-07
5.25363e-07
5.44255e-07
5.62397e-07
5.79908e-07
5.96893e-07
6.1345e-07
6.29659e-07
6.45592e-07
6.61307e-07
6.76851e-07
6.92261e-07
7.07565e-07
7.2278e-07
7.37917e-07
7.5298e-07
7.67966e-07
7.82866e-07
7.97667e-07
8.12352e-07
8.26897e-07
8.41278e-07
8.55467e-07
8.69431e-07
8.83138e-07
8.96551e-07
9.09632e-07
9.22343e-07
9.34642e-07
9.46488e-07
9.57839e-07
9.68652e-07
9.78884e-07
9.88493e-07
9.97435e-07
1.00567e-06
1.01316e-06
1.01986e-06
1.02574e-06
1.03076e-06
1.03489e-06
1.03809e-06
1.04034e-06
1.04162e-06
1.04189e-06
1.04115e-06
1.03929e-06
1.03621e-06
1.03244e-06
1.02759e-06
1.02178e-06
1.01468e-06
1.00649e-06
9.97229e-07
9.8692e-07
9.75571e-07
9.63197e-07
9.49817e-07
9.35454e-07
9.20136e-07
9.03891e-07
8.86754e-07
8.68762e-07
8.49957e-07
8.30382e-07
8.10086e-07
7.89119e-07
7.67535e-07
7.45393e-07
7.22752e-07
6.99674e-07
6.76224e-07
6.52468e-07
6.28475e-07
6.04313e-07
5.80051e-07
5.55758e-07
5.31502e-07
5.07351e-07
4.8337e-07
4.5962e-07
4.36161e-07
4.1305e-07
3.90336e-07
3.68067e-07
3.46283e-07
3.25021e-07
3.04308e-07
2.84167e-07
2.64615e-07
2.4566e-07
2.27304e-07
2.09542e-07
1.92361e-07
1.75744e-07
1.59666e-07
1.44097e-07
1.29009e-07
1.1437e-07
1.00159e-07
8.63691e-08
7.30211e-08
6.01792e-08
4.7969e-08
3.65933e-08
2.6334e-08
1.7526e-08
1.04863e-08
5.40324e-09
2.22838e-09
6.34138e-10
8.33038e-11
4.87528e-13
1.40147e-12
2.39045e-10
1.8172e-09
6.39922e-09
1.5624e-08
3.06673e-08
5.19708e-08
7.91997e-08
1.1141e-07
1.47283e-07
1.85419e-07
2.24534e-07
2.63573e-07
3.01747e-07
3.38517e-07
3.73552e-07
4.06691e-07
4.37892e-07
4.67198e-07
4.94711e-07
5.20567e-07
5.44923e-07
5.67943e-07
5.8979e-07
6.10622e-07
6.30588e-07
6.49822e-07
6.68447e-07
6.86568e-07
7.04279e-07
7.21656e-07
7.38763e-07
7.55651e-07
7.72358e-07
7.88911e-07
8.0533e-07
8.21621e-07
8.37786e-07
8.5382e-07
8.69709e-07
8.85437e-07
9.00982e-07
9.16317e-07
9.31412e-07
9.46236e-07
9.60752e-07
9.74924e-07
9.88712e-07
1.00208e-06
1.01497e-06
1.02736e-06
1.0392e-06
1.05044e-06
1.06104e-06
1.07097e-06
1.08017e-06
1.08861e-06
1.09625e-06
1.10305e-06
1.10898e-06
1.11401e-06
1.11809e-06
1.12122e-06
1.12335e-06
1.12447e-06
1.12456e-06
1.1236e-06
1.12158e-06
1.11831e-06
1.11399e-06
1.10886e-06
1.1026e-06
1.09536e-06
1.08694e-06
1.07731e-06
1.06663e-06
1.0549e-06
1.04213e-06
1.02835e-06
1.01358e-06
9.97826e-07
9.8113e-07
9.63518e-07
9.45024e-07
9.25685e-07
9.0554e-07
8.84632e-07
8.63009e-07
8.40719e-07
8.17814e-07
7.94351e-07
7.70388e-07
7.45985e-07
7.21206e-07
6.96116e-07
6.70783e-07
6.45274e-07
6.1966e-07
5.94008e-07
5.68388e-07
5.42868e-07
5.17514e-07
4.92392e-07
4.67561e-07
4.43079e-07
4.19001e-07
3.95374e-07
3.72241e-07
3.49641e-07
3.27603e-07
3.06153e-07
2.85306e-07
2.65073e-07
2.45455e-07
2.26448e-07
2.08038e-07
1.90206e-07
1.72927e-07
1.5617e-07
1.39903e-07
1.24095e-07
1.08725e-07
9.37869e-08
7.93082e-08
6.5363e-08
5.20936e-08
3.97268e-08
2.8575e-08
1.90058e-08
1.13641e-08
5.8519e-09
2.41226e-09
6.86265e-10
9.0141e-11
5.27533e-13
1.54208e-12
2.63139e-10
2.00242e-09
7.06251e-09
1.72764e-08
3.39805e-08
5.77011e-08
8.80885e-08
1.241e-07
1.64249e-07
2.06946e-07
2.50728e-07
2.94389e-07
3.37029e-07
3.78033e-07
4.1703e-07
4.53839e-07
4.88417e-07
5.2082e-07
5.51169e-07
5.79624e-07
6.06365e-07
6.31582e-07
6.55463e-07
6.78187e-07
6.99922e-07
7.2082e-07
7.41017e-07
7.6063e-07
7.79761e-07
7.98494e-07
8.16897e-07
8.35022e-07
8.52911e-07
8.70589e-07
8.88073e-07
9.0537e-07
9.22477e-07
9.39386e-07
9.56079e-07
9.72537e-07
9.88733e-07
1.00464e-06
1.02021e-06
1.03543e-06
1.05025e-06
1.06462e-06
1.07852e-06
1.09189e-06
1.10469e-06
1.11688e-06
1.12842e-06
1.13927e-06
1.14937e-06
1.15871e-06
1.16723e-06
1.17489e-06
1.18168e-06
1.18754e-06
1.19246e-06
1.1964e-06
1.19934e-06
1.20127e-06
1.20215e-06
1.20198e-06
1.20074e-06
1.19842e-06
1.195e-06
1.19025e-06
1.18466e-06
1.17811e-06
1.17042e-06
1.16172e-06
1.15198e-06
1.14097e-06
1.12891e-06
1.11583e-06
1.10173e-06
1.08665e-06
1.07058e-06
1.05357e-06
1.03564e-06
1.01681e-06
9.97122e-07
9.76604e-07
9.55297e-07
9.33242e-07
9.1048e-07
8.87061e-07
8.63032e-07
8.38448e-07
8.13363e-07
7.87835e-07
7.61926e-07
7.357e-07
7.09221e-07
6.82557e-07
6.55776e-07
6.28947e-07
6.02139e-07
5.75421e-07
5.48861e-07
5.22525e-07
4.96474e-07
4.7077e-07
4.45467e-07
4.20618e-07
3.96267e-07
3.72454e-07
3.49212e-07
3.26567e-07
3.04537e-07
2.83135e-07
2.62361e-07
2.42212e-07
2.22674e-07
2.03727e-07
1.85344e-07
1.67493e-07
1.50141e-07
1.33256e-07
1.16815e-07
1.00817e-07
8.52895e-08
7.03176e-08
5.60576e-08
4.27576e-08
3.07582e-08
2.04588e-08
1.22331e-08
6.2995e-09
2.59692e-09
7.38868e-10
9.70602e-11
5.68058e-13
1.68967e-12
2.88434e-10
2.19695e-09
7.75931e-09
1.90122e-08
3.74588e-08
6.37102e-08
9.73954e-08
1.37362e-07
1.81942e-07
2.29346e-07
2.77923e-07
3.26312e-07
3.735e-07
4.18797e-07
4.61793e-07
5.0229e-07
5.40248e-07
5.75737e-07
6.08898e-07
6.39917e-07
6.69001e-07
6.96365e-07
7.22222e-07
7.46773e-07
7.70207e-07
7.9269e-07
8.14374e-07
8.35388e-07
8.5584e-07
8.7582e-07
8.95401e-07
9.14638e-07
9.3357e-07
9.52224e-07
9.70615e-07
9.88747e-07