/*--------------------------------*- C++ -*----------------------------------*\
  =========                 |
  \\      /  F ield         | OpenFOAM: The Open Source CFD Toolbox
   \\    /   O peration     | Website:  https://openfoam.org
    \\  /    A nd           | Version:  12
     \\/     M anipulation  |
\*---------------------------------------------------------------------------*/
FoamFile
{
    format      ascii;
    class       volScalarField;
    location    "3";
    object      p;
}
// * * * * * * * * * * * * * * * * * * * * * * * * * * * * * * * * * * * * * //

dimensions      [0 2 -2 0 0 0 0];

internalField   nonuniform List<scalar> 
18225
(
3.30118e-08
7.06819e-06
9.98016e-06
3.53248e-06
-1.34674e-05
-4.09538e-05
-7.83245e-05
-0.000124693
-0.000179066
-0.000240455
-0.000307937
-0.000380687
-0.000457986
-0.000539219
-0.000623874
-0.000711524
-0.00080182
-0.00089448
-0.000989271
-0.001086
-0.0011845
-0.00128463
-0.00138626
-0.00148925
-0.00159347
-0.00169878
-0.001805
-0.00191197
-0.00201949
-0.00212732
-0.00223522
-0.00234289
-0.00245005
-0.00255633
-0.00266137
-0.00276478
-0.00286612
-0.00296495
-0.00306079
-0.00315313
-0.00324146
-0.00332526
-0.00340396
-0.00347703
-0.0035439
-0.00360401
-0.00365683
-0.0037018
-0.0037384
-0.00376613
-0.00378453
-0.00379316
-0.00379162
-0.00377959
-0.00375676
-0.00372293
-0.00367794
-0.00362171
-0.00355425
-0.00347566
-0.00338614
-0.00328596
-0.00317553
-0.00305533
-0.00292597
-0.00278816
-0.00264276
-0.00249065
-0.00233278
-0.00217036
-0.00200457
-0.0018367
-0.00166809
-0.00150016
-0.00133438
-0.00117223
-0.00101524
-0.000864927
-0.000722792
-0.000590311
-0.000468913
-0.00035996
-0.000264731
-0.000184409
-0.000120059
-7.26195e-05
-4.28842e-05
-3.14936e-05
-3.89241e-05
-6.54802e-05
-0.00011129
-0.000176301
-0.000260282
-0.000362822
-0.000483339
-0.000621084
-0.000775152
-0.000944494
-0.00112793
-0.00132416
-0.00153179
-0.00174934
-0.00197528
-0.00220801
-0.00244594
-0.00268743
-0.00293089
-0.00317472
-0.00341738
-0.00365738
-0.00389329
-0.00412375
-0.00434749
-0.00456332
-0.00477011
-0.00496687
-0.00515265
-0.0053266
-0.00548795
-0.00563599
-0.00577011
-0.00588974
-0.0059944
-0.00608368
-0.00615725
-0.00621493
-0.00625667
-0.00628266
-0.00629344
-0.00629003
-0.0062742
-0.00624879
-0.00621829
-0.00618951
-0.0061713
-7.21715e-06
-1.91573e-07
1.8712e-06
-5.30605e-06
-2.21174e-05
-4.83757e-05
-8.36318e-05
-0.000127202
-0.000178281
-0.000236045
-0.000299701
-0.000368524
-0.000441868
-0.000519174
-0.000599962
-0.000683829
-0.000770436
-0.000859498
-0.000950782
-0.00104409
-0.00113925
-0.00123611
-0.00133452
-0.00143435
-0.00153545
-0.00163767
-0.00174085
-0.00184481
-0.00194935
-0.00205425
-0.00215926
-0.00226411
-0.00236851
-0.00247211
-0.00257458
-0.00267552
-0.00277453
-0.00287118
-0.00296501
-0.00305554
-0.00314228
-0.00322472
-0.00330234
-0.0033746
-0.00344097
-0.00350092
-0.00355393
-0.00359946
-0.00363702
-0.00366613
-0.00368633
-0.00369721
-0.00369839
-0.00368953
-0.00367035
-0.00364065
-0.00360027
-0.00354914
-0.00348725
-0.0034147
-0.00333166
-0.00323841
-0.00313532
-0.00302285
-0.00290159
-0.00277222
-0.00263553
-0.00249236
-0.00234367
-0.0021906
-0.00203427
-0.0018759
-0.0017168
-0.00155832
-0.00140188
-0.00124889
-0.00110083
-0.00095914
-0.000825275
-0.000700647
-0.000586627
-0.000484523
-0.000395562
-0.000320878
-0.000261492
-0.000218304
-0.000192072
-0.000183409
-0.000192769
-0.000220441
-0.000266543
-0.000331021
-0.000413648
-0.000514027
-0.000631592
-0.000765622
-0.000915244
-0.00107945
-0.00125709
-0.00144694
-0.00164764
-0.00185778
-0.00207588
-0.00230042
-0.00252985
-0.00276262
-0.0029972
-0.00323206
-0.00346573
-0.00369678
-0.00392383
-0.00414561
-0.00436088
-0.00456852
-0.00476746
-0.00495674
-0.00513548
-0.00530288
-0.00545821
-0.00560083
-0.00573017
-0.00584574
-0.00594712
-0.00603398
-0.00610609
-0.00616334
-0.0062058
-0.00623375
-0.00624779
-0.00624896
-0.00623889
-0.00622004
-0.00619592
-0.00617131
-0.00615309
-1.03639e-05
-2.44339e-06
-3.98658e-07
-7.95084e-06
-2.45517e-05
-4.97496e-05
-8.31426e-05
-0.000124177
-0.000172193
-0.000226507
-0.000286448
-0.000351391
-0.000420768
-0.000494076
-0.000570878
-0.000650799
-0.000733521
-0.000818772
-0.00090632
-0.000995966
-0.00108754
-0.00118087
-0.00127582
-0.00137225
-0.00147
-0.00156892
-0.00166886
-0.00176963
-0.00187105
-0.00197289
-0.00207491
-0.00217686
-0.00227845
-0.00237937
-0.00247928
-0.00257781
-0.00267458
-0.00276917
-0.00286115
-0.00295006
-0.00303544
-0.00311679
-0.00319361
-0.00326541
-0.00333166
-0.00339186
-0.0034455
-0.00349207
-0.00353109
-0.00356209
-0.00358465
-0.00359834
-0.0036028
-0.00359771
-0.00358278
-0.00355782
-0.00352265
-0.0034772
-0.00342146
-0.00335551
-0.0032795
-0.0031937
-0.00309843
-0.00299416
-0.00288141
-0.00276085
-0.0026332
-0.00249927
-0.00236003
-0.0022165
-0.00206977
-0.00192101
-0.00177149
-0.00162249
-0.00147537
-0.00133151
-0.00119229
-0.00105913
-0.000933421
-0.000816514
-0.000709733
-0.000614335
-0.000531503
-0.000462327
-0.00040779
-0.000368755
-0.000345953
-0.000339971
-0.000351242
-0.000380043
-0.000426484
-0.000490508
-0.000571892
-0.00067025
-0.000785033
-0.000915542
-0.00106093
-0.00122022
-0.00139232
-0.00157602
-0.00177003
-0.00197299
-0.00218347
-0.00240001
-0.00262113
-0.00284533
-0.00307115
-0.00329712
-0.00352184
-0.00374394
-0.00396211
-0.00417513
-0.00438184
-0.00458115
-0.00477209
-0.00495372
-0.00512524
-0.00528589
-0.00543502
-0.00557203
-0.00569643
-0.00580778
-0.00590575
-0.00599006
-0.00606058
-0.00611727
-0.00616025
-0.00618985
-0.00620666
-0.00621159
-0.00620603
-0.00619188
-0.00617134
-0.00614671
-0.00612429
-3.794e-06
4.8127e-06
7.02652e-06
-7.17164e-07
-1.72596e-05
-4.18811e-05
-7.41253e-05
-0.000113471
-0.000159331
-0.000211106
-0.000268211
-0.000330097
-0.000396264
-0.000466265
-0.000539705
-0.000616242
-0.000695583
-0.000777475
-0.0008617
-0.000948068
-0.00103641
-0.00112657
-0.0012184
-0.00131177
-0.00140652
-0.00150252
-0.00159959
-0.00169758
-0.00179628
-0.00189551
-0.00199501
-0.00209456
-0.00219387
-0.00229264
-0.00239055
-0.00248726
-0.00258239
-0.00267554
-0.00276631
-0.00285425
-0.00293892
-0.00301983
-0.00309652
-0.00316848
-0.00323524
-0.00329628
-0.00335111
-0.00339925
-0.00344022
-0.00347357
-0.00349885
-0.00351567
-0.00352367
-0.0035225
-0.00351191
-0.00349165
-0.00346158
-0.00342159
-0.00337167
-0.00331187
-0.00324232
-0.00316327
-0.00307502
-0.002978
-0.00287271
-0.00275977
-0.00263988
-0.00251382
-0.00238252
-0.00224694
-0.00210814
-0.00196727
-0.00182553
-0.00168418
-0.00154453
-0.00140791
-0.00127569
-0.00114922
-0.00102987
-0.000918957
-0.000817768
-0.000727529
-0.000649395
-0.000584428
-0.000533589
-0.00049772
-0.000477533
-0.000473601
-0.000486347
-0.000516038
-0.000562779
-0.000626513
-0.000707021
-0.000803921
-0.000916674
-0.00104459
-0.00118685
-0.0013425
-0.00151045
-0.00168953
-0.00187849
-0.00207599
-0.00228065
-0.00249103
-0.00270571
-0.00292323
-0.00314217
-0.00336112
-0.00357871
-0.00379363
-0.00400464
-0.00421053
-0.00441022
-0.00460268
-0.00478696
-0.00496222
-0.00512768
-0.00528264
-0.00542651
-0.00555876
-0.00567893
-0.00578666
-0.00588166
-0.00596373
-0.00603275
-0.00608873
-0.00613179
-0.00616224
-0.00618056
-0.00618746
-0.00618399
-0.00617144
-0.00615088
-0.00612262
-0.00609377
1.39609e-05
2.21597e-05
2.37696e-05
1.54155e-05
-1.47267e-06
-2.6014e-05
-5.76902e-05
-9.59812e-05
-0.00014034
-0.000190223
-0.000245113
-0.000304523
-0.000368013
-0.000435187
-0.000505695
-0.000579234
-0.00065554
-0.000734384
-0.000815568
-0.000898919
-0.000984278
-0.0010715
-0.00116045
-0.001251
-0.00134301
-0.00143633
-0.00153082
-0.00162632
-0.00172264
-0.00181958
-0.00191694
-0.00201447
-0.00211192
-0.00220899
-0.00230538
-0.00240076
-0.00249478
-0.00258704
-0.00267716
-0.0027647
-0.00284924
-0.00293032
-0.00300747
-0.00308022
-0.00314807
-0.00321055
-0.00326716
-0.00331743
-0.00336088
-0.00339707
-0.00342555
-0.00344592
-0.00345781
-0.00346088
-0.00345485
-0.00343949
-0.00341461
-0.0033801
-0.00333591
-0.0032821
-0.00321876
-0.00314611
-0.00306443
-0.00297412
-0.00287565
-0.0027696
-0.00265664
-0.00253754
-0.00241316
-0.00228446
-0.00215245
-0.00201826
-0.00188304
-0.00174804
-0.00161452
-0.00148381
-0.00135723
-0.00123612
-0.00112181
-0.00101561
-0.000918789
-0.000832548
-0.000758028
-0.000696279
-0.000648247
-0.000614767
-0.00059654
-0.000594134
-0.000607967
-0.000638302
-0.000685243
-0.000748735
-0.000828558
-0.000924336
-0.00103553
-0.00116148
-0.00130134
-0.00145418
-0.00161895
-0.00179447
-0.00197951
-0.00217275
-0.00237283
-0.00257836
-0.00278792
-0.00300009
-0.00321347
-0.00342671
-0.00363846
-0.00384745
-0.00405248
-0.00425241
-0.00444617
-0.00463279
-0.00481138
-0.00498113
-0.00514132
-0.00529133
-0.00543058
-0.00555861
-0.00567503
-0.00577951
-0.00587182
-0.00595178
-0.00601931
-0.00607442
-0.00611722
-0.00614793
-0.00616689
-0.00617461
-0.00617177
-0.00615916
-0.00613691
-0.00610389
-0.0060684
4.30219e-05
4.95649e-05
4.95115e-05
3.986e-05
2.20729e-05
-2.91911e-06
-3.45614e-05
-7.2336e-05
-0.000115726
-0.000164237
-0.000217405
-0.000274801
-0.000336039
-0.000400774
-0.000468703
-0.00053956
-0.000613118
-0.000689176
-0.000767563
-0.000848123
-0.000930719
-0.00101522
-0.00110151
-0.00118946
-0.00127895
-0.00136986
-0.00146203
-0.00155531
-0.00164955
-0.00174456
-0.00184012
-0.00193602
-0.00203202
-0.00212783
-0.00222316
-0.00231771
-0.00241112
-0.00250303
-0.00259305
-0.00268078
-0.00276579
-0.00284764
-0.00292588
-0.00300002
-0.0030696
-0.00313413
-0.00319314
-0.00324613
-0.00329264
-0.00333222
-0.00336441
-0.00338881
-0.00340503
-0.00341273
-0.0034116
-0.00340139
-0.00338191
-0.00335301
-0.00331463
-0.00326678
-0.00320955
-0.00314311
-0.00306773
-0.00298377
-0.00289167
-0.00279198
-0.00268535
-0.00257251
-0.0024543
-0.00233163
-0.00220552
-0.00207704
-0.00194734
-0.00181764
-0.00168919
-0.00156328
-0.00144124
-0.00132438
-0.00121402
-0.00111147
-0.00101797
-0.000934736
-0.000862893
-0.000803489
-0.00075747
-0.000725666
-0.000708783
-0.000707385
-0.000721892
-0.00075257
-0.000799524
-0.000862702
-0.000941885
-0.0010367
-0.00114662
-0.00127096
-0.00140892
-0.00155955
-0.0017218
-0.00189451
-0.00207646
-0.00226633
-0.00246278
-0.00266442
-0.00286986
-0.0030777
-0.00328656
-0.0034951
-0.00370201
-0.00390606
-0.00410606
-0.00430092
-0.00448962
-0.00467122
-0.00484488
-0.00500982
-0.00516539
-0.00531101
-0.00544617
-0.00557043
-0.00568346
-0.00578498
-0.00587479
-0.00595275
-0.00601879
-0.00607291
-0.00611518
-0.00614574
-0.0061648
-0.00617264
-0.00616965
-0.0061562
-0.00613173
-0.00609409
-0.00605274
8.29774e-05
8.67158e-05
8.39472e-05
7.22452e-05
5.29455e-05
2.69475e-05
-5.18824e-06
-4.29564e-05
-8.58725e-05
-0.000133486
-0.000185384
-0.000241192
-0.000300576
-0.000363241
-0.00042893
-0.000497422
-0.000568525
-0.000642073
-0.000717922
-0.000795945
-0.000876026
-0.000958057
-0.00104193
-0.00112755
-0.0012148
-0.00130357
-0.00139372
-0.00148513
-0.00157764
-0.00167108
-0.00176526
-0.00185996
-0.00195496
-0.00204999
-0.00214479
-0.00223903
-0.00233241
-0.00242455
-0.0025151
-0.00260364
-0.00268977
-0.00277306
-0.00285304
-0.00292926
-0.00300124
-0.0030685
-0.00313055
-0.00318691
-0.00323711
-0.00328067
-0.00331714
-0.00334609
-0.00336713
-0.00337989
-0.00338404
-0.0033793
-0.00336546
-0.00334235
-0.00330988
-0.00326803
-0.00321685
-0.0031565
-0.0030872
-0.00300929
-0.00292318
-0.00282939
-0.00272854
-0.00262134
-0.0025086
-0.00239121
-0.00227017
-0.00214653
-0.00202143
-0.00189606
-0.00177166
-0.00164954
-0.00153098
-0.00141732
-0.00130987
-0.00120993
-0.00111875
-0.00103754
-0.000967446
-0.00090951
-0.000864688
-0.000833817
-0.000817609
-0.000816637
-0.000831328
-0.000861954
-0.000908626
-0.000971296
-0.00104975
-0.00114362
-0.00125238
-0.00137535
-0.00151171
-0.00166054
-0.00182077
-0.00199125
-0.00217075
-0.00235796
-0.00255155
-0.00275012
-0.00295228
-0.00315666
-0.00336189
-0.00356663
-0.0037696
-0.00396958
-0.00416542
-0.00435604
-0.00454047
-0.0047178
-0.00488723
-0.00504803
-0.00519959
-0.00534137
-0.00547293
-0.00559384
-0.00570384
-0.00580269
-0.00589021
-0.00596629
-0.00603088
-0.00608395
-0.00612552
-0.00615568
-0.00617449
-0.00618207
-0.00617854
-0.00616398
-0.00613733
-0.00609576
-0.0060497
0.00013309
0.000133024
0.000126576
0.000112083
9.0655e-05
6.31006e-05
2.99617e-05
-8.28105e-06
-5.11817e-05
-9.83358e-05
-0.000149381
-0.000203996
-0.0002619
-0.000322847
-0.000386631
-0.000453072
-0.00052202
-0.000593346
-0.00066694
-0.000742703
-0.000820547
-0.000900388
-0.000982143
-0.00106573
-0.00115105
-0.00123802
-0.00132652
-0.00141643
-0.00150761
-0.00159991
-0.00169315
-0.00178714
-0.00188166
-0.00197647
-0.00207129
-0.00216584
-0.0022598
-0.00235283
-0.00244457
-0.00253462
-0.00262258
-0.00270802
-0.00279048
-0.00286951
-0.00294462
-0.00301534
-0.00308116
-0.0031416
-0.00319616
-0.00324436
-0.00328573
-0.00331982
-0.00334621
-0.00336451
-0.00337437
-0.00337548
-0.00336759
-0.0033505
-0.0033241
-0.00328833
-0.00324322
-0.00318888
-0.00312551
-0.00305341
-0.00297297
-0.00288469
-0.00278914
-0.00268703
-0.00257914
-0.00246635
-0.00234962
-0.00223001
-0.00210863
-0.00198669
-0.00186541
-0.00174609
-0.00163003
-0.00151856
-0.001413
-0.00131466
-0.0012248
-0.00114466
-0.00107536
-0.00101799
-0.000973512
-0.000942775
-0.000926508
-0.000925298
-0.000939585
-0.000969652
-0.00101562
-0.00107746
-0.00115495
-0.00124773
-0.00135527
-0.00147691
-0.00161183
-0.00175908
-0.0019176
-0.00208624
-0.00226376
-0.00244885
-0.00264016
-0.00283631
-0.0030359
-0.00323754
-0.00343988
-0.00364158
-0.00384138
-0.00403807
-0.00423051
-0.00441765
-0.00459854
-0.00477231
-0.00493818
-0.00509546
-0.00524358
-0.00538205
-0.00551046
-0.00562847
-0.0057358
-0.00583227
-0.00591773
-0.0059921
-0.00605531
-0.00610733
-0.00614816
-0.00617779
-0.00619621
-0.00620336
-0.0061992
-0.0061836
-0.00615514
-0.00611058
-0.00606109
0.000192439
0.000187713
0.000176729
0.000158758
0.000134617
0.000104983
7.03629e-05
3.12004e-05
-1.21049e-05
-5.91992e-05
-0.000109773
-0.00016356
-0.000220332
-0.000279897
-0.000342097
-0.0004068
-0.000473898
-0.000543304
-0.000614941
-0.000688746
-0.00076466
-0.000842627
-0.000922588
-0.00100448
-0.00108824
-0.00117379
-0.00126104
-0.00134988
-0.00144019
-0.00153184
-0.00162467
-0.00171849
-0.0018131
-0.00190828
-0.00200376
-0.00209928
-0.00219452
-0.00228916
-0.00238282
-0.00247514
-0.0025657
-0.00265408
-0.00273982
-0.00282246
-0.00290151
-0.00297648
-0.00304685
-0.00311213
-0.00317181
-0.00322536
-0.00327232
-0.00331219
-0.00334454
-0.00336893
-0.003385
-0.00339238
-0.00339082
-0.00338006
-0.00335996
-0.00333043
-0.00329146
-0.00324313
-0.00318561
-0.00311917
-0.00304416
-0.00296106
-0.00287043
-0.00277294
-0.00266935
-0.00256054
-0.00244745
-0.00233112
-0.00221269
-0.00209332
-0.00197428
-0.00185684
-0.00174233
-0.00163208
-0.00152742
-0.00142969
-0.00134017
-0.0012601
-0.00119064
-0.0011329
-0.00108785
-0.00105638
-0.00103924
-0.00103703
-0.00105021
-0.00107909
-0.0011238
-0.00118432
-0.00126045
-0.00135182
-0.00145793
-0.0015781
-0.00171151
-0.00185721
-0.00201415
-0.00218114
-0.00235696
-0.00254027
-0.00272971
-0.0029239
-0.00312142
-0.00332089
-0.00352094
-0.00372024
-0.00391751
-0.00411157
-0.00430127
-0.0044856
-0.0046636
-0.00483443
-0.00499735
-0.00515171
-0.00529696
-0.00543262
-0.00555832
-0.00567382
-0.00577886
-0.00587327
-0.00595693
-0.00602977
-0.00609174
-0.00614281
-0.00618292
-0.00621204
-0.00623006
-0.00623682
-0.00623216
-0.00621578
-0.00618609
-0.00613958
-0.00608793
0.000260011
0.000249897
0.000233631
0.000211561
0.000184171
0.000151976
0.000115437
7.49488e-05
3.08575e-05
-1.65398e-05
-6.6991e-05
-0.000120286
-0.000176253
-0.000234756
-0.000295686
-0.000358963
-0.000424524
-0.000492322
-0.000562323
-0.000634497
-0.000708819
-0.000785262
-0.000863798
-0.00094439
-0.00102699
-0.00111156
-0.00119801
-0.00128626
-0.00137622
-0.00146777
-0.00156075
-0.00165501
-0.00175036
-0.00184659
-0.00194344
-0.00204066
-0.00213794
-0.00223496
-0.00233137
-0.00242679
-0.0025208
-0.00261298
-0.00270287
-0.00279
-0.00287386
-0.00295395
-0.00302974
-0.0031007
-0.0031663
-0.00322601
-0.00327931
-0.00332568
-0.00336465
-0.00339576
-0.0034186
-0.00343277
-0.00343797
-0.00343392
-0.00342042
-0.00339736
-0.00336469
-0.00332245
-0.00327078
-0.00320991
-0.00314018
-0.00306203
-0.002976
-0.00288273
-0.00278299
-0.00267761
-0.00256756
-0.00245386
-0.00233764
-0.00222008
-0.00210243
-0.001986
-0.00187211
-0.00176213
-0.00165741
-0.0015593
-0.0014691
-0.00138809
-0.00131747
-0.00125835
-0.00121177
-0.00117862
-0.00115968
-0.00115559
-0.00116684
-0.00119376
-0.0012365
-0.00129505
-0.00136924
-0.00145872
-0.00156297
-0.00168133
-0.00181298
-0.00195697
-0.00211222
-0.00227757
-0.00245175
-0.00263343
-0.00282123
-0.00301374
-0.00320955
-0.00340724
-0.00360545
-0.00380282
-0.0039981
-0.00419006
-0.00437759
-0.00455967
-0.00473535
-0.00490382
-0.00506434
-0.0052163
-0.00535918
-0.00549254
-0.00561604
-0.00572944
-0.00583254
-0.00592521
-0.00600735
-0.0060789
-0.00613983
-0.00619009
-0.00622962
-0.00625834
-0.00627608
-0.00628264
-0.00627774
-0.00626101
-0.00623074
-0.00618334
-0.0061307
0.000334741
0.000318617
0.000296424
0.000269707
0.000238587
0.000203401
0.000164548
0.00012237
7.71496e-05
2.9121e-05
-2.15251e-05
-7.46398e-05
-0.000130111
-0.000187858
-0.000247829
-0.000309993
-0.000374336
-0.000440857
-0.000509562
-0.00058046
-0.000653561
-0.000728871
-0.000806392
-0.000886115
-0.000968024
-0.00105209
-0.00113826
-0.00122648
-0.00131666
-0.00140871
-0.0015025
-0.00159788
-0.00169468
-0.00179269
-0.0018917
-0.00199142
-0.00209159
-0.00219186
-0.00229191
-0.00239133
-0.00248973
-0.00258665
-0.00268164
-0.00277421
-0.00286383
-0.00294999
-0.00303213
-0.0031097
-0.00318213
-0.00324885
-0.00330932
-0.00336299
-0.00340934
-0.00344786
-0.00347811
-0.00349966
-0.00351214
-0.00351525
-0.00350875
-0.00349248
-0.00346634
-0.00343035
-0.00338461
-0.00332933
-0.0032648
-0.00319144
-0.00310977
-0.00302042
-0.00292413
-0.00282174
-0.00271419
-0.00260251
-0.00248783
-0.00237134
-0.0022543
-0.00213804
-0.00202389
-0.00191324
-0.00180747
-0.00170796
-0.00161606
-0.00153306
-0.00146021
-0.00139865
-0.00134946
-0.00131357
-0.00129181
-0.00128484
-0.00129319
-0.00131721
-0.0013571
-0.00141287
-0.00148436
-0.00157124
-0.00167302
-0.00178902
-0.00191845
-0.00206034
-0.00221362
-0.0023771
-0.00254951
-0.00272951
-0.00291569
-0.00310663
-0.00330089
-0.00349705
-0.00369371
-0.00388951
-0.00408317
-0.00427347
-0.00445929
-0.00463959
-0.00481346
-0.00498006
-0.0051387
-0.00528876
-0.00542976
-0.00556128
-0.00568302
-0.00579474
-0.0058963
-0.00598757
-0.0060685
-0.00613905
-0.00619918
-0.00624886
-0.00628801
-0.00631654
-0.00633424
-0.00634086
-0.0063361
-0.0063195
-0.00628934
-0.00624203
-0.00618949
0.000415531
0.000392864
0.000364185
0.000332347
0.000297074
0.000258514
0.000217
0.000172809
0.000126154
7.71987e-05
2.60675e-05
-2.7156e-05
-8.24227e-05
-0.000139713
-0.000199031
-0.0002604
-0.000323858
-0.000389448
-0.000457221
-0.000527227
-0.000599513
-0.00067412
-0.000751081
-0.000830419
-0.000912145
-0.000996252
-0.00108272
-0.00117151
-0.00126257
-0.0013558
-0.00145111
-0.00154837
-0.0016474
-0.00174803
-0.00185004
-0.00195317
-0.00205713
-0.00216161
-0.00226626
-0.00237069
-0.00247448
-0.00257718
-0.0026783
-0.00277735
-0.00287378
-0.00296704
-0.00305655
-0.00314172
-0.00322196
-0.00329665
-0.00336521
-0.00342706
-0.00348161
-0.00352834
-0.00356673
-0.00359632
-0.0036167
-0.00362752
-0.00362849
-0.00361939
-0.00360012
-0.00357064
-0.00353101
-0.0034814
-0.00342209
-0.00335346
-0.003276
-0.00319035
-0.00309721
-0.00299741
-0.0028919
-0.0027817
-0.00266794
-0.00255184
-0.00243465
-0.00231773
-0.00220243
-0.00209018
-0.00198238
-0.00188044
-0.00178575
-0.00169966
-0.00162344
-0.00155829
-0.00150532
-0.00146553
-0.00143977
-0.00142877
-0.00143308
-0.00145311
-0.00148909
-0.00154105
-0.00160889
-0.00169228
-0.00179074
-0.00190364
-0.00203016
-0.00216935
-0.00232014
-0.00248133
-0.00265163
-0.00282969
-0.00301408
-0.00320336
-0.00339607
-0.00359076
-0.00378601
-0.00398044
-0.00417275
-0.0043617
-0.00454615
-0.00472508
-0.00489755
-0.00506273
-0.00521994
-0.00536857
-0.00550814
-0.00563827
-0.00575868
-0.00586915
-0.00596957
-0.00605983
-0.0061399
-0.00620976
-0.0062694
-0.00631877
-0.00635782
-0.00638643
-0.0064044
-0.00641143
-0.00640721
-0.00639127
-0.00636191
-0.00631561
-0.00626411
0.000501254
0.000471582
0.000435936
0.000398561
0.000358772
0.000316509
0.000272032
0.000225546
0.000177186
0.00012704
7.51593e-05
2.15572e-05
-3.3784e-05
-9.09082e-05
-0.00014988
-0.000210779
-0.000273694
-0.000338719
-0.00040595
-0.00047548
-0.000547393
-0.000621769
-0.000698673
-0.00077816
-0.00086027
-0.000945026
-0.00103243
-0.00112247
-0.00121511
-0.00131029
-0.00140791
-0.00150786
-0.00161001
-0.00171416
-0.00182011
-0.00192761
-0.00203639
-0.00214611
-0.00225643
-0.00236694
-0.00247723
-0.00258681
-0.0026952
-0.00280186
-0.00290622
-0.0030077
-0.00310569
-0.00319956
-0.00328867
-0.00337237
-0.00345004
-0.00352102
-0.00358471
-0.00364051
-0.00368787
-0.00372627
-0.00375526
-0.00377442
-0.00378342
-0.00378202
-0.00377004
-0.00374741
-0.00371416
-0.00367042
-0.00361643
-0.00355256
-0.00347927
-0.00339716
-0.00330694
-0.00320943
-0.00310556
-0.00299636
-0.00288297
-0.0027666
-0.00264855
-0.00253016
-0.00241285
-0.00229804
-0.0021872
-0.00208176
-0.00198316
-0.00189279
-0.00181198
-0.00174198
-0.00168396
-0.00163896
-0.00160789
-0.00159154
-0.00159052
-0.00160527
-0.00163608
-0.00168303
-0.00174602
-0.0018248
-0.0019189
-0.0020277
-0.0021504
-0.00228607
-0.00243363
-0.00259187
-0.00275951
-0.00293516
-0.0031174
-0.00330474
-0.00349571
-0.00368882
-0.00388264
-0.00407576
-0.00426684
-0.00445463
-0.00463798
-0.00481583
-0.00498723
-0.00515138
-0.00530755
-0.00545516
-0.00559375
-0.00572293
-0.00584244
-0.00595209
-0.00605177
-0.00614142
-0.00622102
-0.00629055
-0.00635004
-0.00639945
-0.00643872
-0.00646775
-0.00648633
-0.00649417
-0.00649095
-0.0064762
-0.00644828
-0.00640381
-0.00635418
0.000590752
0.000553675
0.000510646
0.000467382
0.000422766
0.000376518
0.000328818
0.000279794
0.000229492
0.00017792
0.000125048
7.08143e-05
1.51307e-05
-4.21142e-05
-0.000101048
-0.000161808
-0.00022454
-0.000289387
-0.000356493
-0.000425994
-0.000498016
-0.000572674
-0.000650072
-0.000730296
-0.000813416
-0.000899484
-0.000988531
-0.00108057
-0.00117557
-0.00127352
-0.00137432
-0.00147789
-0.00158409
-0.00169275
-0.00180368
-0.00191662
-0.00203129
-0.00214738
-0.00226452
-0.00238229
-0.00250027
-0.00261795
-0.00273481
-0.0028503
-0.00296382
-0.00307474
-0.00318241
-0.00328616
-0.00338531
-0.00347917
-0.00356703
-0.00364822
-0.00372207
-0.00378792
-0.00384517
-0.00389326
-0.00393165
-0.0039599
-0.00397762
-0.00398451
-0.00398036
-0.00396504
-0.00393855
-0.00390098
-0.00385253
-0.00379354
-0.00372445
-0.00364584
-0.0035584
-0.00346294
-0.00336039
-0.00325177
-0.00313823
-0.003021
-0.00290138
-0.00278075
-0.00266054
-0.00254223
-0.0024273
-0.00231724
-0.00221354
-0.00211764
-0.00203093
-0.00195472
-0.00189023
-0.00183858
-0.00180075
-0.00177757
-0.00176972
-0.00177772
-0.00180189
-0.00184238
-0.00189914
-0.00197195
-0.0020604
-0.00216387
-0.00228161
-0.00241268
-0.00255603
-0.00271044
-0.00287463
-0.00304719
-0.00322668
-0.00341161
-0.00360045
-0.00379172
-0.00398392
-0.00417562
-0.00436547
-0.00455217
-0.00473455
-0.00491152
-0.00508213
-0.00524554
-0.00540103
-0.00554801
-0.00568601
-0.00581466
-0.0059337
-0.00604296
-0.00614234
-0.00623179
-0.00631132
-0.00638093
-0.00644065
-0.00649047
-0.00653035
-0.00656018
-0.00657977
-0.00658884
-0.00658707
-0.00657403
-0.00654816
-0.00650624
-0.00645921
0.000682835
0.000638004
0.000587235
0.000537782
0.000488076
0.000437608
0.000386468
0.000334697
0.000282249
0.000229039
0.000174953
0.00011985
6.35635e-05
5.91301e-06
-5.3295e-05
-0.00011426
-0.000177184
-0.000242262
-0.000309688
-0.000379641
-0.000452292
-0.000527793
-0.000606284
-0.000687885
-0.000772698
-0.000860805
-0.000952263
-0.00104711
-0.00114534
-0.00124696
-0.00135189
-0.00146006
-0.00157135
-0.0016856
-0.00180261
-0.00192214
-0.00204391
-0.00216758
-0.00229278
-0.00241909
-0.00254604
-0.00267312
-0.00279977
-0.00292541
-0.0030494
-0.00317107
-0.00328972
-0.00340465
-0.0035151
-0.00362034
-0.00371962
-0.00381219
-0.00389732
-0.00397431
-0.00404249
-0.00410123
-0.00414995
-0.00418815
-0.00421538
-0.00423129
-0.00423561
-0.00422818
-0.00420894
-0.00417794
-0.00413536
-0.00408148
-0.00401674
-0.00394168
-0.00385697
-0.00376341
-0.00366192
-0.00355353
-0.00343939
-0.00332073
-0.00319888
-0.00307524
-0.00295126
-0.00282847
-0.00270838
-0.00259255
-0.00248249
-0.00237973
-0.0022857
-0.0022018
-0.00212931
-0.00206942
-0.00202318
-0.00199151
-0.00197515
-0.0019747
-0.00199055
-0.00202292
-0.00207182
-0.00213707
-0.00221831
-0.00231498
-0.00242635
-0.00255152
-0.00268942
-0.00283888
-0.00299859
-0.00316715
-0.00334309
-0.00352491
-0.00371105
-0.0039
-0.00409022
-0.00428026
-0.00446872
-0.00465427
-0.0048357
-0.00501191
-0.0051819
-0.00534481
-0.00549991
-0.00564659
-0.00578437
-0.00591289
-0.00603188
-0.00614118
-0.00624069
-0.00633039
-0.00641028
-0.00648039
-0.00654077
-0.00659142
-0.00663231
-0.00666335
-0.00668437
-0.00669512
-0.00669528
-0.00668445
-0.00666117
-0.00662245
-0.00657862
0.000776276
0.000723387
0.000664572
0.000608678
0.000553667
0.000498783
0.000444023
0.000389331
0.000334558
0.000279522
0.000224017
0.000167815
0.000110672
5.23298e-05
-7.47233e-06
-6.8998e-05
-0.000132507
-0.00019825
-0.00026647
-0.000337393
-0.000411232
-0.00048818
-0.000568414
-0.000652088
-0.000739336
-0.00083027
-0.000924976
-0.00102351
-0.00112591
-0.00123218
-0.00134227
-0.00145612
-0.00157362
-0.00169462
-0.00181892
-0.00194628
-0.00207641
-0.00220897
-0.00234358
-0.00247978
-0.00261709
-0.00275497
-0.00289283
-0.00303003
-0.00316591
-0.00329974
-0.00343079
-0.00355828
-0.00368141
-0.00379938
-0.00391138
-0.00401661
-0.00411427
-0.0042036
-0.00428385
-0.00435435
-0.00441445
-0.00446357
-0.00450123
-0.004527
-0.00454057
-0.00454172
-0.00453035
-0.00450645
-0.00447017
-0.00442176
-0.00436162
-0.00429025
-0.00420832
-0.0041166
-0.00401601
-0.00390757
-0.00379242
-0.00367182
-0.00354711
-0.0034197
-0.00329109
-0.00316283
-0.00303649
-0.00291366
-0.00279594
-0.00268489
-0.00258204
-0.00248884
-0.00240667
-0.00233679
-0.00228034
-0.00223833
-0.00221158
-0.00220078
-0.0022064
-0.00222874
-0.00226789
-0.00232373
-0.00239597
-0.0024841
-0.00258744
-0.00270511
-0.00283609
-0.0029792
-0.00313316
-0.00329655
-0.00346791
-0.0036457
-0.00382836
-0.00401432
-0.00420203
-0.00438998
-0.00457674
-0.00476094
-0.00494134
-0.00511677
-0.00528622
-0.00544879
-0.00560373
-0.0057504
-0.00588831
-0.00601706
-0.00613641
-0.00624617
-0.00634626
-0.00643665
-0.00651736
-0.00658844
-0.00664992
-0.00670185
-0.00674419
-0.00677689
-0.00679979
-0.00681266
-0.0068152
-0.00680706
-0.00678688
-0.00675191
-0.00671179
0.000869802
0.000808595
0.000741475
0.000678934
0.000618442
0.000558987
0.00050046
0.000442699
0.000385448
0.000328417
0.0002713
0.00021378
0.000155526
9.62038e-05
3.54791e-05
-2.69772e-05
-9.14853e-05
-0.000158353
-0.000227872
-0.000300318
-0.000375946
-0.000454991
-0.000537667
-0.000624164
-0.000714649
-0.000809263
-0.000908121
-0.00101131
-0.00111888
-0.00123085
-0.0013472
-0.00146789
-0.0015928
-0.0017218
-0.00185468
-0.0019912
-0.00213107
-0.00227393
-0.00241938
-0.00256694
-0.00271609
-0.00286627
-0.00301684
-0.00316713
-0.00331642
-0.00346394
-0.00360889
-0.00375043
-0.00388772
-0.00401988
-0.00414604
-0.00426533
-0.00437688
-0.00447986
-0.00457347
-0.00465695
-0.00472959
-0.00479076
-0.00483989
-0.00487651
-0.00490023
-0.00491079
-0.00490803
-0.0048919
-0.00486249
-0.00482002
-0.00476483
-0.00469743
-0.00461843
-0.00452859
-0.00442881
-0.00432011
-0.00420363
-0.00408062
-0.00395244
-0.00382055
-0.00368644
-0.00355172
-0.003418
-0.00328693
-0.00316016
-0.00303933
-0.00292604
-0.00282183
-0.00272816
-0.00264639
-0.00257776
-0.00252336
-0.00248413
-0.00246085
-0.0024541
-0.00246426
-0.00249151
-0.00253583
-0.002597
-0.00267458
-0.00276793
-0.00287624
-0.00299853
-0.00313364
-0.00328031
-0.00343713
-0.00360262
-0.00377523
-0.00395339
-0.00413549
-0.00431994
-0.00450521
-0.0046898
-0.00487232
-0.00505144
-0.00522598
-0.00539488
-0.0055572
-0.00571213
-0.00585902
-0.00599734
-0.00612669
-0.00624677
-0.00635742
-0.00645853
-0.00655008
-0.00663208
-0.00670459
-0.00676766
-0.00682133
-0.00686559
-0.0069004
-0.00692564
-0.0069411
-0.00694647
-0.00694146
-0.00692484
-0.0068941
-0.00685811
0.000962099
0.000892352
0.000816712
0.000747357
0.000681248
0.000617099
0.000554689
0.00049374
0.000433876
0.000374695
0.000315785
0.000256731
0.000197113
0.000136515
7.45279e-05
1.0754e-05
-5.51893e-05
-0.000123667
-0.000195023
-0.00026958
-0.00034764
-0.000429478
-0.000515347
-0.000605471
-0.000700052
-0.000799261
-0.000903241
-0.0010121
-0.00112592
-0.00124473
-0.00136854
-0.0014973
-0.00163091
-0.00176924
-0.00191208
-0.0020592
-0.00221027
-0.00236492
-0.00252273
-0.00268321
-0.00284579
-0.00300986
-0.00317476
-0.00333976
-0.00350409
-0.00366692
-0.00382739
-0.00398461
-0.00413765
-0.00428558
-0.00442745
-0.00456232
-0.00468925
-0.00480734
-0.00491571
-0.00501353
-0.00510002
-0.00517448
-0.00523627
-0.00528485
-0.00531978
-0.00534072
-0.00534745
-0.00533988
-0.00531804
-0.00528211
-0.00523238
-0.00516932
-0.00509351
-0.00500569
-0.00490673
-0.00479765
-0.00467957
-0.00455375
-0.00442157
-0.00428449
-0.00414405
-0.00400187
-0.00385963
-0.00371902
-0.00358178
-0.00344959
-0.00332416
-0.00320711
-0.00309999
-0.00300427
-0.0029213
-0.00285229
-0.00279829
-0.00276018
-0.00273867
-0.00273425
-0.0027472
-0.00277762
-0.00282535
-0.00289007
-0.00297121
-0.00306801
-0.00317955
-0.00330472
-0.00344228
-0.00359083
-0.00374891
-0.00391495
-0.00408735
-0.0042645
-0.00444476
-0.00462654
-0.00480832
-0.00498863
-0.00516612
-0.00533954
-0.00550776
-0.0056698
-0.00582481
-0.00597209
-0.00611107
-0.00624132
-0.00636251
-0.00647445
-0.00657703
-0.00667019
-0.00675397
-0.0068284
-0.00689355
-0.00694945
-0.00699612
-0.00703352
-0.00706157
-0.00708005
-0.00708869
-0.00708724
-0.00707458
-0.00704847
-0.00701695
0.0010518
0.000973334
0.000889001
0.000812704