/*--------------------------------*- C++ -*----------------------------------*\
  =========                 |
  \\      /  F ield         | OpenFOAM: The Open Source CFD Toolbox
   \\    /   O peration     | Website:  https://openfoam.org
    \\  /    A nd           | Version:  12
     \\/     M anipulation  |
\*---------------------------------------------------------------------------*/
FoamFile
{
    format      ascii;
    class       surfaceScalarField;
    location    "3";
    object      phi;
}
// * * * * * * * * * * * * * * * * * * * * * * * * * * * * * * * * * * * * * //

dimensions      [0 3 -1 0 0 0 0];

internalField   nonuniform List<scalar> 
36180
(
3.30256e-11
-3.32891e-11
1.64581e-10
-1.31553e-10
3.65422e-10
-2.00829e-10
5.97173e-10
-2.31738e-10
8.29702e-10
-2.32519e-10
1.04147e-09
-2.11755e-10
1.21775e-09
-1.76273e-10
1.34899e-09
-1.31243e-10
1.42946e-09
-8.04638e-11
1.45612e-09
-2.66588e-11
1.42787e-09
2.82535e-11
1.34489e-09
8.2975e-11
1.20825e-09
1.3664e-10
1.01952e-09
1.88724e-10
7.80558e-10
2.38956e-10
4.9331e-10
2.87241e-10
1.59684e-10
3.33618e-10
-2.18535e-10
3.7821e-10
-6.39752e-10
4.2121e-10
-1.1026e-09
4.62836e-10
-1.60592e-09
5.03315e-10
-2.14879e-09
5.42867e-10
-2.7305e-09
5.817e-10
-3.35051e-09
6.20002e-10
-4.00844e-09
6.5793e-10
-4.70405e-09
6.95606e-10
-5.43717e-09
7.33116e-10
-6.20768e-09
7.70508e-10
-7.01548e-09
8.07791e-10
-7.86042e-09
8.44939e-10
-8.74231e-09
8.81889e-10
-9.66086e-09
9.18544e-10
-1.06156e-08
9.54777e-10
-1.16061e-08
9.90429e-10
-1.26314e-08
1.02531e-09
-1.36906e-08
1.05922e-09
-1.47825e-08
1.09192e-09
-1.59057e-08
1.12316e-09
-1.70584e-08
1.15267e-09
-1.82386e-08
1.18016e-09
-1.94439e-08
1.20533e-09
-2.06718e-08
1.22788e-09
-2.19193e-08
1.24749e-09
-2.31831e-08
1.26383e-09
-2.44597e-08
1.27659e-09
-2.57451e-08
1.28543e-09
-2.70352e-08
1.29003e-09
-2.83252e-08
1.29008e-09
-2.96105e-08
1.28527e-09
-3.08858e-08
1.27531e-09
-3.21458e-08
1.25992e-09
-3.33846e-08
1.23883e-09
-3.45964e-08
1.21182e-09
-3.57751e-08
1.17868e-09
-3.69143e-08
1.13924e-09
-3.80077e-08
1.09335e-09
-3.90486e-08
1.04091e-09
-4.00305e-08
9.81873e-10
-4.09467e-08
9.1622e-10
-4.17907e-08
8.43993e-10
-4.2556e-08
7.65283e-10
-4.32362e-08
6.80239e-10
-4.38253e-08
5.89068e-10
-4.43173e-08
4.92033e-10
-4.47068e-08
3.8945e-10
-4.49884e-08
2.81671e-10
-4.51575e-08
1.69112e-10
-4.52104e-08
5.29055e-11
-4.5143e-08
-6.74833e-11
-4.49523e-08
-1.90657e-10
-4.46362e-08
-3.16126e-10
-4.4193e-08
-4.4315e-10
-4.36221e-08
-5.70947e-10
-4.29234e-08
-6.98692e-10
-4.20979e-08
-8.2553e-10
-4.11473e-08
-9.50576e-10
-4.00744e-08
-1.07293e-09
-3.88827e-08
-1.19168e-09
-3.75768e-08
-1.30591e-09
-3.61621e-08
-1.41472e-09
-3.46448e-08
-1.51723e-09
-3.30322e-08
-1.61259e-09
-3.13323e-08
-1.69999e-09
-2.95536e-08
-1.77866e-09
-2.77057e-08
-1.84792e-09
-2.57985e-08
-1.90714e-09
-2.38428e-08
-1.95578e-09
-2.18494e-08
-1.99338e-09
-1.98298e-08
-2.0196e-09
-1.77956e-08
-2.03418e-09
-1.57586e-08
-2.03697e-09
-1.37307e-08
-2.02796e-09
-1.17234e-08
-2.00723e-09
-9.74849e-09
-1.97496e-09
-7.81701e-09
-1.93148e-09
-5.93981e-09
-1.87719e-09
-4.12718e-09
-1.81263e-09
-2.38878e-09
-1.7384e-09
-7.33562e-10
-1.65522e-09
8.303e-10
-1.56386e-09
2.29548e-09
-1.46518e-09
3.65557e-09
-1.36009e-09
4.90508e-09
-1.24951e-09
6.0395e-09
-1.13442e-09
7.05534e-09
-1.01584e-09
7.9501e-09
-8.94761e-10
8.72225e-09
-7.72146e-10
9.37121e-09
-6.48959e-10
9.89734e-09
-5.26131e-10
1.03019e-08
-4.04551e-10
1.05869e-08
-2.85059e-10
1.07554e-08
-1.68442e-10
1.08108e-08
-5.54345e-11
1.07575e-08
5.32909e-11
1.06004e-08
1.5709e-10
1.0345e-08
2.55405e-10
9.99737e-09
3.4767e-10
9.56403e-09
4.33333e-10
9.05219e-09
5.11839e-10
8.46959e-09
5.82604e-10
7.82461e-09
6.44979e-10
7.1264e-09
6.98208e-10
6.38501e-09
7.41387e-10
5.61161e-09
7.73405e-10
4.81872e-09
7.92889e-10
4.02058e-09
7.98137e-10
3.23353e-09
7.87051e-10
2.47644e-09
7.57093e-10
1.77116e-09
7.05278e-10
1.14282e-09
6.28339e-10
6.19572e-10
5.2325e-10
2.31066e-10
3.88506e-10
3.73755e-12
2.27328e-10
-5.45907e-11
5.83281e-11
-5.45908e-11
1.31953e-10
-1.65265e-10
4.60181e-10
-4.59789e-10
9.12542e-10
-6.53183e-10
1.4164e-09
-7.35581e-10
1.90994e-09
-7.26056e-10
2.34525e-09
-6.47054e-10
2.68719e-09
-5.18202e-10
2.91129e-09
-3.55338e-10
3.00156e-09
-1.70726e-10
2.94848e-09
2.64288e-11
2.74734e-09
2.29385e-10
2.39697e-09
4.33344e-10
1.89861e-09
6.35001e-10
1.2551e-09
8.32223e-10
4.70272e-10
1.02378e-09
-4.5161e-10
1.20911e-09
-1.50617e-09
1.38817e-09
-2.68919e-09
1.56122e-09
-3.99675e-09
1.72876e-09
-5.42536e-09
1.89143e-09
-6.97198e-09
2.04993e-09
-8.63409e-09
2.20497e-09
-1.04096e-08
2.35724e-09
-1.2297e-08
2.50732e-09
-1.42948e-08
2.65572e-09
-1.6402e-08
2.80282e-09
-1.86177e-08
2.94887e-09
-2.09412e-08
3.09399e-09
-2.33716e-08
3.23816e-09
-2.59079e-08
3.38122e-09
-2.85489e-08
3.52291e-09
-3.12932e-08
3.66281e-09
-3.41388e-08
3.8004e-09
-3.70835e-08
3.93507e-09
-4.01242e-08
4.06607e-09
-4.32576e-08
4.19259e-09
-4.64794e-08
4.31373e-09
-4.97848e-08
4.42853e-09
-5.31681e-08
4.53595e-09
-5.66228e-08
4.6349e-09
-6.01417e-08
4.72427e-09
-6.37167e-08
4.80287e-09
-6.73388e-08
4.86954e-09
-7.0998e-08
4.92308e-09
-7.46837e-08
4.96227e-09
-7.83842e-08
4.98593e-09
-8.20871e-08
4.99288e-09
-8.5779e-08
4.98199e-09
-8.94459e-08
4.95215e-09
-9.30729e-08
4.90232e-09
-9.66445e-08
4.83153e-09
-1.00145e-07
4.7389e-09
-1.03556e-07
4.62364e-09
-1.06863e-07
4.48506e-09
-1.10046e-07
4.32261e-09
-1.13089e-07
4.13588e-09
-1.15972e-07
3.92461e-09
-1.18679e-07
3.6887e-09
-1.21191e-07
3.42822e-09
-1.23491e-07
3.14345e-09
-1.2556e-07
2.83484e-09
-1.27383e-07
2.50307e-09
-1.28943e-07
2.14901e-09
-1.30225e-07
1.77377e-09
-1.31214e-07
1.37863e-09
-1.31897e-07
9.65085e-10
-1.32263e-07
5.34753e-10
-1.32301e-07
9.06239e-11
-1.32002e-07
-3.66467e-10
-1.31359e-07
-8.33577e-10
-1.30367e-07
-1.30814e-09
-1.29023e-07
-1.78741e-09
-1.27325e-07
-2.26851e-09
-1.25275e-07
-2.74841e-09
-1.22877e-07
-3.22398e-09
-1.20135e-07
-3.69199e-09
-1.17059e-07
-4.14917e-09
-1.13659e-07
-4.59223e-09
-1.09947e-07
-5.01788e-09
-1.05938e-07
-5.42288e-09
-1.01652e-07
-5.80407e-09
-9.71058e-08
-6.15841e-09
-9.23228e-08
-6.48301e-09
-8.73263e-08
-6.77516e-09
-8.21418e-08
-7.0324e-09
-7.67964e-08
-7.25251e-09
-7.13186e-08
-7.43357e-09
-6.5738e-08
-7.57397e-09
-6.00851e-08
-7.67246e-09
-5.43912e-08
-7.72814e-09
-4.86876e-08
-7.74051e-09
-4.30062e-08
-7.70944e-09
-3.73782e-08
-7.63523e-09
-3.18346e-08
-7.51857e-09
-2.64055e-08
-7.36054e-09
-2.11201e-08
-7.1626e-09
-1.60061e-08
-6.9266e-09
-1.10898e-08
-6.65472e-09
-6.39557e-09
-6.34946e-09
-1.94584e-09
-6.01359e-09
2.23913e-09
-5.65016e-09
6.14143e-09
-5.26238e-09
9.74558e-09
-4.85366e-09
1.30387e-08
-4.42753e-09
1.60104e-08
-3.98756e-09
1.8653e-08
-3.53735e-09
2.09613e-08
-3.08051e-09
2.2933e-08
-2.62057e-09
2.45678e-08
-2.16097e-09
2.58683e-08
-1.70504e-09
2.68392e-08
-1.25595e-09
2.74874e-08
-8.16692e-10
2.78221e-08
-3.90098e-10
2.78542e-08
2.11949e-11
2.75966e-08
4.14627e-10
2.70641e-08
7.87946e-10
2.62729e-08
1.13887e-09
2.52411e-08
1.4651e-09
2.39886e-08
1.7644e-09
2.25368e-08
2.03439e-09
2.09093e-08
2.27248e-09
1.91318e-08
2.47574e-09
1.72324e-08
2.64077e-09
1.52423e-08
2.76353e-09
1.31959e-08
2.83922e-09
1.1132e-08
2.8621e-09
9.09358e-09
2.82544e-09
7.12916e-09
2.72151e-09
5.2926e-09
2.54184e-09
3.64283e-09
2.2781e-09
2.24204e-09
1.92404e-09
1.15087e-09
1.47968e-09
4.18058e-10
9.60137e-10
5.84252e-11
4.1796e-10
3.83426e-12
2.03085e-10
-3.68386e-10
6.57199e-10
-9.13922e-10
1.24723e-09
-1.24322e-09
1.87913e-09
-1.36748e-09
2.47445e-09
-1.32137e-09
2.97053e-09
-1.14313e-09
3.31968e-09
-8.6734e-10
3.48726e-09
-5.22913e-10
3.44951e-09
-1.32967e-10
3.19136e-09
2.84578e-10
2.70454e-09
7.16207e-10
1.98584e-09
1.15204e-09
1.03571e-09
1.58513e-09
-1.42892e-10
2.01082e-09
-1.54539e-09
2.42627e-09
-3.16629e-09
2.83e-09
-4.99972e-09
3.22159e-09
-7.03984e-09
3.60133e-09
-9.28111e-09
3.97003e-09
-1.17185e-08
4.32882e-09
-1.43476e-08
4.67898e-09
-1.71644e-08
5.02183e-09
-2.01658e-08
5.35862e-09
-2.3349e-08
5.69046e-09
-2.67115e-08
6.01827e-09
-3.02514e-08
6.34271e-09
-3.39667e-08
6.66421e-09
-3.78557e-08
6.9829e-09
-4.19162e-08
7.29865e-09
-4.6146e-08
7.61104e-09
-5.05425e-08
7.91939e-09
-5.51024e-08
8.22275e-09
-5.98219e-08
8.51994e-09
-6.46964e-08
8.80955e-09
-6.97203e-08
9.08996e-09
-7.48871e-08
9.35937e-09
-8.01892e-08
9.6158e-09
-8.56178e-08
9.85714e-09
-9.1163e-08
1.00811e-08
-9.68136e-08
1.02855e-08
-1.02557e-07
1.04677e-08
-1.08379e-07
1.06253e-08
-1.14266e-07
1.07557e-08
-1.20199e-07
1.08565e-08
-1.26162e-07
1.09251e-08
-1.32135e-07
1.0959e-08
-1.38098e-07
1.09557e-08
-1.44029e-07
1.09128e-08
-1.49905e-07
1.08282e-08
-1.55702e-07
1.06997e-08
-1.61396e-07
1.05254e-08
-1.6696e-07
1.03034e-08
-1.72369e-07
1.00323e-08
-1.77595e-07
9.71082e-09
-1.8261e-07
9.33791e-09
-1.87387e-07
8.91288e-09
-1.91898e-07
8.43539e-09
-1.96115e-07
7.90542e-09
-2.0001e-07
7.32335e-09
-2.03556e-07
6.68994e-09
-2.06728e-07
6.0064e-09
-2.09499e-07
5.27433e-09
-2.11846e-07
4.49581e-09
-2.13745e-07
3.67333e-09
-2.15177e-07
2.80987e-09
-2.1612e-07
1.90879e-09
-2.1656e-07
9.73994e-10
-2.16479e-07
1.01858e-11
-2.15867e-07
-9.78509e-10
-2.14714e-07
-1.98678e-09
-2.13013e-07
-3.00912e-09
-2.10761e-07
-4.03971e-09
-2.07957e-07
-5.07242e-09
-2.04604e-07
-6.10088e-09
-2.0071e-07
-7.11852e-09
-1.96283e-07
-8.11863e-09
-1.91338e-07
-9.09438e-09
-1.85891e-07
-1.00389e-08
-1.79964e-07
-1.09455e-08
-1.73579e-07
-1.18074e-08
-1.66765e-07
-1.2618e-08
-1.59552e-07
-1.33712e-08
-1.51974e-07
-1.40611e-08
-1.44068e-07
-1.46819e-08
-1.35871e-07
-1.52288e-08
-1.27427e-07
-1.56971e-08
-1.18777e-07
-1.6083e-08
-1.09968e-07
-1.6383e-08
-1.01046e-07
-1.65948e-08
-9.20576e-08
-1.67163e-08
-8.30516e-08
-1.67465e-08
-7.40757e-08
-1.66853e-08
-6.51779e-08
-1.65331e-08
-5.64051e-08
-1.62914e-08
-4.78034e-08
-1.59622e-08
-3.94173e-08
-1.55487e-08
-3.12895e-08
-1.50544e-08
-2.34603e-08
-1.4484e-08
-1.59673e-08
-1.38424e-08
-8.84561e-09
-1.31353e-08
-2.12671e-09
-1.23691e-08
4.16113e-09
-1.15502e-08
9.9933e-09
-1.06858e-08
1.53489e-08
-9.78316e-09
2.0211e-08
-8.84967e-09
2.45666e-08
-7.89289e-09
2.84064e-08
-6.92036e-09
3.17254e-08
-5.93955e-09
3.45222e-08
-4.95776e-09
3.67992e-08
-3.98206e-09
3.85625e-08
-3.01927e-09
3.98217e-08
-2.07588e-09
4.05897e-08
-1.15807e-09
4.08826e-08
-2.71702e-10
4.07196e-08
5.77686e-10
4.01227e-08
1.38483e-09
3.91169e-08
2.1446e-09
3.77301e-08
2.85193e-09
3.59928e-08
3.50169e-09
3.39387e-08
4.08854e-09
3.16044e-08
4.60677e-09
2.90301e-08
5.05002e-09
2.62598e-08
5.41107e-09
2.33417e-08
5.68161e-09
2.0329e-08
5.85199e-09
1.728e-08
5.91109e-09
1.42591e-08
5.84629e-09
1.13369e-08
5.64367e-09
8.5899e-09
5.28888e-09
6.0991e-09
4.7689e-09
3.94736e-09
4.07578e-09
2.21343e-09
3.21361e-09
9.61997e-10
2.21157e-09
2.28e-10
1.15196e-09
2.31834e-10
2.35518e-10
-6.03939e-10
7.42109e-10
-1.42054e-09
1.37347e-09
-1.87459e-09
2.0186e-09
-2.0126e-09
2.58841e-09
-1.89117e-09
3.01195e-09
-1.56666e-09
3.23442e-09
-1.08979e-09
3.21509e-09
-5.0358e-10
2.92523e-09
1.56897e-10
2.34592e-09
8.63892e-10
1.46605e-09
1.59607e-09
2.80564e-10
2.33753e-09
-1.21112e-09
3.0768e-09
-3.00635e-09
3.80604e-09
-5.10037e-09
4.52028e-09
-7.48713e-09
5.21676e-09
-1.016e-08
5.89443e-09
-1.31121e-08
6.55346e-09
-1.6337e-08
7.19489e-09
-1.98285e-08
7.82028e-09
-2.3581e-08
8.43148e-09
-2.75896e-08
9.03043e-09
-3.18499e-08
9.61895e-09
-3.63581e-08
1.01987e-08
-4.11108e-08
1.07709e-08
-4.61046e-08
1.13366e-08
-5.13366e-08
1.18961e-08
-5.68034e-08
1.24497e-08
-6.25017e-08
1.29969e-08
-6.84274e-08
1.35368e-08
-7.45762e-08
1.40681e-08
-8.09425e-08
1.45891e-08
-8.75201e-08
1.50976e-08
-9.43017e-08
1.55911e-08
-1.01279e-07
1.60669e-08
-1.08441e-07
1.65216e-08
-1.15777e-07
1.6952e-08
-1.23274e-07
1.73542e-08
-1.30918e-07
1.77246e-08
-1.38691e-07
1.8059e-08
-1.46577e-07
1.83532e-08
-1.54555e-07
1.86032e-08
-1.62603e-07
1.88045e-08
-1.707e-07
1.8953e-08
-1.78819e-07
1.90443e-08
-1.86934e-07
1.90742e-08
-1.95018e-07
1.90389e-08
-2.03039e-07
1.89343e-08
-2.10968e-07
1.87569e-08
-2.18771e-07
1.85032e-08
-2.26416e-07
1.81701e-08
-2.33867e-07
1.77549e-08
-2.4109e-07
1.72552e-08
-2.48049e-07
1.66692e-08
-2.54706e-07
1.59955e-08
-2.61026e-07
1.52331e-08
-2.66973e-07
1.43819e-08
-2.7251e-07
1.3442e-08
-2.77601e-07
1.24145e-08
-2.82212e-07
1.1301e-08
-2.86309e-07
1.01039e-08
-2.89861e-07
8.82606e-09
-2.92837e-07
7.47141e-09
-2.95208e-07
6.04444e-09
-2.96948e-07
4.55038e-09
-2.98035e-07
2.99523e-09
-2.98446e-07
1.38574e-09
-2.98166e-07
-2.70566e-10
-2.97178e-07
-1.96581e-09
-2.95474e-07
-3.69127e-09
-2.93045e-07
-5.43766e-09
-2.8989e-07
-7.19519e-09
-2.86009e-07
-8.95359e-09
-2.81407e-07
-1.07022e-08
-2.76096e-07
-1.24302e-08
-2.70088e-07
-1.41263e-08
-2.63403e-07
-1.57794e-08
-2.56064e-07
-1.73781e-08
-2.48098e-07
-1.89112e-08
-2.39538e-07
-2.03678e-08
-2.30418e-07
-2.17372e-08
-2.2078e-07
-2.30092e-08
-2.10668e-07
-2.4174e-08
-2.00127e-07
-2.52226e-08
-1.89209e-07
-2.61468e-08
-1.77967e-07
-2.6939e-08
-1.66457e-07
-2.7593e-08
-1.54737e-07
-2.81033e-08
-1.42866e-07
-2.84656e-08
-1.30905e-07
-2.86771e-08
-1.18916e-07
-2.87358e-08
-1.0696e-07
-2.86413e-08
-9.50985e-08
-2.83945e-08
-8.33923e-08
-2.79975e-08
-7.19006e-08
-2.74539e-08
-6.06808e-08
-2.67684e-08
-4.97882e-08
-2.59471e-08
-3.9275e-08
-2.49971e-08
-2.91907e-08
-2.39267e-08
-1.95809e-08
-2.27452e-08
-1.04873e-08
-2.14626e-08
-1.94753e-09
-2.009e-08
6.0054e-09
-1.86388e-08
1.33432e-08
-1.71209e-08
2.00423e-08
-1.55488e-08
2.60843e-08
-1.39349e-08
3.14557e-08
-1.22918e-08
3.6148e-08
-1.06319e-08
4.0158e-08
-8.96768e-09
4.34869e-08
-7.31098e-09
4.6141e-08
-5.67344e-09
4.81313e-08
-4.06618e-09
4.94731e-08
-2.49987e-09
5.01862e-08
-9.84744e-10
5.02943e-08
4.69518e-10
4.98256e-08
1.85357e-09
4.88118e-08
3.15838e-09
4.72888e-08
4.37498e-09
4.52962e-08
5.49429e-09
4.28778e-08
6.50695e-09
4.00815e-08
7.40305e-09
3.69597e-08
8.17177e-09
3.35697e-08
8.80107e-09
2.99739e-08
9.27739e-09
2.62405e-08
9.58541e-09
2.24437e-08
9.7079e-09
1.86641e-08
9.62587e-09
1.49887e-08
9.3191e-09
1.151e-08
8.7676e-09
8.32465e-09
7.95423e-09
5.53059e-09
6.86985e-09
3.22236e-09
5.52183e-09
1.48527e-09
3.94866e-09
3.90364e-10
2.24687e-09
6.22198e-10
2.36651e-10
-8.40626e-10
7.29923e-10
-1.91384e-09
1.31726e-09
-2.46194e-09
1.87667e-09
-2.57201e-09
2.31243e-09
-2.32693e-09
2.54916e-09
-1.80338e-09
2.52852e-09
-1.06915e-09
2.20684e-09
-1.81885e-10
1.55276e-09
8.10981e-10
5.45202e-10
1.87145e-09
-8.28634e-10
2.96991e-09
-2.57504e-09
4.08393e-09
-4.69538e-09
5.19714e-09
-7.18744e-09
6.29809e-09
-1.00465e-08
7.37937e-09
-1.32665e-08
8.43667e-09
-1.68402e-08
9.46813e-09
-2.07603e-08
1.04736e-08
-2.50197e-08
1.14543e-08
-2.96114e-08
1.2412e-08
-3.45291e-08
1.33492e-08
-3.97669e-08
1.42682e-08
-4.53196e-08
1.51716e-08
-5.11821e-08
1.60612e-08
-5.735e-08
1.69388e-08
-6.38188e-08
1.78053e-08
-7.0584e-08
1.86613e-08
-7.76408e-08
1.95065e-08
-8.49841e-08
2.03401e-08
-9.26078e-08
2.11606e-08
-1.00505e-07
2.19656e-08
-1.08669e-07
2.27525e-08
-1.17089e-07
2.35179e-08
-1.25756e-07
2.42578e-08
-1.34657e-07
2.49678e-08
-1.43778e-07
2.5643e-08
-1.53104e-07
2.62783e-08
-1.62618e-07
2.68679e-08
-1.723e-07
2.74061e-08
-1.82128e-07
2.78869e-08
-1.92078e-07
2.83038e-08
-2.02126e-07
2.86507e-08
-2.12242e-07
2.89212e-08
-2.22399e-07
2.9109e-08
-2.32562e-07
2.92078e-08
-2.42699e-07
2.92115e-08
-2.52775e-07
2.91143e-08
-2.62751e-07
2.89105e-08
-2.72589e-07
2.85951e-08
-2.82249e-07
2.81631e-08
-2.91689e-07
2.76104e-08
-3.00868e-07
2.69331e-08
-3.09741e-07
2.61282e-08
-3.18265e-07
2.51932e-08
-3.26396e-07
2.41266e-08
-3.3409e-07
2.29274e-08
-3.41304e-07
2.15956e-08
-3.47994e-07
2.01323e-08
-3.54119e-07
1.85392e-08
-3.59637e-07
1.68194e-08
-3.6451e-07
1.49767e-08
-3.687e-07
1.30161e-08
-3.72172e-07
1.09436e-08
-3.74894e-07
8.76636e-09
-3.76836e-07
6.49246e-09
-3.77972e-07
4.13114e-09
-3.78279e-07
1.69263e-09
-3.77738e-07
-8.11843e-10
-3.76333e-07
-3.37022e-09
-3.74055e-07
-5.96954e-09
-3.70897e-07
-8.59602e-09
-3.66857e-07
-1.12352e-08
-3.61938e-07
-1.38719e-08
-3.5615e-07
-1.64905e-08
-3.49505e-07
-1.90751e-08
-3.42022e-07
-2.16094e-08
-3.33724e-07
-2.40771e-08
-3.24641e-07
-2.64616e-08
-3.14805e-07
-2.87469e-08
-3.04256e-07
-3.0917e-08
-2.93037e-07
-3.29565e-08
-2.81195e-07
-3.48507e-08
-2.68784e-07
-3.65855e-08
-2.55858e-07
-3.81479e-08
-2.42479e-07
-3.9526e-08
-2.28709e-07
-4.07091e-08
-2.14614e-07
-4.16879e-08
-2.00263e-07
-4.24546e-08
-1.85726e-07
-4.30031e-08
-1.71074e-07
-4.3329e-08
-1.5638e-07
-4.34296e-08
-1.41717e-07
-4.33042e-08
-1.27157e-07
-4.29539e-08
-1.12773e-07
-4.23816e-08
-9.8635e-08
-4.15923e-08
-8.48106e-08
-4.05928e-08
-7.13661e-08
-3.93916e-08
-5.83644e-08
-3.79989e-08
-4.58646e-08
-3.64265e-08
-3.3922e-08
-3.46877e-08
-2.25874e-08
-3.27972e-08
-1.19069e-08
-3.07705e-08
-1.92129e-09
-2.86244e-08
7.33403e-09
-2.63762e-08
1.58293e-08
-2.4044e-08
2.35404e-08
-2.1646e-08
3.04492e-08
-1.92006e-08
3.65437e-08
-1.67264e-08
4.18176e-08
-1.42415e-08
4.62705e-08
-1.17639e-08
4.99078e-08
-9.31078e-09
5.27407e-08
-6.8991e-09
5.47859e-08
-4.54503e-09
5.60652e-08
-2.26407e-09
5.66059e-08
-7.11882e-11
5.64403e-08
2.01916e-09
5.56057e-08
3.99302e-09
5.41441e-08
5.83655e-09
5.21027e-08
7.53568e-09
4.95336e-08
9.07611e-09
4.64938e-08
1.04428e-08
4.30459e-08
1.16197e-08
3.92579e-08
1.25891e-08
3.52038e-08
1.33315e-08
3.09637e-08
1.38255e-08
2.66244e-08
1.40473e-08
2.22787e-08
1.39715e-08
1.80262e-08
1.35717e-08
1.39715e-08
1.28222e-08
1.02239e-08
1.17019e-08
6.89451e-09
1.01992e-08
4.09486e-09
8.32148e-09
1.93501e-09
6.10851e-09
5.26764e-10
3.65511e-09
1.14896e-09
2.13753e-10
-1.05441e-09
6.38715e-10
-2.33883e-09
1.10801e-09
-2.93125e-09
1.4952e-09
-2.9592e-09
1.70196e-09
-2.53369e-09
1.6515e-09
-1.75291e-09
1.28472e-09
-7.02364e-10
5.57301e-10
5.45539e-10
-5.62689e-10
1.93098e-09
-2.09694e-09
3.4057e-09
-4.05881e-09
4.93178e-09
-6.45507e-09
6.48019e-09
-9.28744e-09
8.0295e-09
-1.25539e-08
9.56458e-09
-1.625e-08
1.10754e-08
-2.03692e-08
1.2556e-08
-2.49046e-08
1.40034e-08
-2.98483e-08
1.54173e-08
-3.51928e-08
1.67988e-08
-4.09307e-08
1.81499e-08
-4.7055e-08
1.94735e-08
-5.35592e-08
2.07724e-08
-6.0437e-08
2.20493e-08
-6.76825e-08
2.33068e-08
-7.52901e-08
2.45464e-08
-8.3254e-08
2.57692e-08
-9.15681e-08
2.69755e-08
-1.00226e-07
2.81645e-08
-1.09221e-07
2.93346e-08
-1.18544e-07
3.04835e-08
-1.28186e-07
3.16078e-08
-1.38137e-07
3.27033e-08
-1.48384e-07
3.37651e-08
-1.58914e-07
3.47875e-08
-1.6971e-07
3.57641e-08
-1.80755e-07
3.66881e-08
-1.92029e-07
3.75521e-08
-2.03509e-07
3.83482e-08
-2.15171e-07
3.90682e-08
-2.26988e-07
3.97038e-08
-2.38931e-07
4.02462e-08
-2.50967e-07
4.06869e-08
-2.63062e-07
4.1017e-08
-2.75182e-07
4.12281e-08
-2.87285e-07
4.13115e-08
-2.99333e-07
4.12593e-08
-3.11282e-07
4.10634e-08
-3.23088e-07
4.07167e-08
-3.34705e-07
4.02122e-08
-3.46086e-07
3.95438e-08
-3.57182e-07
3.8706e-08
-3.67943e-07
3.76943e-08
-3.78319e-07
3.65047e-08
-3.88261e-07
3.51347e-08
-3.97717e-07
3.35824e-08
-4.06637e-07
3.18475e-08
-4.14972e-07
2.99305e-08
-4.22673e-07
2.78333e-08
-4.29693e-07
2.55591e-08
-4.35986e-07
2.31127e-08
-4.41509e-07
2.04999e-08
-4.46221e-07
1.77281e-08
-4.50084e-07
1.48061e-08
-4.53061e-07
1.17441e-08
-4.55123e-07
8.55379e-09
-4.5624e-07
5.24803e-09
-4.56388e-07
1.84116e-09
-4.55549e-07
-1.65125e-09
-4.53706e-07
-5.21251e-09
-4.50851e-07
-8.82477e-09
-4.46978e-07
-1.24692e-08
-4.42087e-07
-1.6126e-08
-4.36184e-07
-1.97748e-08
-4.2928e-07
-2.33943e-08
-4.21393e-07
-2.6963e-08
-4.12543e-07
-3.04591e-08
-4.02759e-07
-3.38605e-08
-3.92076e-07
-3.71452e-08
-3.80531e-07
-4.02916e-08
-3.6817e-07
-4.32785e-08
-3.55041e-07
-4.60852e-08
-3.412e-07
-4.8692e-08
-3.26705e-07
-5.10803e-08
-3.1162e-07
-5.32327e-08
-2.96013e-07
-5.51333e-08
-2.79954e-07
-5.67678e-08
-2.63518e-07
-5.81239e-08
-2.46782e-07
-5.9191e-08
-2.29824e-07
-5.99609e-08
-2.12725e-07
-6.04275e-08
-1.95568e-07
-6.05873e-08
-1.78433e-07
-6.0439e-08
-1.61403e-07
-5.99839e-08
-1.44559e-07
-5.92258e-08
-1.2798e-07
-5.8171e-08
-1.11745e-07
-5.68283e-08
-9.59274e-08
-5.52089e-08
-8.06001e-08
-5.33262e-08
-6.58308e-08
-5.11958e-08
-5.16833e-08
-4.88352e-08
-3.82166e-08
-4.62639e-08
-2.54845e-08
-4.35026e-08
-1.35351e-08
-4.05738e-08
-2.4107e-09
-3.75007e-08
7.85271e-09
-3.43074e-08
1.72255e-08
-3.10188e-08
2.56847e-08
-2.76599e-08
3.3214e-08
-2.42557e-08
3.98038e-08
-2.08313e-08
4.54511e-08
-1.74112e-08
5.01599e-08
-1.40195e-08
5.39403e-08
-1.06795e-08
5.68092e-08
-7.41396e-09
5.87898e-08
-4.2446e-09
5.99112e-08
-1.19262e-09
6.02088e-08
1.72158e-09
5.97237e-08
4.47808e-09
5.85029e-08
7.05731e-09
5.65994e-08
9.43924e-09
5.40717e-08
1.16038e-08
5.09843e-08
1.35302e-08
4.74079e-08
1.51961e-08
4.34191e-08
1.65779e-08
3.9101e-08
1.76495e-08
3.45435e-08
1.8383e-08
2.98426e-08
1.87481e-08
2.51014e-08
1.87127e-08
2.04291e-08
1.8244e-08
1.59405e-08
1.73108e-08
1.17558e-08
1.58866e-08
7.99958e-09
1.39554e-08
4.80086e-09
1.15202e-08
2.29549e-09
8.61388e-09
6.33739e-10
5.31686e-09
1.7827e-09
1.72468e-10
-1.22692e-09
4.84037e-10
-2.65042e-09
7.7208e-10
-3.21931e-09
9.11678e-10
-3.0988e-09
8.05787e-10
-2.42779e-09
3.79137e-10
-1.32625e-09
-4.25836e-10
1.02617e-10
-1.65208e-09
1.77179e-09
-3.33043e-09
3.60934e-09
-5.48178e-09
5.55706e-09
-8.11895e-09
7.56895e-09
-1.12484e-08
9.60962e-09
-1.48716e-08
1.16527e-08
-1.89865e-08
1.36795e-08
-2.35884e-08
1.56773e-08
-2.8671e-08
1.76385e-08
-3.42268e-08
1.95593e-08
-4.02482e-08
2.14387e-08
-4.67272e-08
2.32778e-08
-5.36561e-08
2.50787e-08
-6.10273e-08
2.68447e-08
-6.88336e-08
2.85787e-08
-7.70682e-08
3.02839e-08
-8.57242e-08
3.19627e-08
-9.47946e-08
3.36168e-08
-1.04272e-07
3.52469e-08
-1.1415e-07
3.68529e-08
-1.24418e-07
3.84332e-08
-1.35069e-07
3.99854e-08
-1.46091e-07
4.15057e-08
-1.57473e-07
4.29894e-08
-1.692e-07
4.44307e-08
-1.81258e-07
4.58227e-08
-1.93628e-07
4.71577e-08
-2.06291e-07
4.84271e-08
-2.19225e-07
4.96217e-08
-2.32404e-07
5.07315e-08
-2.45802e-07
5.17463e-08
-2.59389e-07
5.26551e-08
-2.73132e-07
5.34469e-08
-2.86996e-07
5.41106e-08
-3.00944e-07
5.46347e-08
-3.14935e-07
5.5008e-08
-3.28927e-07
5.52195e-08
-3.42873e-07
5.52583e-08
-3.56728e-07
5.51143e-08
-3.70442e-07
5.47774e-08
-3.83964e-07
5.42386e-08
-3.97241e-07
5.34894e-08
-4.1022e-07
5.25224e-08
-4.22845e-07
5.13311e-08
-4.35061e-07
4.99101e-08
-4.46812e-07
4.82553e-08
-4.58041e-07
4.63637e-08
-4.68692e-07
4.42341e-08
-4.78711e-07
4.18664e-08
-4.88043e-07
3.92623e-08
-4.96635e-07
3.64251e-08
-5.04436e-07
3.33598e-08
-5.11396e-07
3.00731e-08
-5.1747e-07
2.65735e-08
-5.22613e-07
2.28712e-08
-5.26785e-07
1.89782e-08
-5.29949e-07
1.49084e-08
-5.32073e-07
1.06773e-08
-5.33127e-07
6.30206e-09
-5.33087e-07
1.80156e-09
-5.31934e-07
-2.80384e-09
-5.29655e-07
-7.49233e-09
-5.26239e-07
-1.22408e-08
-5.21683e-07
-1.70248e-08
-5.1599e-07
-2.18191e-08
-5.09167e-07
-2.65972e-08
-5.01229e-07
-3.13323e-08
-4.92196e-07
-3.59967e-08
-4.82092e-07
-4.05626e-08
-4.70951e-07
-4.5002e-08
-4.58809e-07
-4.92871e-08
-4.4571e-07
-5.33904e-08
-4.31703e-07
-5.72851e-08
-4.16843e-07
-6.0945e-08
-4.0119e-07
-6.43452e-08
-3.84808e-07
-6.74622e-08
-3.67767e-07
-7.02739e-08
-3.5014e-07
-7.27603e-08
-3.32005e-07
-7.49031e-08
-3.13442e-07
-7.66867e-08
-2.94535e-07
-7.80976e-08
-2.75371e-07
-7.91254e-08
-2.56036e-07
-7.9762e-08
-2.36621e-07
-8.00028e-08
-2.17214e-07
-7.98459e-08
-1.97905e-07
-7.92925e-08
-1.78784e-07
-7.83473e-08
-1.59937e-07
-7.70178e-08
-1.4145e-07
-7.53148e-08
-1.23407e-07
-7.32521e-08
-1.05887e-07
-7.08464e-08
-8.89657e-08
-6.81171e-08
-7.27148e-08
-6.50861e-08
-5.72008e-08
-6.17779e-08
-4.24847e-08
-5.82187e-08
-2.86217e-08
-5.44368e-08
-1.56606e-08
-5.04618e-08
-3.64357e-09
-4.63244e-08
7.39407e-09
-4.20564e-08
1.74242e-08
-3.769e-08
2.6426e-08
-3.32575e-08
3.4386e-08
-2.87913e-08
4.12981e-08
-2.43234e-08
4.71638e-08
-1.98852e-08
5.19917e-08
-1.55075e-08
5.57979e-08
-1.12201e-08
5.86055e-08
-7.0522e-09
6.04447e-08
-3.03176e-09
6.13524e-08
8.13812e-10
6.13728e-08
4.4577e-09
6.05564e-08
7.8737e-09
5.89601e-08
1.10355e-08
5.66477e-08
1.39163e-08
5.36893e-08
1.64886e-08
5.01618e-08
1.87236e-08
4.61489e-08
2.05908e-08
4.17409e-08
2.20575e-08
3.7035e-08
2.30889e-08
3.21353e-08
2.36479e-08
2.71524e-08
2.36955e-08
2.2204e-08
2.31925e-08
1.74139e-08
2.21009e-08
1.29126e-08
2.03879e-08
8.8376e-09
1.80304e-08
5.33549e-09
1.50223e-08
2.56615e-09
1.13832e-08
7.12564e-10
7.17045e-09
2.49527e-09
1.16942e-10
-1.34389e-09
2.78211e-10
-2.81172e-09
3.31348e-10
-3.27246e-09
1.57858e-10
-2.92532e-09
-3.34397e-10
-1.93554e-09
-1.21644e-09
-4.44202e-10
-2.54213e-09
1.42832e-09
-4.35126e-09
3.58092e-09
-6.67204e-09
5.93013e-09
-9.52331e-09
8.40833e-09
-1.29163e-08
1.09619e-08
-1.68563e-08
1.35496e-08
-2.13441e-08
1.61405e-08
-2.63771e-08
1.87124e-08
-3.19501e-08
2.12503e-08
-3.80567e-08
2.37451e-08
-4.46893e-08
2.61919e-08
-5.184e-08
2.85894e-08
-5.95005e-08
3.09383e-08
-6.7663e-08
3.32412e-08
-7.63195e-08
3.55011e-08
-8.54621e-08
3.77214e-08
-9.50833e-08
3.99051e-08
-1.05175e-07
4.20545e-08
-1.1573e-07
4.41712e-08
-1.26738e-07
4.62554e-08
-1.38191e-07
4.83059e-08
-1.50078e-07
5.03206e-08
-1.62389e-07
5.22954e-08
-1.75108e-07
5.42252e-08
-1.88222e-07
5.61035e-08
-2.01714e-07
5.79224e-08
-2.15564e-07
5.9673e-08
-2.29751e-07
6.1345e-08
-2.44252e-07
6.29273e-08
-2.59038e-07
6.44082e-08
-2.74081e-07
6.57748e-08
-2.89349e-07
6.70141e-08
-3.04806e-07
6.81123e-08
-3.20415e-07
6.90555e-08
-3.36134e-07
6.98297e-08
-3.5192e-07
7.04207e-08
-3.67727e-07
7.08147e-08
-3.83506e-07
7.09981e-08
-3.99205e-07
7.09577e-08
-4.14772e-07
7.06809e-08
-4.3015e-07
7.0156e-08
-4.45284e-07
6.93721e-08
-4.60114e-07
6.83193e-08
-4.7458e-07
6.69891e-08
-4.88623e-07
6.5374e-08
-5.02181e-07
6.34681e-08
-5.15193e-07
6.12673e-08
-5.27598e-07
5.87688e-08
-5.39336e-07
5.59718e-08
-5.50347e-07
5.28775e-08
-5.60573e-07
4.94887e-08
-5.69959e-07
4.58106e-08
-5.78449e-07
4.18503e-08
-5.85993e-07
3.76171e-08
-5.92542e-07
3.31223e-08
-5.9805e-07
2.83795e-08
-6.02477e-07
2.34044e-08
-6.05783e-07
1.82147e-08
-6.07936e-07
1.28304e-08
-6.08907e-07
7.27325e-09
-6.08673e-07
1.567e-09
-6.07214e-07
-4.26282e-09
-6.04517e-07
-1.0189e-08
-6.00575e-07
-1.61827e-08
-5.95386e-07
-2.22139e-08
-5.88954e-07
-2.82511e-08
-5.81289e-07
-3.42621e-08
-5.72408e-07
-4.02137e-08
-5.62332e-07
-4.60721e-08
-5.51092e-07
-5.18034e-08
-5.3872e-07
-5.73733e-08
-5.2526e-07
-6.27479e-08
-5.10756e-07
-6.78937e-08
-4.95263e-07
-7.27781e-08
-4.78839e-07
-7.73692e-08
-4.61547e-07
-8.16368e-08
-4.43457e-07
-8.55521e-08
-4.24643e-07
-8.90883e-08
-4.05183e-07
-9.22207e-08
-3.85158e-07
-9.49273e-08
-3.64656e-07
-9.71886e-08
-3.43766e-07
-9.89883e-08
-3.22578e-07
-1.00313e-07
-3.01187e-07
-1.01153e-07
-2.79688e-07
-1.01502e-07
-2.58176e-07
-1.01357e-07
-2.36748e-07
-1.0072e-07
-2.155e-07
-9.95958e-08
-1.94525e-07
-9.79925e-08
-1.73917e-07
-9.59233e-08
-1.53765e-07
-9.34042e-08
-1.34156e-07
-9.04552e-08
-1.15173e-07
-8.70996e-08
-9.68957e-08
-8.33638e-08
-7.93964e-08
-7.92772e-08
-6.27434e-08
-7.48717e-08
-4.69987e-08
-7.01815e-08
-3.22174e-08
-6.5243e-08
-1.84481e-08
-6.00938e-08
-5.73166e-09
-5.47729e-08
5.89833e-09
-4.932e-08
1.64162e-08
-4.37753e-08
2.58041e-08
-3.81792e-08
3.40523e-08
-3.25716e-08
4.11592e-08
-2.69921e-08
4.71312e-08
-2.14794e-08
5.19826e-08
-1.60716e-08
5.57358e-08
-1.08054e-08
5.84208e-08
-5.71677e-09
6.00754e-08
-8.40766e-10
6.07448e-08
3.78827e-09
6.04823e-08
8.13625e-09
5.9348e-08
1.21699e-08
5.74089e-08
1.58553e-08
5.47396e-08
1.91579e-08
5.14217e-08
2.20414e-08
4.75444e-08
2.44681e-08
4.32035e-08
2.63984e-08
3.85023e-08
2.77901e-08
3.35511e-08
2.85991e-08
2.84675e-08
2.87792e-08
2.33759e-08
2.8284e-08
1.84087e-08
2.70681e-08
1.3706e-08
2.50906e-08
9.41773e-09
2.23187e-08
5.70644e-09
1.87336e-08
2.75295e-09
1.43367e-08
7.66129e-10
9.15727e-09
3.26139e-09
5.01613e-11
-1.39408e-09
3.06738e-11
-2.79226e-09
-1.96697e-10
-3.0451e-09
-7.4015e-10
-2.38187e-09
-1.6837e-09
-9.91982e-10
-3.09163e-09
9.63732e-10
-5.01207e-09
3.34876e-09
-7.47994e-09
6.0488e-09
-1.05195e-08
8.96966e-09
-1.41462e-08
1.20351e-08
-1.83689e-08
1.51847e-08
-2.3191e-08
1.83717e-08
-2.86116e-08
2.15612e-08
-3.46274e-08
2.47281e-08
-4.12325e-08
2.78554e-08
-4.84199e-08
3.09325e-08
-5.61819e-08
3.39539e-08
-6.45103e-08
3.69177e-08
-7.33967e-08
3.98247e-08
-8.28327e-08
4.26772e-08
-9.28101e-08
4.54785e-08
-1.03321e-07
4.82318e-08
-1.14356e-07
5.09401e-08
-1.25907e-07
5.36054e-08
-1.37964e-07
5.62286e-08
-1.50518e-07
5.88091e-08
-1.63556e-07
6.13448e-08
-1.77068e-07
6.38322e-08
-1.91038e-07
6.62656e-08
-2.05451e-07
6.86382e-08
-2.20289e-07
7.09412e-08
-2.35531e-07
7.31645e-08
-2.51155e-07
7.52965e-08
-2.67134e-07
7.73245e-08
-2.83441e-07
7.92344e-08
-3.00045e-07
8.10116e-08
-3.1691e-07
8.26403e-08
-3.34e-07
8.41041e-08
-3.51274e-07
8.53866e-08
-3.68689e-07
8.64706e-08
-3.86199e-07
8.73391e-08
-4.03753e-07
8.79752e-08
-4.21301e-07
8.83623e-08
-4.38787e-07
8.84841e-08
-4.56154e-07
8.83253e-08
-4.73345e-07
8.78711e-08
-4.90296e-07
8.71079e-08
-5.06948e-07
8.60232e-08
-5.23234e-07
8.46058e-08
-5.39091e-07
8.28463e-08
-5.54454e-07
8.07366e-08
-5.69257e-07
7.82708e-08
-5.83434e-07
7.54446e-08
-5.96921e-07
7.2256e-08
-6.09654e-07
6.87051e-08
-6.21571e-07
6.47943e-08
-6.32611e-07
6.05284e-08
-6.42715e-07
5.59146e-08
-6.51827e-07
5.09625e-08
-6.59894e-07
4.56844e-08
-6.66867e-07
4.00949e-08
-6.72699e-07
3.42112e-08
-6.77347e-07
2.8053e-08
-6.80775e-07
2.16424e-08
-6.82949e-07
1.50039e-08
-6.8384e-07
8.16427e-09
-6.83425e-07
1.15233e-09
-6.81687e-07
-6.00093e-09
-6.78613e-07
-1.32627e-08
-6.74198e-07
-2.05983e-08
-6.6844e-07
-2.79717e-08
-6.61345e-07
-3.53455e-08
-6.52927e-07
-4.2681e-08
-6.43201e-07
-4.99389e-08
-6.32194e-07
-5.70792e-08
-6.19936e-07
-6.40613e-08
-6.06465e-07
-7.0845e-08
-5.91823e-07
-7.73899e-08
-5.7606e-07
-8.36566e-08
-5.59231e-07
-8.96063e-08
-5.41399e-07
-9.52015e-08
-5.2263e-07
-1.00406e-07
-5.02995e-07
-1.05187e-07
-4.82573e-07
-1.0951e-07
-4.61445e-07
-1.13349e-07
-4.39697e-07
-1.16675e-07
-4.1742e-07
-1.19466e-07
-3.94706e-07
-1.21702e-07
-3.71651e-07
-1.23367e-07
-3.48355e-07
-1.24449e-07
-3.24918e-07
-1.2494e-07
-3.0144e-07
-1.24835e-07
-2.78023e-07
-1.24137e-07
-2.54769e-07
-1.2285e-07
-2.31777e-07
-1.20984e-07
-2.09148e-07
-1.18553e-07
-1.86977e-07
-1.15575e-07
-1.65358e-07
-1.12074e-07
-1.4438e-07
-1.08077e-07
-1.24129e-07
-1.03615e-07
-1.04685e-07
-9.87212e-08
-8.61228e-08