/*--------------------------------*- C++ -*----------------------------------*\
  =========                 |
  \\      /  F ield         | OpenFOAM: The Open Source CFD Toolbox
   \\    /   O peration     | Website:  https://openfoam.org
    \\  /    A nd           | Version:  12
     \\/     M anipulation  |
\*---------------------------------------------------------------------------*/
FoamFile
{
    format      ascii;
    class       volVectorField;
    location    "3";
    object      U;
}
// * * * * * * * * * * * * * * * * * * * * * * * * * * * * * * * * * * * * * //

dimensions      [0 1 -1 0 0 0 0];

internalField   nonuniform List<vector> 
18225
(
(2.72291e-07 -3.39429e-07 0)
(1.15313e-05 -3.62696e-06 0)
(3.44579e-05 -5.98294e-06 0)
(6.45613e-05 -7.00074e-06 0)
(9.66554e-05 -7.1204e-06 0)
(0.000127185 -6.65931e-06 0)
(0.000153748 -5.83799e-06 0)
(0.000174748 -4.81165e-06 0)
(0.000189186 -3.68434e-06 0)
(0.000196494 -2.52333e-06 0)
(0.000196413 -1.37174e-06 0)
(0.000188898 -2.55624e-07 0)
(0.000174041 8.10306e-07 0)
(0.000152033 1.81891e-06 0)
(0.000123111 2.7692e-06 0)
(8.75364e-05 3.66267e-06 0)
(4.55731e-05 4.50401e-06 0)
(-2.52728e-06 5.29876e-06 0)
(-5.65342e-05 6.05372e-06 0)
(-0.000116247 6.77674e-06 0)
(-0.000181496 7.47518e-06 0)
(-0.000252141 8.1553e-06 0)
(-0.000328071 8.82293e-06 0)
(-0.000409203 9.48327e-06 0)
(-0.000495476 1.01409e-05 0)
(-0.00058685 1.07995e-05 0)
(-0.000683297 1.14619e-05 0)
(-0.000784799 1.21298e-05 0)
(-0.000891342 1.28044e-05 0)
(-0.00100291 1.3486e-05 0)
(-0.00111949 1.41739e-05 0)
(-0.00124103 1.48671e-05 0)
(-0.0013675 1.55634e-05 0)
(-0.00149883 1.62603e-05 0)
(-0.00163493 1.69548e-05 0)
(-0.00177567 1.76429e-05 0)
(-0.00192093 1.83206e-05 0)
(-0.0020705 1.89831e-05 0)
(-0.00222419 1.96254e-05 0)
(-0.00238173 2.02419e-05 0)
(-0.00254284 2.08268e-05 0)
(-0.00270717 2.1374e-05 0)
(-0.00287437 2.1877e-05 0)
(-0.003044 2.23294e-05 0)
(-0.0032156 2.27243e-05 0)
(-0.00338868 2.30547e-05 0)
(-0.00356267 2.33139e-05 0)
(-0.00373698 2.34946e-05 0)
(-0.00391098 2.35899e-05 0)
(-0.004084 2.35929e-05 0)
(-0.00425531 2.34969e-05 0)
(-0.00442416 2.32955e-05 0)
(-0.00458978 2.29827e-05 0)
(-0.00475134 2.25528e-05 0)
(-0.004908 2.20006e-05 0)
(-0.00505891 2.13216e-05 0)
(-0.00520318 2.05119e-05 0)
(-0.00533993 1.95685e-05 0)
(-0.00546826 1.84893e-05 0)
(-0.00558729 1.72731e-05 0)
(-0.00569611 1.59199e-05 0)
(-0.00579388 1.44307e-05 0)
(-0.00587975 1.28081e-05 0)
(-0.0059529 1.10559e-05 0)
(-0.00601256 9.17856e-06 0)
(-0.00605801 7.17933e-06 0)
(-0.0060886 5.0668e-06 0)
(-0.00610366 2.8737e-06 0)
(-0.0061028 5.67317e-07 0)
(-0.00608545 -1.80508e-06 0)
(-0.00605129 -4.24414e-06 0)
(-0.00600007 -6.73263e-06 0)
(-0.00593163 -9.25391e-06 0)
(-0.0058459 -1.17907e-05 0)
(-0.00574297 -1.43247e-05 0)
(-0.00562301 -1.68368e-05 0)
(-0.00548631 -1.93072e-05 0)
(-0.00533332 -2.17158e-05 0)
(-0.00516457 -2.40421e-05 0)
(-0.00498074 -2.62659e-05 0)
(-0.00478262 -2.83673e-05 0)
(-0.00457111 -3.03266e-05 0)
(-0.00434725 -3.21255e-05 0)
(-0.00411215 -3.37463e-05 0)
(-0.00386705 -3.5173e-05 0)
(-0.00361325 -3.63911e-05 0)
(-0.00335216 -3.7388e-05 0)
(-0.00308524 -3.81532e-05 0)
(-0.002814 -3.86784e-05 0)
(-0.00254 -3.89578e-05 0)
(-0.00226483 -3.89881e-05 0)
(-0.00199007 -3.87688e-05 0)
(-0.00171733 -3.83019e-05 0)
(-0.00144817 -3.75921e-05 0)
(-0.00118414 -3.66468e-05 0)
(-0.00092672 -3.54759e-05 0)
(-0.00067734 -3.40917e-05 0)
(-0.000437349 -3.25085e-05 0)
(-0.000208006 -3.0743e-05 0)
(9.53075e-06 -2.88131e-05 0)
(0.000214213 -2.67386e-05 0)
(0.000405111 -2.45402e-05 0)
(0.000581423 -2.22401e-05 0)
(0.000742472 -1.98559e-05 0)
(0.000887714 -1.74122e-05 0)
(0.00101675 -1.4933e-05 0)
(0.00112931 -1.24376e-05 0)
(0.00122524 -9.9461e-06 0)
(0.00130454 -7.47775e-06 0)
(0.00136732 -5.05049e-06 0)
(0.00141379 -2.68078e-06 0)
(0.00144431 -3.83641e-07 0)
(0.0014593 1.82721e-06 0)
(0.00145929 3.94122e-06 0)
(0.00144494 5.94606e-06 0)
(0.00141691 7.83607e-06 0)
(0.001376 9.60063e-06 0)
(0.00132306 1.12324e-05 0)
(0.00125902 1.27236e-05 0)
(0.00118489 1.40659e-05 0)
(0.00110174 1.52491e-05 0)
(0.00101076 1.62601e-05 0)
(0.000913245 1.70815e-05 0)
(0.000810614 1.76897e-05 0)
(0.000704461 1.80525e-05 0)
(0.000596582 1.81262e-05 0)
(0.000489032 1.78514e-05 0)
(0.000384178 1.71491e-05 0)
(0.000284765 1.59152e-05 0)
(0.000193971 1.4018e-05 0)
(0.000115434 1.1305e-05 0)
(5.3178e-05 7.6215e-06 0)
(1.1222e-05 2.88227e-06 0)
(-7.79878e-06 -2.4379e-06 0)
(-5.53896e-06 -5.54e-06 0)
(3.59724e-06 -1.15794e-05 0)
(3.5915e-05 -3.58552e-05 0)
(8.99216e-05 -5.27703e-05 0)
(0.000156613 -6.04475e-05 0)
(0.000225744 -6.04918e-05 0)
(0.000289773 -5.49211e-05 0)
(0.000343191 -4.54426e-05 0)
(0.000382053 -3.33835e-05 0)
(0.00040369 -1.97384e-05 0)
(0.000406437 -5.23186e-06 0)
(0.000389382 9.6191e-06 0)
(0.000352162 2.44615e-05 0)
(0.000294813 3.90544e-05 0)
(0.000217634 5.32497e-05 0)
(0.000121094 6.69656e-05 0)
(5.75368e-06 8.0173e-05 0)
(-0.000127793 9.28786e-05 0)
(-0.000278959 0.000105114 0)
(-0.000447195 0.000116926 0)
(-0.000631993 0.000128368 0)
(-0.000832911 0.0001395 0)
(-0.00104958 0.000150379 0)
(-0.00128168 0.000161061 0)
(-0.00152897 0.000171594 0)
(-0.00179126 0.000182021 0)
(-0.00206838 0.000192373 0)
(-0.00236022 0.000202672 0)
(-0.00266665 0.00021293 0)
(-0.00298757 0.00022315 0)
(-0.00332286 0.000233322 0)
(-0.00367237 0.00024343 0)
(-0.00403594 0.000253446 0)
(-0.00441334 0.000263335 0)
(-0.00480427 0.000273053 0)
(-0.0052084 0.00028255 0)
(-0.00562529 0.000291768 0)
(-0.00605442 0.000300643 0)
(-0.00649519 0.000309106 0)
(-0.00694688 0.000317083 0)
(-0.00740868 0.000324497 0)
(-0.00787967 0.000331266 0)
(-0.0083588 0.000337307 0)
(-0.00884492 0.000342532 0)
(-0.00933675 0.000346855 0)
(-0.00983291 0.000350187 0)
(-0.0103319 0.00035244 0)
(-0.010832 0.000353528 0)
(-0.0113317 0.000353365 0)
(-0.0118289 0.000351867 0)
(-0.0123217 0.000348957 0)
(-0.0128081 0.00034456 0)
(-0.013286 0.000338606 0)
(-0.0137531 0.000331034 0)
(-0.0142072 0.000321788 0)
(-0.0146458 0.000310824 0)
(-0.0150667 0.000298105 0)
(-0.0154673 0.000283605 0)
(-0.0158452 0.00026731 0)
(-0.0161981 0.000249221 0)
(-0.0165235 0.000229349 0)
(-0.0168189 0.000207721 0)
(-0.0170822 0.000184381 0)
(-0.017311 0.000159385 0)
(-0.0175033 0.000132808 0)
(-0.0176571 0.000104737 0)
(-0.0177704 7.52689e-05 0)
(-0.0178416 4.45085e-05 0)
(-0.0178691 1.27893e-05 0)
(-0.0178517 -2.00384e-05 0)
(-0.0177883 -5.36275e-05 0)
(-0.0176781 -8.78158e-05 0)
(-0.0175205 -0.000122407 0)
(-0.0173151 -0.000157189 0)
(-0.0170621 -0.00019194 0)
(-0.0167617 -0.000226428 0)
(-0.0164145 -0.000260414 0)
(-0.0160215 -0.000293655 0)
(-0.0155839 -0.000325905 0)
(-0.0151034 -0.000356919 0)
(-0.0145817 -0.000386454 0)
(-0.0140212 -0.000414272 0)
(-0.0134243 -0.000440144 0)
(-0.0127938 -0.000463854 0)
(-0.0121329 -0.000485196 0)
(-0.0114448 -0.000503986 0)
(-0.0107332 -0.000520054 0)
(-0.0100016 -0.000533256 0)
(-0.00925421 -0.000543471 0)
(-0.00849494 -0.000550604 0)
(-0.007728 -0.000554587 0)
(-0.00695764 -0.000555382 0)
(-0.00618811 -0.000552982 0)
(-0.0054237 -0.000547407 0)
(-0.00466861 -0.000538712 0)
(-0.00392699 -0.000526979 0)
(-0.00320282 -0.00051232 0)
(-0.00249998 -0.000494874 0)
(-0.0018221 -0.000474807 0)
(-0.00117261 -0.000452309 0)
(-0.000554688 -0.000427588 0)
(2.87868e-05 -0.000400874 0)
(0.000575233 -0.00037241 0)
(0.00108239 -0.000342447 0)
(0.00154834 -0.000311253 0)
(0.00197153 -0.000279096 0)
(0.00235071 -0.000246241 0)
(0.00268503 -0.000212952 0)
(0.00297398 -0.000179492 0)
(0.00321739 -0.000146111 0)
(0.00341541 -0.000113051 0)
(0.00356855 -8.05419e-05 0)
(0.00367758 -4.87978e-05 0)
(0.0037436 -1.80197e-05 0)
(0.00376797 1.16069e-05 0)
(0.0037523 3.99018e-05 0)
(0.00369847 6.67128e-05 0)
(0.00360854 9.18855e-05 0)
(0.00348487 0.000115259 0)
(0.00333 0.000136682 0)
(0.00314671 0.000155992 0)
(0.00293804 0.000173006 0)
(0.00270731 0.000187518 0)
(0.00245814 0.00019928 0)
(0.00219452 0.000207989 0)
(0.00192085 0.000213278 0)
(0.00164207 0.000214695 0)
(0.00136367 0.00021169 0)
(0.00109182 0.000203609 0)
(0.000833437 0.000189702 0)
(0.000596172 0.000169176 0)
(0.000388305 0.000141351 0)
(0.00021834 0.000106021 0)
(9.41645e-05 6.43237e-05 0)
(2.1258e-05 2.1227e-05 0)
(-2.43675e-06 -7.80226e-06 0)
(6.08423e-06 -3.46986e-05 0)
(5.32415e-05 -8.9952e-05 0)
(0.000125584 -0.000125017 0)
(0.000210968 -0.000139523 0)
(0.000296231 -0.000136842 0)
(0.000371721 -0.000120965 0)
(0.000430117 -9.54815e-05 0)
(0.000465952 -6.33513e-05 0)
(0.000475354 -2.69008e-05 0)
(0.000455765 1.20976e-05 0)
(0.00040567 5.23282e-05 0)
(0.000324345 9.28413e-05 0)
(0.000211645 0.000132981 0)
(6.78342e-05 0.000172317 0)
(-0.000106554 0.000210597 0)
(-0.000310819 0.000247698 0)
(-0.000544179 0.000283595 0)
(-0.000805831 0.000318331 0)
(-0.001095 0.000351994 0)
(-0.00141097 0.000384705 0)
(-0.00175309 0.000416595 0)
(-0.00212081 0.0004478 0)
(-0.00251364 0.000478448 0)
(-0.00293118 0.000508653 0)
(-0.00337309 0.000538509 0)
(-0.00383908 0.000568087 0)
(-0.00432887 0.000597433 0)
(-0.00484222 0.000626568 0)
(-0.00537888 0.000655486 0)
(-0.00593857 0.000684153 0)
(-0.00652094 0.000712512 0)
(-0.00712563 0.000740479 0)
(-0.00775214 0.000767949 0)
(-0.00839991 0.000794795 0)
(-0.00906826 0.000820871 0)
(-0.00975637 0.000846013 0)
(-0.0104633 0.00087004 0)
(-0.0111879 0.000892758 0)
(-0.011929 0.000913961 0)
(-0.0126852 0.000933432 0)
(-0.0134547 0.000950946 0)
(-0.0142359 0.000966272 0)
(-0.0150267 0.000979174 0)
(-0.0158252 0.000989415 0)
(-0.0166288 0.000996755 0)
(-0.0174351 0.00100096 0)
(-0.0182415 0.0010018 0)
(-0.0190451 0.000999043 0)
(-0.0198428 0.00099248 0)
(-0.0206316 0.000981905 0)
(-0.0214081 0.00096713 0)
(-0.0221689 0.000947981 0)
(-0.0229105 0.000924306 0)
(-0.0236292 0.000895976 0)
(-0.0243214 0.000862887 0)
(-0.0249834 0.000824961 0)
(-0.0256112 0.000782152 0)
(-0.0262012 0.000734448 0)
(-0.0267497 0.00068187 0)
(-0.0272529 0.000624477 0)
(-0.0277072 0.000562369 0)
(-0.0281092 0.000495684 0)
(-0.0284554 0.000424602 0)
(-0.0287428 0.000349348 0)
(-0.0289683 0.000270186 0)
(-0.0291292 0.00018742 0)
(-0.029223 0.000101401 0)
(-0.0292477 1.25845e-05 0)
(-0.0292013 -7.86577e-05 0)
(-0.0290824 -0.000171848 0)
(-0.0288899 -0.000266464 0)
(-0.0286231 -0.00036196 0)
(-0.0282818 -0.000457763 0)
(-0.0278661 -0.000553274 0)
(-0.0273766 -0.000647873 0)
(-0.0268145 -0.000740924 0)
(-0.0261814 -0.000831784 0)
(-0.0254793 -0.000919803 0)
(-0.0247108 -0.00100433 0)
(-0.0238789 -0.00108474 0)
(-0.022987 -0.0011604 0)
(-0.0220391 -0.00123072 0)
(-0.0210396 -0.00129513 0)
(-0.0199931 -0.0013531 0)
(-0.0189048 -0.00140415 0)
(-0.0177801 -0.00144784 0)
(-0.0166248 -0.0014838 0)
(-0.0154448 -0.00151171 0)
(-0.0142464 -0.00153132 0)
(-0.0130359 -0.00154247 0)
(-0.0118197 -0.00154504 0)
(-0.0106043 -0.00153902 0)
(-0.00939627 -0.00152447 0)
(-0.00820195 -0.00150151 0)
(-0.00702767 -0.00147036 0)
(-0.00587955 -0.0014313 0)
(-0.00476349 -0.00138469 0)
(-0.00368508 -0.00133097 0)
(-0.00264963 -0.00127062 0)
(-0.00166203 -0.00120418 0)
(-0.000726789 -0.00113225 0)
(0.000152051 -0.00105546 0)
(0.000970914 -0.000974486 0)
(0.00172673 -0.000890013 0)
(0.00241693 -0.000802748 0)
(0.0030395 -0.000713404 0)
(0.00359294 -0.00062269 0)
(0.00407628 -0.000531308 0)
(0.00448908 -0.00043994 0)
(0.00483143 -0.000349245 0)
(0.0051039 -0.000259854 0)
(0.00530756 -0.000172369 0)
(0.00544391 -8.73557e-05 0)
(0.00551494 -5.34919e-06 0)
(0.00552302 7.31489e-05 0)
(0.00547095 0.000147665 0)
(0.0053619 0.000217738 0)
(0.00519943 0.000282908 0)
(0.00498748 0.000342718 0)
(0.00473039 0.000396684 0)
(0.00443289 0.000444283 0)
(0.00410016 0.000484927 0)
(0.00373787 0.000517941 0)
(0.00335222 0.000542529 0)
(0.00295003 0.000557755 0)
(0.00253883 0.000562517 0)
(0.00212688 0.000555537 0)
(0.0017233 0.000535375 0)
(0.00133802 0.000500494 0)
(0.00098176 0.000449441 0)
(0.0006657 0.000381231 0)
(0.000400905 0.000296136 0)
(0.00019757 0.000197258 0)
(6.45036e-05 9.41771e-05 0)
(2.89826e-06 1.1256e-05 0)
(7.21323e-06 -6.52007e-05 0)
(6.1262e-05 -0.000157024 0)
(0.00014043 -0.000210514 0)
(0.00022998 -0.000229335 0)
(0.000314775 -0.000219472 0)
(0.000383926 -0.00018722 0)
(0.000429108 -0.00013829 0)
(0.000443967 -7.75034e-05 0)
(0.000423885 -8.76198e-06 0)
(0.000365711 6.48789e-05 0)
(0.000267484 0.000141093 0)
(0.000128165 0.000218166 0)
(-5.25787e-05 0.000294876 0)
(-0.000274569 0.000370399 0)
(-0.000537273 0.000444218 0)
(-0.000839936 0.000516061 0)
(-0.00118168 0.000585833 0)
(-0.00156159 0.000653574 0)
(-0.00197875 0.000719411 0)
(-0.0024323 0.000783528 0)
(-0.00292144 0.000846138 0)
(-0.00344548 0.000907462 0)
(-0.00400377 0.000967708 0)
(-0.00459577 0.00102706 0)
(-0.00522099 0.00108567 0)
(-0.00587898 0.00114366 0)
(-0.00656933 0.00120108 0)
(-0.00729161 0.00125795 0)
(-0.00804539 0.00131425 0)
(-0.00883015 0.00136989 0)
(-0.00964535 0.00142475 0)
(-0.0104903 0.00147865 0)
(-0.0113643 0.00153139 0)
(-0.0122663 0.0015827 0)
(-0.0131953 0.0016323 0)
(-0.0141501 0.00167987 0)
(-0.0151291 0.00172504 0)
(-0.0161308 0.00176746 0)
(-0.0171534 0.0018067 0)
(-0.0181946 0.00184237 0)
(-0.0192522 0.00187403 0)
(-0.0203237 0.00190124 0)
(-0.0214062 0.00192355 0)
(-0.0224969 0.00194051 0)
(-0.0235923 0.00195168 0)
(-0.024689 0.00195662 0)
(-0.0257834 0.0019549 0)
(-0.0268715 0.0019461 0)
(-0.0279492 0.00192983 0)
(-0.0290122 0.00190573 0)
(-0.0300561 0.00187346 0)
(-0.0310763 0.00183272 0)
(-0.032068 0.00178324 0)
(-0.0330265 0.00172482 0)
(-0.0339468 0.00165729 0)
(-0.034824 0.00158053 0)
(-0.0356532 0.00149449 0)
(-0.0364295 0.00139919 0)
(-0.0371481 0.00129471 0)
(-0.0378041 0.00118119 0)
(-0.038393 0.00105886 0)
(-0.0389104 0.000928011 0)
(-0.0393519 0.000789027 0)
(-0.0397138 0.000642359 0)
(-0.0399921 0.000488541 0)
(-0.0401837 0.000328181 0)
(-0.0402854 0.000161976 0)
(-0.0402948 -9.28297e-06 0)
(-0.0402096 -0.000184791 0)
(-0.0400282 -0.000363644 0)
(-0.0397494 -0.000544868 0)
(-0.0393724 -0.000727434 0)
(-0.0388974 -0.000910266 0)
(-0.0383245 -0.00109224 0)
(-0.037655 -0.00127221 0)
(-0.0368904 -0.00144899 0)
(-0.0360329 -0.0016214 0)
(-0.0350854 -0.00178822 0)
(-0.0340513 -0.00194829 0)
(-0.0329347 -0.00210042 0)
(-0.03174 -0.00224348 0)
(-0.0304725 -0.00237639 0)
(-0.0291378 -0.0024981 0)
(-0.0277421 -0.00260765 0)
(-0.0262919 -0.00270416 0)
(-0.0247943 -0.00278684 0)
(-0.0232566 -0.002855 0)
(-0.0216866 -0.00290807 0)
(-0.0200922 -0.0029456 0)
(-0.0184815 -0.00296727 0)
(-0.0168629 -0.00297289 0)
(-0.0152445 -0.00296242 0)
(-0.0136348 -0.00293595 0)
(-0.012042 -0.00289372 0)
(-0.0104742 -0.0028361 0)
(-0.00893928 -0.00276362 0)
(-0.0074449 -0.00267692 0)
(-0.0059983 -0.00257677 0)
(-0.00460639 -0.00246405 0)
(-0.00327557 -0.00233977 0)
(-0.00201176 -0.00220499 0)
(-0.000820325 -0.00206089 0)
(0.000293965 -0.00190868 0)
(0.00132696 -0.00174964 0)
(0.00227516 -0.00158506 0)
(0.00313573 -0.00141629 0)
(0.00390651 -0.00124462 0)
(0.00458602 -0.00107139 0)
(0.00517347 -0.000897875 0)
(0.00566872 -0.000725326 0)
(0.0060723 -0.000554949 0)
(0.00638537 -0.000387901 0)
(0.00660971 -0.000225276 0)
(0.00674769 -6.81231e-05 0)
(0.00680226 8.25601e-05 0)
(0.00677693 0.000225828 0)
(0.00667573 0.000360759 0)
(0.00650324 0.000486443 0)
(0.00626454 0.000601955 0)
(0.00596526 0.000706337 0)
(0.00561159 0.000798566 0)
(0.0052103 0.000877517 0)
(0.00476875 0.00094192 0)
(0.00429503 0.000990325 0)
(0.00379793 0.00102107 0)
(0.00328706 0.00103226 0)
(0.00277285 0.00102177 0)
(0.00226664 0.000987308 0)
(0.00178057 0.000926541 0)
(0.0013275 0.000837438 0)
(0.000920642 0.000718868 0)
(0.000573006 0.000571697 0)
(0.00029715 0.000400745 0)
(0.000106504 0.000218645 0)
(7.67184e-06 5.33682e-05 0)
(7.42398e-06 -9.78999e-05 0)
(6.13071e-05 -0.00022651 0)
(0.000137024 -0.000295508 0)
(0.00021811 -0.000313851 0)
(0.000288265 -0.000290872 0)
(0.0003359 -0.000235494 0)
(0.000352179 -0.000155687 0)
(0.000330319 -5.82313e-05 0)
(0.000265325 5.13117e-05 0)
(0.000153727 0.000168512 0)
(-6.70236e-06 0.00028994 0)
(-0.000217193 0.000413016 0)
(-0.000478214 0.000535869 0)
(-0.000789668 0.000657208 0)
(-0.00115105 0.000776202 0)
(-0.00156161 0.000892385 0)
(-0.00202042 0.00100556 0)
(-0.0025265 0.00111574 0)
(-0.00307885 0.00122308 0)
(-0.00367652 0.0013278 0)
(-0.00431861 0.00143021 0)
(-0.0050043 0.00153059 0)
(-0.00573282 0.00162924 0)
(-0.00650351 0.0017264 0)
(-0.00731572 0.00182228 0)
(-0.00816885 0.00191702 0)
(-0.0090623 0.00201069 0)
(-0.00999545 0.00210328 0)
(-0.0109676 0.00219471 0)
(-0.0119781 0.00228483 0)
(-0.0130261 0.00237342 0)
(-0.0141105 0.00246018 0)
(-0.0152302 0.00254474 0)
(-0.016384 0.00262668 0)
(-0.0175702 0.00270553 0)
(-0.0187872 0.00278074 0)
(-0.020033 0.00285176 0)
(-0.0213053 0.00291796 0)
(-0.0226017 0.0029787 0)
(-0.0239194 0.00303331 0)
(-0.0252552 0.00308111 0)
(-0.026606 0.00312139 0)
(-0.0279681 0.00315345 0)
(-0.0293376 0.00317657 0)
(-0.0307102 0.00319005 0)
(-0.0320817 0.00319323 0)
(-0.0334473 0.00318542 0)
(-0.034802 0.003166 0)
(-0.0361409 0.00313437 0)
(-0.0374584 0.00308998 0)
(-0.038749 0.00303234 0)
(-0.0400072 0.002961 0)
(-0.0412272 0.0028756 0)
(-0.0424029 0.00277583 0)
(-0.0435286 0.00266149 0)
(-0.0445983 0.00253245 0)
(-0.045606 0.00238868 0)
(-0.046546 0.00223026 0)
(-0.0474124 0.00205737 0)
(-0.0481996 0.0018703 0)
(-0.0489023 0.00166945 0)
(-0.0495153 0.00145535 0)
(-0.0500336 0.00122865 0)
(-0.0504527 0.000990099 0)
(-0.0507685 0.000740596 0)
(-0.050977 0.000481142 0)
(-0.0510751 0.000212862 0)
(-0.0510599 -6.29986e-05 0)
(-0.0509289 -0.000345115 0)
(-0.0506806 -0.000632046 0)
(-0.0503138 -0.000922257 0)
(-0.0498279 -0.00121413 0)
(-0.049223 -0.00150597 0)
(-0.0484999 -0.00179603 0)
(-0.0476601 -0.00208252 0)
(-0.0467058 -0.0023636 0)
(-0.0456397 -0.00263744 0)
(-0.0444654 -0.00290217 0)
(-0.0431871 -0.00315597 0)
(-0.0418098 -0.00339705 0)
(-0.0403389 -0.00362365 0)
(-0.0387806 -0.00383411 0)
(-0.0371417 -0.00402685 0)
(-0.0354295 -0.00420038 0)
(-0.0336519 -0.00435335 0)
(-0.0318172 -0.00448456 0)
(-0.0299341 -0.00459296 0)
(-0.0280116 -0.00467766 0)
(-0.0260593 -0.00473798 0)
(-0.0240866 -0.00477341 0)
(-0.0221033 -0.00478368 0)
(-0.0201193 -0.00476868 0)
(-0.0181444 -0.00472857 0)
(-0.0161883 -0.00466369 0)
(-0.0142607 -0.0045746 0)
(-0.012371 -0.00446209 0)
(-0.0105282 -0.00432712 0)
(-0.00874104 -0.00417087 0)
(-0.00701777 -0.00399468 0)
(-0.00536613 -0.00380006 0)
(-0.0037933 -0.00358866 0)
(-0.00230582 -0.00336227 0)
(-0.000909569 -0.00312277 0)
(0.000390297 -0.00287211 0)
(0.00158937 -0.00261232 0)
(0.00268401 -0.00234546 0)
(0.00367138 -0.00207359 0)
(0.00454942 -0.00179878 0)
(0.00531691 -0.00152305 0)
(0.00597339 -0.00124839 0)
(0.00651921 -0.000976723 0)
(0.0069555 -0.000709901 0)
(0.00728413 -0.00044971 0)
(0.00750773 -0.000197857 0)
(0.00762958 4.40447e-05 0)
(0.00765374 0.000274407 0)
(0.00758491 0.000491715 0)
(0.00742842 0.00069446 0)
(0.00719031 0.000881113 0)
(0.00687727 0.00105011 0)
(0.00649667 0.00119978 0)
(0.00605657 0.00132835 0)
(0.00556576 0.00143384 0)
(0.00503384 0.00151402 0)
(0.00447119 0.00156644 0)
(0.00388906 0.00158833 0)
(0.0032996 0.00157671 0)
(0.00271579 0.00152842 0)
(0.00215146 0.00144039 0)
(0.00162111 0.00131006 0)
(0.00113963 0.00113609 0)
(0.000721931 0.00091963 0)
(0.000383266 0.000666245 0)
(0.000142259 0.000389332 0)
(1.14012e-05 0.000115975 0)
(7.00188e-06 -0.000128948 0)
(5.50572e-05 -0.000290111 0)
(0.000118509 -0.000369103 0)
(0.000180114 -0.000380454 0)
(0.000223246 -0.00033724 0)
(0.000236077 -0.000251249 0)
(0.000209635 -0.000132818 0)
(0.000137047 9.27794e-06 0)
(1.32402e-05 0.000167794 0)
(-0.000165339 0.000336904 0)
(-0.000400994 0.000512045 0)
(-0.000695028 0.000689743 0)
(-0.00104797 0.000867444 0)
(-0.00145975 0.00104336 0)
(-0.00192991 0.0012163 0)
(-0.00245767 0.00138559 0)
(-0.0030421 0.00155091 0)
(-0.0036822 0.00171221 0)
(-0.0043769 0.00186966 0)
(-0.00512521 0.00202353 0)
(-0.00592614 0.00217418 0)
(-0.00677877 0.00232196 0)
(-0.00768225 0.00246722 0)
(-0.00863577 0.00261028 0)
(-0.00963855 0.00275135 0)
(-0.0106898 0.0028906 0)
(-0.0117888 0.00302806 0)
(-0.0129346 0.0031637 0)
(-0.0141264 0.00329735 0)
(-0.0153632 0.00342876 0)
(-0.0166437 0.00355755 0)
(-0.0179666 0.00368328 0)
(-0.0193304 0.00380539 0)
(-0.0207333 0.00392323 0)
(-0.0221734 0.00403611 0)
(-0.0236484 0.00414323 0)
(-0.0251556 0.00424375 0)
(-0.0266923 0.00433677 0)
(-0.0282553 0.00442137 0)
(-0.0298411 0.00449656 0)
(-0.0314459 0.00456137 0)
(-0.0330655 0.00461477 0)
(-0.0346956 0.00465578 0)
(-0.0363314 0.00468337 0)
(-0.0379678 0.00469657 0)
(-0.0395994 0.00469441 0)
(-0.0412207 0.00467599 0)
(-0.0428257 0.00464042 0)
(-0.0444083 0.0045869 0)
(-0.0459623 0.00451468 0)
(-0.0474811 0.0044231 0)
(-0.0489581 0.00431159 0)
(-0.0503866 0.00417968 0)
(-0.0517598 0.00402703 0)
(-0.0530708 0.00385339 0)
(-0.0543128 0.00365865 0)
(-0.0554792 0.00344286 0)
(-0.0565632 0.0032062 0)
(-0.0575584 0.00294899 0)
(-0.0584586 0.00267173 0)
(-0.0592576 0.00237507 0)
(-0.0599498 0.00205982 0)
(-0.0605298 0.00172698 0)
(-0.0609926 0.00137769 0)
(-0.0613337 0.00101326 0)
(-0.0615491 0.000635181 0)
(-0.0616353 0.000245086 0)
(-0.0615892 -0.000155233 0)
(-0.0614086 -0.000563853 0)
(-0.0610918 -0.00097871 0)
(-0.0606377 -0.00139762 0)
(-0.060046 -0.00181829 0)
(-0.0593171 -0.00223833 0)
(-0.0584522 -0.00265527 0)
(-0.0574531 -0.0030666 0)
(-0.0563224 -0.00346976 0)
(-0.0550637 -0.00386216 0)
(-0.0536809 -0.00424124 0)
(-0.0521791 -0.00460445 0)
(-0.0505639 -0.00494929 0)
(-0.0488415 -0.00527334 0)
(-0.0470192 -0.0055743 0)
(-0.0451044 -0.00584995 0)
(-0.0431056 -0.00609828 0)
(-0.0410316 -0.00631739 0)
(-0.0388917 -0.00650563 0)
(-0.0366957 -0.00666152 0)
(-0.034454 -0.00678386 0)
(-0.032177 -0.00687167 0)
(-0.0298755 -0.00692426 0)
(-0.0275604 -0.00694121 0)
(-0.025243 -0.00692238 0)
(-0.0229341 -0.00686795 0)
(-0.0206449 -0.00677838 0)
(-0.0183862 -0.00665442 0)
(-0.0161687 -0.00649712 0)
(-0.0140027 -0.00630782 0)
(-0.0118981 -0.00608811 0)
(-0.00986436 -0.00583982 0)
(-0.00791042 -0.00556504 0)
(-0.00604456 -0.00526605 0)
(-0.00427443 -0.00494531 0)
(-0.0026069 -0.00460543 0)
(-0.0010481 -0.00424914 0)
(0.000396691 -0.00387928 0)
(0.00172303 -0.00349873 0)
(0.00292736 -0.00311041 0)
(0.00400703 -0.00271723 0)
(0.00496029 -0.00232208 0)
(0.00578629 -0.00192781 0)
(0.00648511 -0.00153718 0)
(0.00705768 -0.00115287 0)
(0.00750586 -0.000777488 0)
(0.00783232 -0.000413506 0)
(0.00804063 -6.33526e-05 0)
(0.00813514 0.000270665 0)
(0.00812101 0.000586288 0)
(0.0080042 0.000881283 0)
(0.00779144 0.00115339 0)
(0.00749027 0.00140031 0)
(0.00710898 0.00161964 0)
(0.00665671 0.00180882 0)
(0.00614337 0.00196508 0)
(0.00557975 0.00208535 0)
(0.00497753 0.00216632 0)
(0.00434923 0.00220434 0)
(0.00370833 0.00219554 0)
(0.00306914 0.00213593 0)
(0.00244681 0.0020217 0)
(0.00185726 0.00184965 0)
(0.00131695 0.00161803 0)
(0.000842722 0.00132769 0)
(0.000452713 0.000983788 0)
(0.000170574 0.000598487 0)
(1.41609e-05 0.000195108 0)
(6.13985e-06 -0.000155526 0)
(4.39064e-05 -0.000341155 0)
(8.76834e-05 -0.000422148 0)
(0.000120286 -0.00041835 0)
(0.000125536 -0.000346674 0)
(9.18196e-05 -0.000221857 0)
(1.03602e-05 -5.66478e-05 0)
(-0.000125515 0.00013818 0)
(-0.000320713 0.000353719 0)
(-0.000578657 0.000582771 0)
(-0.000901563 0.000819657 0)
(-0.00129068 0.00106002 0)
(-0.00174649 0.00130062 0)
(-0.00226893 0.00153918 0)
(-0.0028575 0.00177414 0)
(-0.00351144 0.00200461 0)
(-0.00422979 0.00223012 0)
(-0.00501152 0.00245057 0)
(-0.00585555 0.00266611 0)
(-0.00676084 0.00287706 0)
(-0.00772634 0.00308379 0)
(-0.00875106 0.00328672 0)
(-0.00983406 0.00348626 0)
(-0.0109744 0.00368272 0)
(-0.0121712 0.00387636 0)
(-0.0134234 0.00406729 0)
(-0.0147302 0.00425553 0)
(-0.0160903 0.00444094 0)
(-0.0175027 0.00462326 0)
(-0.018966 0.00480208 0)
(-0.0204787 0.00497686 0)
(-0.0220391 0.00514694 0)
(-0.0236451 0.00531154 0)
(-0.0252946 0.00546975 0)
(-0.0269851 0.00562059 0)
(-0.0287136 0.00576298 0)
(-0.0304771 0.00589575 0)
(-0.0322721 0.00601769 0)
(-0.0340946 0.00612753 0)
(-0.0359406 0.00622395 0)
(-0.0378053 0.00630563 0)
(-0.0396839 0.00637122 0)
(-0.0415712 0.00641939 0)
(-0.0434615 0.00644879 0)
(-0.0453489 0.00645815 0)
(-0.0472271 0.00644621 0)
(-0.0490897 0.00641179 0)
(-0.0509299 0.00635376 0)
(-0.0527406 0.00627109 0)
(-0.0545147 0.00616287 0)
(-0.0562449 0.00602827 0)
(-0.0579235 0.00586662 0)
(-0.0595431 0.00567736 0)
(-0.0610961 0.00546013 0)
(-0.062575 0.00521469 0)
(-0.0639721 0.004941 0)
(-0.06528 0.00463921 0)
(-0.0664916 0.00430966 0)
(-0.0675998 0.00395287 0)
(-0.0685978 0.00356962 0)
(-0.0694791 0.00316084 0)
(-0.0702376 0.00272772 0)
(-0.0708677 0.00227165 0)
(-0.0713641 0.00179424 0)
(-0.071722 0.0012973 0)
(-0.0719374 0.000782845 0)
(-0.0720066 0.00025311 0)
(-0.0719266 -0.000289497 0)
(-0.0716953 -0.00084239 0)
(-0.0713111 -0.00140282 0)
(-0.070773 -0.00196787 0)
(-0.070081 -0.00253452 0)
(-0.0692358 -0.00309962 0)
(-0.0682389 -0.00365992 0)
(-0.0670925 -0.00421213 0)
(-0.0657998 -0.00475289 0)
(-0.0643646 -0.00527884 0)
(-0.0627916 -0.00578662 0)
(-0.0610863 -0.00627294 0)
(-0.0592549 -0.00673454 0)
(-0.0573045 -0.00716829 0)
(-0.0552428 -0.00757118 0)
(-0.0530782 -0.00794037 0)
(-0.0508197 -0.00827321 0)
(-0.0484771 -0.00856727 0)
(-0.0460605 -0.00882037 0)
(-0.0435806 -0.00903063 0)
(-0.0410486 -0.00919644 0)
(-0.0384759 -0.00931653 0)
(-0.0358742 -0.00938998 0)
(-0.0332556 -0.00941622 0)
(-0.0306321 -0.00939505 0)
(-0.0280158 -0.00932666 0)
(-0.0254188 -0.0092116 0)
(-0.0228531 -0.00905083 0)
(-0.0203302 -0.00884567 0)
(-0.0178617 -0.0085978 0)
(-0.0154586 -0.00830925 0)
(-0.0131313 -0.00798239 0)
(-0.0108899 -0.00761989 0)
(-0.0087436 -0.00722468 0)
(-0.00670111 -0.00679996 0)
(-0.00477027 -0.00634912 0)
(-0.0029581 -0.00587572 0)
(-0.00127077 -0.00538346 0)
(0.000286498 -0.00487614 0)
(0.00170941 -0.0043576 0)
(0.00299465 -0.00383171 0)
(0.00413992 -0.00330231 0)
(0.00514388 -0.00277319 0)
(0.00600622 -0.0022481 0)
(0.00672764 -0.00173064 0)
(0.0073098 -0.00122435 0)
(0.00775534 -0.000732617 0)
(0.00806788 -0.000258751 0)
(0.00825195 0.000194051 0)
(0.00831301 0.000622671 0)
(0.00825748 0.00102406 0)
(0.00809261 0.00139506 0)
(0.00782652 0.00173258 0)
(0.00746827 0.00203336 0)
(0.00702778 0.00229399 0)
(0.00651588 0.00251082 0)
(0.00594431 0.0026799 0)
(0.00532574 0.002797 0)
(0.00467373 0.00285757 0)
(0.00400281 0.00285685 0)
(0.00332837 0.00278997 0)
(0.00266673 0.00265231 0)
(0.00203506 0.0024399 0)
(0.00145136 0.00215022 0)
(0.000934403 0.00178317 0)
(0.000505129 0.00134249 0)
(0.0001916 0.00083769 0)
(1.6096e-05 0.000286756 0)
(4.96875e-06 -0.000175469 0)
(2.89102e-05 -0.000374172 0)
(4.68232e-05 -0.000446818 0)
(4.22325e-05 -0.000418099 0)
(9.1197e-08 -0.000308614 0)
(-9.05781e-05 -0.000136025 0)
(-0.000238038 8.45486e-05 0)
(-0.000448503 0.000340384 0)
(-0.000726487 0.000620969 0)
(-0.0010751 0.000917787 0)
(-0.00149631 0.0012241 0)
(-0.00199119 0.0015347 0)
(-0.00256011 0.00184573 0)
(-0.00320289 0.00215439 0)
(-0.00391899 0.00245883 0)
(-0.0047076 0.0027579 0)
(-0.00556776 0.00305101 0)
(-0.0064984 0.003338 0)
(-0.00749843 0.003619 0)
(-0.00856675 0.00389433 0)
(-0.00970229 0.00416441 0)
(-0.010904 0.00442968 0)
(-0.0121708 0.00469056 0)
(-0.0135017 0.00494739 0)
(-0.0148956 0.00520037 0)
(-0.0163514 0.00544959 0)
(-0.0178679 0.00569497 0)
(-0.0194438 0.00593627 0)
(-0.0210775 0.00617306 0)
(-0.0227675 0.00640475 0)
(-0.0245118 0.0066306 0)
(-0.0263083 0.00684969 0)
(-0.0281545 0.00706096 0)
(-0.0300478 0.00726321 0)
(-0.0319851 0.00745514 0)
(-0.0339629 0.00763531 0)
(-0.0359775 0.00780222 0)
(-0.0380246 0.00795428 0)
(-0.0400998 0.00808985 0)
(-0.0421981 0.00820725 0)
(-0.0443141 0.00830477 0)
(-0.0464423 0.00838071 0)
(-0.0485764 0.00843337 0)
(-0.0507101 0.00846109 0)
(-0.0528366 0.00846225 0)
(-0.0549489 0.00843531 0)
(-0.0570396 0.0083788 0)
(-0.0591011 0.00829138 0)
(-0.0611257 0.0081718 0)
(-0.0631052 0.00801896 0)
(-0.0650316 0.00783193 0)
(-0.0668968 0.00760994 0)
(-0.0686923 0.0073524 0)
(-0.07041 0.00705894 0)
(-0.0720416 0.0067294 0)
(-0.0735792 0.00636383 0)
(-0.0750146 0.00596254 0)
(-0.0763403 0.00552608 0)
(-0.0775487 0.00505526 0)
(-0.0786327 0.00455113 0)
(-0.0795855 0.00401503 0)
(-0.0804008 0.00344855 0)
(-0.0810727 0.00285355 0)
(-0.0815958 0.00223215 0)
(-0.0819654 0.00158672 0)
(-0.0821771 0.000919888 0)
(-0.0822276 0.000234517 0)
(-0.0821138 -0.000466303 0)
(-0.0818336 -0.00117927 0)
(-0.0813856 -0.0019009 0)
(-0.0807693 -0.00262751 0)
(-0.0799846 -0.00335528 0)
(-0.0790326 -0.00408026 0)
(-0.077915 -0.0047984 0)
(-0.0766346 -0.00550556 0)
(-0.0751947 -0.00619757 0)
(-0.0735996 -0.00687025 0)
(-0.0718544 -0.00751943 0)
(-0.0699652 -0.008141 0)
(-0.0679385 -0.00873094 0)
(-0.0657821 -0.00928536 0)
(-0.063504 -0.00980054 0)
(-0.0611134 -0.0102729 0)
(-0.0586198 -0.0106993 0)
(-0.0560335 -0.0110766 0)
(-0.0533655 -0.011402 0)
(-0.0506271 -0.0116734 0)
(-0.04783 -0.0118886 0)
(-0.0449866 -0.012046 0)
(-0.0421094 -0.0121445 0)
(-0.0392111 -0.0121833 0)
(-0.0363047 -0.0121622 0)
(-0.0334031 -0.0120812 0)
(-0.0305192 -0.0119411 0)
(-0.027666 -0.011743 0)
(-0.0248561 -0.0114884 0)
(-0.0221018 -0.0111795 0)
(-0.0194151 -0.0108185 0)
(-0.0168075 -0.0104085 0)
(-0.0142898 -0.00995275 0)
(-0.0118725 -0.00945481 0)
(-0.00956503 -0.00891862 0)
(-0.00737621 -0.00834842 0)
(-0.00531395 -0.00774863 0)
(-0.00338527 -0.00712386 0)
(-0.00159621 -0.00647889 0)
(4.81769e-05 -0.00581855 0)
(0.0015439 -0.00514772 0)
(0.00288802 -0.00447129 0)
(0.00407866 -0.0037941 0)
(0.00511507 -0.00312092 0)
(0.00599757 -0.00245643 0)
(0.00672754 -0.00180518 0)
(0.00730748 -0.00117159 0)
(0.00774093 -0.000559958 0)
(0.00803247 2.55318e-05 0)
(0.00818771 0.000580762 0)
(0.00821325 0.00110169 0)
(0.00811683 0.00158437 0)
(0.00790702 0.00202463 0)
(0.00759332 0.00241837 0)
(0.00718631 0.0027612 0)
(0.00669752 0.00304853 0)
(0.00613944 0.00327549 0)
(0.0055255 0.00343689 0)
(0.00487012 0.00352726 0)
(0.00418868 0.00354089 0)
(0.00349752 0.00347199 0)
(0.00281396 0.00331498 0)
(0.00215637 0.00306494 0)
(0.00154419 0.00271819 0)
(0.000998078 0.00227313 0)
(0.000541453 0.00173133 0)
(0.000205986 0.00109871 0)
(1.73523e-05 0.00038727 0)
(3.57365e-06 -0.000187081 0)
(1.08453e-05 -0.000384664 0)