/*--------------------------------*- C++ -*----------------------------------*\
  =========                 |
  \\      /  F ield         | OpenFOAM: The Open Source CFD Toolbox
   \\    /   O peration     | Website:  https://openfoam.org
    \\  /    A nd           | Version:  12
     \\/     M anipulation  |
\*---------------------------------------------------------------------------*/
FoamFile
{
    format      ascii;
    class       volScalarField;
    location    "1";
    object      p;
}
// * * * * * * * * * * * * * * * * * * * * * * * * * * * * * * * * * * * * * //

dimensions      [0 2 -2 0 0 0 0];

internalField   nonuniform List<scalar> 
900
(
-1.94607e-08
-0.00597372
-0.0162027
-0.0279338
-0.0385451
-0.0462583
-0.0499548
-0.0490173
-0.0432268
-0.0326805
-0.0177251
0.00109764
0.023094
0.0474552
0.0732919
0.0996631
0.125599
0.150139
0.172358
0.191406
0.206544
0.217193
0.222983
0.223818
0.219939
0.212006
0.201194
0.189337
0.179091
0.17317
0.00590899
-0.000116417
-0.00905129
-0.0187453
-0.027333
-0.033429
-0.0361003
-0.0348061
-0.0293343
-0.0197436
-0.00631331
0.0105001
0.0301
0.0517817
0.0747658
0.0982213
0.121293
0.143134
0.162933
0.179948
0.193544
0.203229
0.208707
0.209915
0.207087
0.200799
0.192035
0.182228
0.173283
0.167316
0.0162712
0.00868708
-0.000497716
-0.00926599
-0.0165997
-0.0215916
-0.0235439
-0.0220345
-0.016896
-0.00817953
0.00387898
0.0188899
0.0363393
0.055616
0.076039
0.0968793
0.117388
0.13682
0.154467
0.169679
0.181906
0.190724
0.195878
0.197315
0.195217
0.190042
0.182534
0.173651
0.164459
0.156951
0.0287132
0.0185356
0.00764401
-0.00159771
-0.00883707
-0.0135773
-0.015341
-0.0138413
-0.0089871
-0.000859107
0.0103117
0.0241655
0.0402349
0.0579673
0.0767467
0.0959139
0.11479
0.132699
0.148994
0.163082
0.174454
0.182713
0.187605
0.189042
0.18713
0.182193
0.174755
0.165375
0.154468
0.144374
0.0409957
0.0278285
0.0145459
0.00407277
-0.0037457
-0.0087445
-0.0106355
-0.00926345
-0.00462512
0.00314942
0.0138107
0.0270033
0.0422818
0.0591269
0.0769629
0.0951754
0.11313
0.130193
0.145753
0.159244
0.170171
0.178132
0.182848
0.184177
0.182135
0.176913
0.168856
0.158201
0.144874
0.131786
0.0515804
0.0353061
0.0193409
0.00725109
-0.00151017
-0.00704185
-0.00921246
-0.00798605
-0.00344891
0.0042099
0.0147078
0.0276771
0.0426753
0.0591978
0.0766905
0.0945637
0.112208
0.129011
0.144375
0.15774
0.168602
0.176537
0.181219
0.182441
0.180124
0.174342
0.16529
0.152956
0.136895
0.120672
0.0593607
0.0399565
0.0211816
0.00727653
-0.00261587
-0.00880599
-0.0112907
-0.0101409
-0.00553014
0.00228788
0.0129873
0.0261749
0.041397
0.058148
0.0758791
0.0940094
0.111937
0.129054
0.14476
0.158481
0.169686
0.177911
0.182772
0.183986
0.181378
0.174916
0.164673
0.150442
0.131491
0.112084
0.0634602
0.0409228
0.0192846
0.00348004
-0.00760725
-0.0144638
-0.017195
-0.0159689
-0.011045
-0.00274592
0.00855134
0.0224177
0.0383766
0.0559089
0.0744588
0.0934406
0.112247
0.130259
0.146859
0.161444
0.173443
0.182335
0.187665
0.189064
0.186263
0.179126
0.167626
0.151396
0.129469
0.106837
0.0631107
0.0374202
0.0128936
-0.0048197
-0.0170701
-0.024502
-0.0273183
-0.0257808
-0.0202363
-0.0110808
0.00125004
0.016283
0.0335093
0.0523869
0.0723434
0.0927783
0.113069
0.132574
0.150648
0.166645
0.179941
0.189945
0.196119
0.197996
0.195205
0.18751
0.174789
0.156533
0.131567
0.105644
0.0575641
0.0286676
0.00123307
-0.0183469
-0.0316513
-0.039479
-0.0421303
-0.0399633
-0.0334175
-0.0229696
-0.00912112
0.00760282
0.0266543
0.0474618
0.0694296
0.0919366
0.114337
0.135963
0.156127
0.174137
0.189298
0.200939
0.208424
0.211176
0.208707
0.200672
0.186854
0.166601
0.138532
0.109211
0.0460256
0.0138327
-0.0165333
-0.0378954
-0.0520734
-0.0600308
-0.062175
-0.0589713
-0.0509631
-0.0387175
-0.0228108
-0.00382663
0.0176427
0.0409923
0.0656004
0.0908226
0.115988
0.140396
0.163317
0.183999
0.201672
0.215568
0.224936
0.229072
0.227352
0.219303
0.204596
0.182425
0.151183
0.118308
0.0275994
-0.00801741
-0.0413415
-0.0643566
-0.0791501
-0.0868753
-0.0880676
-0.0833194
-0.0732953
-0.0586673
-0.0400962
-0.0182305
0.00628951
0.0328253
0.06073
0.0893377
0.117954
0.145848
0.172245
0.196331
0.21725
0.234123
0.246069
0.25223
0.251817
0.2442
0.228911
0.204953
0.170466
0.133836
0.00124028
-0.0379634
-0.0742685
-0.0987496
-0.113805
-0.12082
-0.120491
-0.11357
-0.100868
-0.0831797
-0.0612629
-0.0358368
-0.00758985
0.0228086
0.0546928
0.0873824
0.120167
0.152291
0.182941
0.211237
0.236234
0.256931
0.272291
0.281271
0.282882
0.276294
0.260848
0.235311
0.197511
0.156887
-0.0342979
-0.0772855
-0.116579
-0.142256
-0.157092
-0.162766
-0.160191
-0.150319
-0.134145
-0.112609
-0.0865802
-0.0568518
-0.0241583
0.0108088
0.0473768
0.0848634
0.122556
0.15969
0.195424
0.228818
0.258834
0.284337
0.304112
0.316897
0.321448
0.316672
0.301659
0.274855
0.233702
0.188805
-0.0805254
-0.127528
-0.169784
-0.196264
-0.21022
-0.213718
-0.207963
-0.194173
-0.173569
-0.14727
-0.116265
-0.0814275
-0.043528
-0.00326598
0.0386993
0.0817025
0.125052
0.168005
0.209702
0.249157
0.285246
0.316693
0.342081
0.359885
0.368542
0.366615
0.352844
0.325241
0.280745
0.231269
-0.139303
-0.190587
-0.235712
-0.262417
-0.274573
-0.274776
-0.264633
-0.245712
-0.219521
-0.187388
-0.150438
-0.109618
-0.065722
-0.0194339
0.0286295
0.0778588
0.127619
0.1772
0.22576
0.272305
0.315636
0.354335
0.386763
0.411082
0.425335
0.42763
0.416218
0.388513
0.340778
0.286396
-0.212972
-0.268834
-0.31662
-0.34268
-0.351738
-0.347129
-0.331019
-0.30544
-0.272255
-0.233037
-0.189058
-0.141322
-0.0906204
-0.0375814
0.0172519
0.0733617
0.130218
0.1872
0.243538
0.298253
0.350104
0.397546
0.438705
0.471385
0.49314
0.501482
0.493986
0.467221
0.416511
0.356886
-0.304554
-0.365305
-0.41533
-0.439424
-0.443525
-0.432025
-0.40787
-0.373697
-0.33181
-0.284057
-0.231847
-0.176216
-0.117907
-0.0574591
0.00471273
0.068268
0.132837
0.197938
0.262928
0.326907
0.388645
0.446504
0.498385
0.541694
0.573398
0.590232
0.588839
0.56458
0.51143
0.446253
-0.418072
-0.483983
-0.535441
-0.555523
-0.55197
-0.530706
-0.495758
-0.450547
-0.397896
-0.339941
-0.2782
-0.213687
-0.147038
-0.0786247
-0.00864482
0.0627867
0.135526
0.209323
0.283739
0.358038
0.43108
0.501205
0.566125
0.62284
0.667631
0.696251
0.704063
0.684689
0.630104
0.559169
-0.559096
-0.630246
-0.681615
-0.694471
-0.679301
-0.644284
-0.594922
-0.535604
-0.46973
-0.399699
-0.327064
-0.252727
-0.177117
-0.100338
-0.0222915
0.0572143
0.138359
0.221216
0.305656
0.391216
0.476964
0.561335
0.641951
0.715443
0.777346
0.822199
0.843662
0.832834
0.778653
0.702035
-0.735643
-0.811561
-0.859974
-0.860481
-0.827835
-0.773519
-0.705001
-0.627786
-0.545832
-0.461696
-0.376826
-0.29186
-0.20688
-0.121605
-0.0355313
0.0519422
0.141417
0.233397
0.328178
0.425717
0.525456
0.626107
0.725382
0.819687
0.903837
0.970929
1.01247
1.01589
0.965467
0.883929
-0.959749
-1.03856
-1.07859
-1.05848
-0.999746
-0.918436
-0.824645
-0.724982
-0.623767
-0.523477
-0.425199
-0.329081
-0.234671
-0.141149
-0.0474847
0.0474418
0.144755
0.245499
0.350532
0.460399
0.575136
0.694
0.815101
0.934927
1.0478
1.14521
1.21616
1.24286
1.20232
1.11823
-1.25033
-1.32683
-1.34806
-1.29389
-1.19636
-1.07769
-0.950958
-0.823617
-0.69985
-0.581585
-0.469138
-0.36184
-0.258459
-0.157459
-0.057157
0.0441896
0.148321
0.256923
0.371554
0.493539
0.623773
0.76243
0.908484
1.05904
1.2085
1.34725
1.46101
1.52543
1.50616
1.42552
-1.63883
-1.69979
-1.68204
-1.57192
-1.41687
-1.24747
-1.07879
-0.918128
-0.76882
-0.631417
-0.504818
-0.387089
-0.275928
-0.168902
-0.0635533
0.0425559
0.151846
0.266722
0.389558
0.522645
0.668048
0.827321
1.00099
1.18765
1.38274
1.57706
1.75289
1.87836
1.90202
1.83937
-2.17913
-2.19276
-2.09718
-1.8955
-1.65699
-1.41998
-1.1992
-1.00015
-0.823539
-0.667196
-0.527743
-0.401462
-0.28468
-0.173907
-0.0658461
0.0426636
0.154731
0.273502
0.402229
0.544321
0.70331
0.882669
1.08536
1.31288
1.5637
1.83086
2.09604
2.31883
2.42688
2.4163
-2.95752
-2.85514
-2.61061
-2.26256
-1.90548
-1.58064
-1.29842
-1.05829
-0.855137
-0.682303
-0.533154
-0.40167
-0.282575
-0.171254
-0.0635841
0.0442505
0.155972
0.275411
0.406658
0.554296
0.723547
0.920318
1.15103
1.42195
1.7376
2.09761
2.48926
2.86678
3.13223
3.24554
-4.10955
-3.75133
-3.22914
-2.65346
-2.13503
-1.70415
-1.35629
-1.07755
-0.85304
-0.6696
-0.516426
-0.384878
-0.268049
-0.160305
-0.0568625
0.0465633
0.154114
0.270141
0.399375
0.547455
0.721294
0.929533
1.18296
1.49465
1.87934
2.35068
2.91191
3.52842
4.08373
4.46464
-6.02935
-4.99862
-3.90633
-2.99006
-2.27813
-1.74013
-1.33766
-1.03462
-0.802325
-0.619807
-0.47199
-0.347955
-0.239604
-0.14071
-0.0462152
0.048263
0.146951
0.254417
0.375565
0.516665
0.685866
0.894167
1.15677
1.49489
1.93753
2.52135
3.28521
4.2568
5.40053
6.47205
-10.1524
-6.84808
-4.49176
-3.10238
-2.21184
-1.60817
-1.19236
-0.899069
-0.684821
-0.52218
-0.393627
-0.287499
-0.195676
-0.112196
-0.0323942
0.0476112
0.131855
0.224358
0.329549
0.453517
0.604458
0.794139
1.0403
1.37079
1.82986
2.48456
3.43679
4.90127
7.33972
10.7156
-17.7771
-9.30084
-4.95576
-3.03603
-1.99911
-1.37039
-0.976458
-0.71826
-0.538814
-0.406853
-0.304502
-0.220783
-0.148484
-0.0825263
-0.0190543
0.0449778
0.113175
0.188654
0.274955
0.377335
0.50309
0.663254
0.875843
1.1724
1.61065
2.29272
3.40056
5.41833
9.87754
18.4522
)
;

boundaryField
{
    movingWall
    {
        type            zeroGradient;
    }
    fixedWalls
    {
        type            zeroGradient;
    }
    frontAndBack
    {
        type            empty;
    }
}


// ************************************************************************* //
