/*--------------------------------*- C++ -*----------------------------------*\
  =========                 |
  \\      /  F ield         | OpenFOAM: The Open Source CFD Toolbox
   \\    /   O peration     | Website:  https://openfoam.org
    \\  /    A nd           | Version:  12
     \\/     M anipulation  |
\*---------------------------------------------------------------------------*/
FoamFile
{
    format      ascii;
    class       volScalarField;
    location    "5";
    object      epsilon;
}
// * * * * * * * * * * * * * * * * * * * * * * * * * * * * * * * * * * * * * //

dimensions      [0 2 -3 0 0 0 0];

internalField   nonuniform List<scalar> 
5625
(
1.16845e-08
2.20646e-08
4.6774e-08
7.62746e-08
1.09513e-07
1.45693e-07
1.84235e-07
2.24692e-07
2.667e-07
3.09942e-07
3.54135e-07
3.99019e-07
4.44351e-07
4.89901e-07
5.35448e-07
5.80783e-07
6.25702e-07
6.70009e-07
7.13517e-07
7.56043e-07
7.97412e-07
8.37458e-07
8.76018e-07
9.12939e-07
9.48076e-07
9.81291e-07
1.01245e-06
1.04144e-06
1.06814e-06
1.09245e-06
1.11428e-06
1.13353e-06
1.15013e-06
1.16402e-06
1.17514e-06
1.18344e-06
1.1889e-06
1.19147e-06
1.19116e-06
1.18795e-06
1.18185e-06
1.17288e-06
1.16106e-06
1.14644e-06
1.12906e-06
1.10899e-06
1.08629e-06
1.06105e-06
1.03336e-06
1.00332e-06
9.7104e-07
9.36649e-07
9.00277e-07
8.62064e-07
8.22163e-07
7.80732e-07
7.37943e-07
6.93972e-07
6.49008e-07
6.03247e-07
5.56894e-07
5.10164e-07
4.63282e-07
4.16485e-07
3.70023e-07
3.24159e-07
2.79177e-07
2.35388e-07
1.93135e-07
1.52819e-07
1.14923e-07
8.00713e-08
4.9114e-08
2.31713e-08
1.22704e-08
7.89925e-08
4.29714e-08
4.18255e-08
4.99631e-08
6.24818e-08
7.76289e-08
9.45628e-08
1.12799e-07
1.32019e-07
1.51989e-07
1.72524e-07
1.9347e-07
2.14689e-07
2.36058e-07
2.57462e-07
2.78794e-07
2.99952e-07
3.20839e-07
3.41363e-07
3.61436e-07
3.80973e-07
3.99892e-07
4.18116e-07
4.35571e-07
4.52189e-07
4.67901e-07
4.82647e-07
4.96367e-07
5.09008e-07
5.20521e-07
5.30859e-07
5.39981e-07
5.47852e-07
5.54439e-07
5.59716e-07
5.63661e-07
5.66255e-07
5.67489e-07
5.67354e-07
5.65849e-07
5.62975e-07
5.5874e-07
5.53157e-07
5.46246e-07
5.3803e-07
5.28538e-07
5.17802e-07
5.05863e-07
4.92765e-07
4.78556e-07
4.6329e-07
4.47026e-07
4.29828e-07
4.11764e-07
3.92907e-07
3.73334e-07
3.53128e-07
3.32376e-07
3.1117e-07
2.89607e-07
2.67788e-07
2.45823e-07
2.23825e-07
2.01919e-07
1.80238e-07
1.5893e-07
1.38164e-07
1.1814e-07
9.91075e-08
8.14092e-08
6.556e-08
5.24498e-08
4.39249e-08
4.5138e-08
8.2972e-08
1.75563e-07
8.60545e-08
6.63681e-08
6.2667e-08
6.57048e-08
7.2462e-08
8.15783e-08
9.23146e-08
1.04216e-07
1.16975e-07
1.30371e-07
1.44232e-07
1.5842e-07
1.72816e-07
1.8732e-07
2.01839e-07
2.1629e-07
2.30598e-07
2.44688e-07
2.58496e-07
2.71956e-07
2.85009e-07
2.97597e-07
3.09668e-07
3.2117e-07
3.32055e-07
3.42279e-07
3.51799e-07
3.60578e-07
3.68578e-07
3.75769e-07
3.82119e-07
3.87604e-07
3.922e-07
3.95888e-07
3.98652e-07
4.0048e-07
4.01362e-07
4.01293e-07
4.00273e-07
3.98301e-07
3.95382e-07
3.91528e-07
3.8675e-07
3.81065e-07
3.74494e-07
3.6706e-07
3.58793e-07
3.49722e-07
3.39884e-07
3.29318e-07
3.18066e-07
3.06175e-07
2.93695e-07
2.8068e-07
2.67188e-07
2.53281e-07
2.39025e-07
2.24491e-07
2.09755e-07
1.94898e-07
1.80011e-07
1.65191e-07
1.50549e-07
1.3621e-07
1.22324e-07
1.09074e-07
9.66974e-08
8.55193e-08
7.60211e-08
6.89824e-08
6.58353e-08
6.97548e-08
9.04596e-08
1.84537e-07
2.90132e-07
1.39185e-07
1.00925e-07
8.70141e-08
8.27664e-08
8.36148e-08
8.75979e-08
9.36899e-08
1.01279e-07
1.09963e-07
1.19461e-07
1.29564e-07
1.40108e-07
1.50961e-07
1.62013e-07
1.7317e-07
1.84349e-07
1.95475e-07
2.06479e-07
2.17301e-07
2.27882e-07
2.38169e-07
2.48111e-07
2.57663e-07
2.6678e-07
2.75422e-07
2.8355e-07
2.91129e-07
2.98126e-07
3.0451e-07
3.10256e-07
3.15337e-07
3.19732e-07
3.23422e-07
3.2639e-07
3.28622e-07
3.30108e-07
3.3084e-07
3.30814e-07
3.30029e-07
3.28483e-07
3.26181e-07
3.23133e-07
3.19347e-07
3.14839e-07
3.09625e-07
3.03725e-07
2.97163e-07
2.89965e-07
2.82163e-07
2.73789e-07
2.6488e-07
2.55477e-07
2.45623e-07
2.35367e-07
2.2476e-07
2.13859e-07
2.02724e-07
1.91422e-07
1.80024e-07
1.68613e-07
1.57276e-07
1.46117e-07
1.35255e-07
1.24829e-07
1.15015e-07
1.06034e-07
9.81848e-08
9.18902e-08
8.77962e-08
8.69834e-08
9.15146e-08
1.06194e-07
1.46471e-07
3.05301e-07
4.1731e-07
1.98749e-07
1.40979e-07
1.17131e-07
1.06314e-07
1.02163e-07
1.0202e-07
1.04531e-07
1.08913e-07
1.14663e-07
1.21434e-07
1.28974e-07
1.3709e-07
1.45632e-07
1.54472e-07
1.63508e-07
1.72649e-07
1.81816e-07
1.9094e-07
1.99959e-07
2.08815e-07
2.17456e-07
2.25834e-07
2.33904e-07
2.41625e-07
2.48959e-07
2.5587e-07
2.62325e-07
2.68294e-07
2.7375e-07
2.78666e-07
2.83021e-07
2.86794e-07
2.89968e-07
2.92528e-07
2.9446e-07
2.95756e-07
2.96408e-07
2.96411e-07
2.95766e-07
2.94469e-07
2.92527e-07
2.89945e-07
2.86735e-07
2.82908e-07
2.7848e-07
2.73469e-07
2.67897e-07
2.6179e-07
2.55176e-07
2.48085e-07
2.40553e-07
2.3262e-07
2.24326e-07
2.15718e-07
2.06848e-07
1.97771e-07
1.88549e-07
1.79249e-07
1.69947e-07
1.60727e-07
1.51688e-07
1.4294e-07
1.34618e-07
1.26884e-07
1.19942e-07
1.14061e-07
1.09604e-07
1.07103e-07
1.07383e-07
1.11866e-07
1.23352e-07
1.48546e-07
2.09456e-07
4.39775e-07
5.53591e-07
2.62814e-07
1.84607e-07
1.50744e-07
1.33618e-07
1.24888e-07
1.21118e-07
1.20592e-07
1.22333e-07
1.25727e-07
1.30359e-07
1.3593e-07
1.42218e-07
1.49046e-07
1.56275e-07
1.63788e-07
1.71487e-07
1.79286e-07
1.87111e-07
1.94897e-07
2.02583e-07
2.10116e-07
2.17448e-07
2.24533e-07
2.3133e-07
2.37802e-07
2.43914e-07
2.49634e-07
2.54933e-07
2.59784e-07
2.64163e-07
2.68047e-07
2.71419e-07
2.7426e-07
2.76556e-07
2.78296e-07
2.79469e-07
2.80069e-07
2.80091e-07
2.79535e-07
2.78399e-07
2.76688e-07
2.74408e-07
2.71569e-07
2.68183e-07
2.64265e-07
2.59833e-07
2.54908e-07
2.49515e-07
2.43683e-07
2.37441e-07
2.30826e-07
2.23875e-07
2.16633e-07
2.09146e-07
2.01466e-07
1.93653e-07
1.85769e-07
1.77886e-07
1.70086e-07
1.62459e-07
1.55113e-07
1.48175e-07
1.41794e-07
1.36157e-07
1.31502e-07
1.2814e-07
1.26511e-07
1.27259e-07
1.31415e-07
1.40786e-07
1.58995e-07
1.9484e-07
2.77458e-07
5.84436e-07
6.96322e-07
3.30032e-07
2.30657e-07
1.86637e-07
1.63302e-07
1.50214e-07
1.43106e-07
1.39868e-07
1.39314e-07
1.40708e-07
1.43561e-07
1.47526e-07
1.52346e-07
1.57821e-07
1.63794e-07
1.70136e-07
1.76739e-07
1.8351e-07
1.90368e-07
1.97245e-07
2.04076e-07
2.10806e-07
2.17385e-07
2.23766e-07
2.29908e-07
2.35771e-07
2.41322e-07
2.46526e-07
2.51357e-07
2.55785e-07
2.59789e-07
2.63346e-07
2.66436e-07
2.69044e-07
2.71156e-07
2.72758e-07
2.73843e-07
2.74402e-07
2.74433e-07
2.73936e-07
2.72906e-07
2.71351e-07
2.69276e-07
2.6669e-07
2.63606e-07
2.60039e-07
2.56008e-07
2.51534e-07
2.46642e-07
2.4136e-07
2.35721e-07
2.29761e-07
2.23518e-07
2.17038e-07
2.10371e-07
2.0357e-07
1.96698e-07
1.89823e-07
1.83023e-07
1.76386e-07
1.70011e-07
1.64016e-07
1.58538e-07
1.53748e-07
1.49855e-07
1.47132e-07
1.45943e-07
1.46806e-07
1.50492e-07
1.58256e-07
1.7232e-07
1.97193e-07
2.43905e-07
3.49119e-07
7.36626e-07
8.43336e-07
3.99336e-07
2.78296e-07
2.24008e-07
1.94514e-07
1.77207e-07
1.6695e-07
1.61218e-07
1.58604e-07
1.58245e-07
1.59567e-07
1.62175e-07
1.65774e-07
1.70142e-07
1.75101e-07
1.80509e-07
1.86248e-07
1.92216e-07
1.98328e-07
2.04508e-07
2.10691e-07
2.16815e-07
2.2283e-07
2.28686e-07
2.34341e-07
2.39754e-07
2.4489e-07
2.49715e-07
2.54201e-07
2.58321e-07
2.62049e-07
2.65365e-07
2.68249e-07
2.70684e-07
2.72657e-07
2.74155e-07
2.7517e-07
2.75695e-07
2.75725e-07
2.75262e-07
2.74301e-07
2.7285e-07
2.70914e-07
2.68503e-07
2.65631e-07
2.62312e-07
2.58566e-07
2.54415e-07
2.49885e-07
2.45005e-07
2.39808e-07
2.34334e-07
2.28623e-07
2.22722e-07
2.16684e-07
2.10567e-07
2.04435e-07
1.98362e-07
1.92429e-07
1.86733e-07
1.81381e-07
1.76502e-07
1.7225e-07
1.68813e-07
1.66428e-07
1.65403e-07
1.66159e-07
1.69296e-07
1.75725e-07
1.86933e-07
2.05586e-07
2.37121e-07
2.94889e-07
4.23358e-07
8.94149e-07
9.92785e-07
4.69834e-07
3.26856e-07
2.62254e-07
2.26653e-07
2.05233e-07
1.91967e-07
1.83903e-07
1.79405e-07
1.77472e-07
1.77452e-07
1.78887e-07
1.81452e-07
1.84894e-07
1.89018e-07
1.93667e-07
1.98711e-07
2.04041e-07
2.09565e-07
2.15202e-07
2.20882e-07
2.26541e-07
2.32124e-07
2.37581e-07
2.42866e-07
2.47939e-07
2.52763e-07
2.57303e-07
2.6153e-07
2.65415e-07
2.68935e-07
2.72067e-07
2.74792e-07
2.77094e-07
2.78957e-07
2.8037e-07
2.81325e-07
2.81814e-07
2.81833e-07
2.81384e-07
2.80464e-07
2.79078e-07
2.77235e-07
2.74944e-07
2.72219e-07
2.69076e-07
2.65535e-07
2.61619e-07
2.57356e-07
2.52776e-07
2.47914e-07
2.42809e-07
2.37505e-07
2.32053e-07
2.26507e-07
2.20929e-07
2.15388e-07
2.09962e-07
2.0474e-07
1.99824e-07
1.95331e-07
1.91403e-07
1.88208e-07
1.85953e-07
1.84905e-07
1.8541e-07
1.87947e-07
1.93206e-07
2.0224e-07
2.16781e-07
2.39954e-07
2.78149e-07
3.47098e-07
4.99246e-07
1.05509e-06
1.14306e-06
5.40753e-07
3.75777e-07
3.00889e-07
2.59253e-07
2.3382e-07
2.17664e-07
2.074e-07
2.01156e-07
1.97796e-07
1.96578e-07
1.9699e-07
1.98664e-07
2.01324e-07
2.04753e-07
2.08779e-07
2.13261e-07
2.18081e-07
2.23139e-07
2.2835e-07
2.33638e-07
2.38937e-07
2.44188e-07
2.49339e-07
2.54343e-07
2.59157e-07
2.63743e-07
2.68066e-07
2.72094e-07
2.758e-07
2.79159e-07
2.82148e-07
2.84747e-07
2.8694e-07
2.88713e-07
2.90053e-07
2.90952e-07
2.91403e-07
2.91402e-07
2.90952e-07
2.90049e-07
2.88699e-07
2.86912e-07
2.84698e-07
2.82071e-07
2.79048e-07
2.75649e-07
2.71901e-07
2.6783e-07
2.6347e-07
2.58857e-07
2.54032e-07
2.49042e-07
2.4394e-07
2.38782e-07
2.33636e-07
2.28575e-07
2.23681e-07
2.1905e-07
2.14791e-07
2.11032e-07
2.07926e-07
2.05657e-07
2.04455e-07
2.04612e-07
2.06518e-07
2.10712e-07
2.17976e-07
2.29508e-07
2.47293e-07
2.74922e-07
3.19752e-07
3.99924e-07
5.75948e-07
1.2177e-06
1.29275e-06
6.11422e-07
4.24578e-07
3.39506e-07
2.91937e-07
2.62597e-07
2.43661e-07
2.31313e-07
2.23444e-07
2.18776e-07
2.16482e-07
2.15992e-07
2.16896e-07
2.18891e-07
2.21739e-07
2.25252e-07
2.29278e-07
2.33689e-07
2.3838e-07
2.43258e-07
2.48243e-07
2.53265e-07
2.58263e-07
2.63182e-07
2.67973e-07
2.7259e-07
2.76995e-07
2.81152e-07
2.85028e-07
2.88595e-07
2.91827e-07
2.94702e-07
2.97199e-07
2.99301e-07
3.00995e-07
3.02269e-07
3.03113e-07
3.03522e-07
3.03492e-07
3.03025e-07
3.02119e-07
3.0078e-07
2.99019e-07
2.96846e-07
2.94276e-07
2.91327e-07
2.88022e-07
2.84387e-07
2.80451e-07
2.76247e-07
2.71816e-07
2.672e-07
2.62449e-07
2.57617e-07
2.52767e-07
2.47966e-07
2.43295e-07
2.3884e-07
2.34704e-07
2.31005e-07
2.27879e-07
2.25492e-07
2.24045e-07
2.23788e-07
2.25045e-07
2.28248e-07
2.33998e-07
2.43166e-07
2.57105e-07
2.78051e-07
3.10061e-07
3.61467e-07
4.52817e-07
6.52692e-07
1.38037e-06
1.44063e-06
6.81259e-07
4.72846e-07
3.77763e-07
3.24393e-07
2.91263e-07
2.69659e-07
2.55334e-07
2.45946e-07
2.40077e-07
2.36812e-07
2.35522e-07
2.35759e-07
2.37185e-07
2.39547e-07
2.42639e-07
2.46298e-07
2.50386e-07
2.54789e-07
2.5941e-07
2.64164e-07
2.68977e-07
2.73785e-07
2.7853e-07
2.83161e-07
2.87631e-07
2.919e-07
2.95931e-07
2.9969e-07
3.03149e-07
3.0628e-07
3.09062e-07
3.11473e-07
3.13498e-07
3.15121e-07
3.16331e-07
3.17119e-07
3.1748e-07
3.1741e-07
3.16912e-07
3.15984e-07
3.14634e-07
3.12872e-07
3.1071e-07
3.08163e-07
3.05251e-07
3.01998e-07
2.9843e-07
2.94579e-07
2.90481e-07
2.86176e-07
2.81711e-07
2.77136e-07
2.7251e-07
2.67897e-07
2.63372e-07
2.59016e-07
2.54924e-07
2.51204e-07
2.47982e-07
2.45405e-07
2.43651e-07
2.42937e-07
2.43537e-07
2.45804e-07
2.50215e-07
2.57429e-07
2.68415e-07
2.84672e-07
3.08689e-07
3.44989e-07
4.02867e-07
5.05262e-07
7.28752e-07
1.54156e-06
1.58566e-06
7.49766e-07
5.20232e-07
4.15371e-07
3.56362e-07
3.19571e-07
2.95413e-07
2.79218e-07
2.6841e-07
2.61436e-07
2.57293e-07
2.55293e-07
2.54948e-07
2.55891e-07
2.57848e-07
2.60597e-07
2.63962e-07
2.67797e-07
2.7198e-07
2.76408e-07
2.8099e-07
2.8565e-07
2.90319e-07
2.94937e-07
2.99451e-07
3.03813e-07
3.07981e-07
3.11917e-07
3.15586e-07
3.18959e-07
3.22009e-07
3.24713e-07
3.2705e-07
3.29004e-07
3.30559e-07
3.31706e-07
3.32435e-07
3.3274e-07
3.32621e-07
3.32078e-07
3.31111e-07
3.29728e-07
3.27941e-07
3.25762e-07
3.23209e-07
3.20301e-07
3.17063e-07
3.13524e-07
3.09717e-07
3.05679e-07
3.01453e-07
2.97088e-07
2.92637e-07
2.88161e-07
2.83728e-07
2.79417e-07
2.75314e-07
2.71519e-07
2.68147e-07
2.65331e-07
2.63231e-07
2.62035e-07
2.6198e-07
2.63357e-07
2.66556e-07
2.72093e-07
2.80689e-07
2.93406e-07
3.11889e-07
3.38878e-07
3.79353e-07
4.43555e-07
5.56771e-07
8.03431e-07
1.69982e-06
1.72697e-06
8.16534e-07
5.66448e-07
4.52096e-07
3.87634e-07
3.47325e-07
3.20732e-07
3.02769e-07
2.90638e-07
2.82648e-07
2.7771e-07
2.75081e-07
2.7423e-07
2.74764e-07
2.76384e-07
2.78857e-07
2.81991e-07
2.85633e-07
2.89651e-07
2.93937e-07
2.98397e-07
3.02948e-07
3.0752e-07
3.12049e-07
3.16481e-07
3.20766e-07
3.2486e-07
3.28724e-07
3.32323e-07
3.35627e-07
3.38608e-07
3.41244e-07
3.43513e-07
3.45399e-07
3.46888e-07
3.47968e-07
3.48631e-07
3.48873e-07
3.48692e-07
3.48089e-07
3.47065e-07
3.45631e-07
3.43797e-07
3.41577e-07
3.38989e-07
3.36055e-07
3.328e-07
3.29256e-07
3.25455e-07
3.21439e-07
3.17251e-07
3.12942e-07
3.08568e-07
3.04194e-07
2.99892e-07
2.95742e-07
2.91837e-07
2.88282e-07
2.85198e-07
2.82728e-07
2.8104e-07
2.80337e-07
2.8087e-07
2.82956e-07
2.87013e-07
2.93599e-07
3.03495e-07
3.17854e-07
3.38466e-07
3.68313e-07
4.1282e-07
4.83151e-07
6.06874e-07
8.76058e-07
1.85372e-06
1.86387e-06
8.8124e-07
6.11268e-07
4.87754e-07
4.18048e-07
3.74373e-07
3.45466e-07
3.25841e-07
3.12477e-07
3.03554e-07
2.97899e-07
2.94712e-07
2.93424e-07
2.93612e-07
2.94956e-07
2.97209e-07
3.00166e-07
3.03664e-07
3.07564e-07
3.11752e-07
3.16127e-07
3.20606e-07
3.25114e-07
3.29584e-07
3.3396e-07
3.3819e-07
3.4223e-07
3.46039e-07
3.49581e-07
3.52827e-07
3.55748e-07
3.5832e-07
3.60523e-07
3.62341e-07
3.63758e-07
3.64766e-07
3.65355e-07
3.65521e-07
3.65266e-07
3.64587e-07
3.6349e-07
3.61984e-07
3.60081e-07
3.57796e-07
3.55148e-07
3.5216e-07
3.4886e-07
3.45278e-07
3.41452e-07
3.37422e-07
3.33235e-07
3.28943e-07
3.24607e-07
3.20293e-07
3.16075e-07
3.12041e-07
3.08285e-07
3.04919e-07
3.02071e-07
2.99891e-07
2.98557e-07
2.98287e-07
2.99344e-07
3.02073e-07
3.06918e-07
3.14476e-07
3.25589e-07
3.41497e-07
3.6413e-07
3.96705e-07
4.45074e-07
5.2129e-07
6.55119e-07
9.45981e-07
2.00189e-06
1.9959e-06
9.43658e-07
6.54533e-07
5.22215e-07
4.47488e-07
4.00606e-07
3.69509e-07
3.48324e-07
3.33817e-07
3.24041e-07
3.1774e-07
3.1406e-07
3.12394e-07
3.12293e-07
3.13413e-07
3.15494e-07
3.18319e-07
3.21714e-07
3.25534e-07
3.29658e-07
3.33982e-07
3.38416e-07
3.42884e-07
3.47317e-07
3.51655e-07
3.55847e-07
3.59845e-07
3.63609e-07
3.67103e-07
3.70294e-07
3.73156e-07
3.75664e-07
3.77798e-07
3.79542e-07
3.80881e-07
3.81806e-07
3.82309e-07
3.82387e-07
3.82042e-07
3.81271e-07
3.80081e-07
3.78483e-07
3.76489e-07
3.74115e-07
3.71383e-07
3.68315e-07
3.64941e-07
3.61294e-07
3.57411e-07
3.53335e-07
3.49116e-07
3.44807e-07
3.40472e-07
3.36179e-07
3.32007e-07
3.28045e-07
3.24395e-07
3.21172e-07
3.18512e-07
3.16571e-07
3.1554e-07
3.15645e-07
3.17167e-07
3.20474e-07
3.26036e-07
3.34489e-07
3.46733e-07
3.6409e-07
3.88626e-07
4.23777e-07
4.75809e-07
5.57616e-07
7.0106e-07
1.01256e-06
2.14298e-06
2.12277e-06
1.00365e-06
6.96152e-07
5.55404e-07
4.75885e-07
4.25959e-07
3.92797e-07
3.70153e-07
3.54588e-07
3.44032e-07
3.37152e-07
3.33039e-07
3.31049e-07
3.30707e-07
3.31648e-07
3.33598e-07
3.36327e-07
3.39653e-07
3.43423e-07
3.4751e-07
3.51806e-07
3.56217e-07
3.60662e-07
3.65073e-07
3.69385e-07
3.73547e-07
3.7751e-07
3.81232e-07
3.84677e-07
3.87813e-07
3.90611e-07
3.93049e-07
3.95106e-07
3.96765e-07
3.98014e-07
3.98843e-07
3.99245e-07
3.99218e-07
3.98764e-07
3.97881e-07
3.96578e-07
3.94866e-07
3.92758e-07
3.90273e-07
3.87431e-07
3.84258e-07
3.80783e-07
3.77042e-07
3.73074e-07
3.68923e-07
3.6464e-07
3.60283e-07
3.55915e-07
3.51608e-07
3.47446e-07
3.43519e-07
3.39934e-07
3.36813e-07
3.34295e-07
3.32547e-07
3.31767e-07
3.32193e-07
3.34123e-07
3.37944e-07
3.44151e-07
3.5342e-07
3.66703e-07
3.85402e-07
4.11706e-07
4.49265e-07
5.04728e-07
5.91785e-07
7.44267e-07
1.07518e-06
2.27566e-06
2.24441e-06
1.0612e-06
7.36102e-07
5.87301e-07
5.03222e-07
4.50412e-07
4.15306e-07
3.913e-07
3.74759e-07
3.63493e-07
3.56092e-07
3.51599e-07
3.49333e-07
3.48793e-07
3.49594e-07
3.51446e-07
3.5411e-07
3.57393e-07
3.61136e-07
3.65207e-07
3.69491e-07
3.73891e-07
3.78325e-07
3.8272e-07
3.87012e-07
3.91145e-07
3.95072e-07
3.98749e-07
4.02139e-07
4.05211e-07
4.07936e-07
4.10291e-07
4.12256e-07
4.13816e-07
4.14957e-07
4.15671e-07
4.15952e-07
4.158e-07
4.15214e-07
4.14196e-07
4.12757e-07
4.10907e-07
4.08661e-07
4.06038e-07
4.03061e-07
3.99757e-07
3.96156e-07
3.92294e-07
3.88213e-07
3.83959e-07
3.79583e-07
3.75147e-07
3.70715e-07
3.66363e-07
3.62175e-07
3.58249e-07
3.54693e-07
3.51633e-07
3.49217e-07
3.47616e-07
3.47038e-07
3.47732e-07
3.50012e-07
3.54282e-07
3.61063e-07
3.71064e-07
3.85287e-07
4.05209e-07
4.33136e-07
4.72913e-07
5.31544e-07
6.23459e-07
7.84314e-07
1.13321e-06
2.39865e-06
2.36099e-06
1.11637e-06
7.74434e-07
6.17947e-07
5.29528e-07
4.73989e-07
4.37055e-07
4.11779e-07
3.94336e-07
3.82423e-07
3.74558e-07
3.69732e-07
3.67232e-07
3.66529e-07
3.67222e-07
3.69003e-07
3.71626e-07
3.74887e-07
3.7862e-07
3.82686e-07
3.86968e-07
3.91365e-07
3.95791e-07
4.00171e-07
4.04439e-07
4.08538e-07
4.1242e-07
4.16041e-07
4.19364e-07
4.22357e-07
4.24991e-07
4.27245e-07
4.29098e-07
4.30535e-07
4.31546e-07
4.32121e-07
4.32256e-07
4.31953e-07
4.31209e-07
4.3003e-07
4.28427e-07
4.26412e-07
4.24001e-07
4.21214e-07
4.18074e-07
4.14611e-07
4.10856e-07
4.06846e-07
4.02624e-07
3.98238e-07
3.93743e-07
3.89198e-07
3.84673e-07
3.80245e-07
3.76002e-07
3.72042e-07
3.68479e-07
3.65444e-07
3.63089e-07
3.61592e-07
3.61169e-07
3.62078e-07
3.6465e-07
3.69302e-07
3.7658e-07
3.87224e-07
4.02283e-07
4.23301e-07
4.52689e-07
4.94471e-07
5.55977e-07
6.5231e-07
8.20786e-07
1.18607e-06
2.51067e-06
2.47289e-06
1.16935e-06
8.11275e-07
6.47438e-07
5.54886e-07
4.96758e-07
4.58103e-07
4.3164e-07
4.13364e-07
4.00862e-07
3.9258e-07
3.87464e-07
3.84764e-07
3.8393e-07
3.8454e-07
3.86274e-07
3.88873e-07
3.92125e-07
3.95858e-07
3.99928e-07
4.04211e-07
4.08604e-07
4.13018e-07
4.17376e-07
4.2161e-07
4.25663e-07
4.29485e-07
4.33033e-07
4.36268e-07
4.39158e-07
4.41678e-07
4.43803e-07
4.45517e-07
4.46804e-07
4.47653e-07
4.48059e-07
4.48017e-07
4.47531e-07
4.46597e-07
4.45225e-07
4.43427e-07
4.41216e-07
4.38608e-07
4.35626e-07
4.32295e-07
4.28643e-07
4.24705e-07
4.20518e-07
4.16128e-07
4.11583e-07
4.06938e-07
4.02257e-07
3.9761e-07
3.93077e-07
3.88747e-07
3.84722e-07
3.81118e-07
3.78072e-07
3.75738e-07
3.74303e-07
3.73988e-07
3.7506e-07
3.77863e-07
3.82829e-07
3.90524e-07
4.01718e-07
4.17499e-07
4.39473e-07
4.70145e-07
5.13699e-07
5.77756e-07
6.78017e-07
8.53279e-07
1.23316e-06
2.61048e-06
2.58073e-06
1.22042e-06
8.46825e-07
6.75932e-07
5.79428e-07
5.18836e-07
4.78552e-07
4.50976e-07
4.31926e-07
4.18884e-07
4.10227e-07
4.04855e-07
4.01986e-07
4.01046e-07
4.01595e-07
4.03297e-07
4.05884e-07
4.09137e-07
4.12875e-07
4.16948e-07
4.2123e-07
4.25613e-07
4.30005e-07
4.34328e-07
4.38512e-07
4.42499e-07
4.46238e-07
4.49686e-07
4.52804e-07
4.55563e-07
4.57935e-07
4.59898e-07
4.61436e-07
4.62535e-07
4.63186e-07
4.63384e-07
4.63128e-07
4.62418e-07
4.61257e-07
4.59656e-07
4.57626e-07
4.55181e-07
4.52342e-07
4.49131e-07
4.45574e-07
4.41701e-07
4.37548e-07
4.33154e-07
4.28565e-07
4.23831e-07
4.19009e-07
4.14163e-07
4.09366e-07
4.04697e-07
4.0025e-07
3.96128e-07
3.92452e-07
3.89358e-07
3.87007e-07
3.8559e-07
3.85335e-07
3.86516e-07
3.89489e-07
3.94697e-07
4.02726e-07
4.1437e-07
4.30752e-07
4.53532e-07
4.85297e-07
5.30368e-07
5.96619e-07
7.00269e-07
8.81401e-07
1.27392e-06
2.69687e-06
2.68536e-06
1.26999e-06
8.81358e-07
7.03647e-07
6.03335e-07
5.40381e-07
4.98544e-07
4.69916e-07
4.50141e-07
4.366e-07
4.27603e-07
4.22005e-07
4.18991e-07
4.17964e-07
4.18467e-07
4.2015e-07
4.22734e-07
4.25991e-07
4.29734e-07
4.33807e-07
4.38079e-07
4.42439e-07
4.46793e-07
4.5106e-07
4.5517e-07
4.59063e-07
4.62689e-07
4.66003e-07
4.68969e-07
4.71556e-07
4.73739e-07
4.75498e-07
4.76816e-07
4.77682e-07
4.78089e-07
4.78033e-07
4.77517e-07
4.76537e-07
4.75103e-07
4.73227e-07
4.70921e-07
4.68201e-07
4.65089e-07
4.61609e-07
4.57788e-07
4.53657e-07
4.49254e-07
4.4462e-07
4.39799e-07
4.34845e-07
4.29815e-07
4.24774e-07
4.19796e-07
4.14963e-07
4.10368e-07
4.06118e-07
4.02334e-07
3.99157e-07
3.96751e-07
3.95309e-07
3.95066e-07
3.963e-07
3.99378e-07
4.04755e-07
4.13029e-07
4.25017e-07
4.41871e-07
4.65294e-07
4.97943e-07
5.44256e-07
6.12314e-07
7.1877e-07
9.04773e-07
1.30779e-06
2.76867e-06
2.78783e-06
1.31856e-06
9.1522e-07
7.30855e-07
6.26838e-07
5.61595e-07
5.18262e-07
4.88625e-07
4.68164e-07
4.54155e-07
4.44846e-07
4.39044e-07
4.35905e-07
4.34807e-07
4.35276e-07
4.36947e-07
4.39533e-07
4.42794e-07
4.46536e-07
4.506e-07
4.54849e-07
4.5917e-07
4.63464e-07
4.67648e-07
4.71653e-07
4.75418e-07
4.78891e-07
4.8203e-07
4.84798e-07
4.87166e-07
4.8911e-07
4.90611e-07
4.91656e-07
4.92234e-07
4.92341e-07
4.91978e-07
4.91141e-07
4.89839e-07
4.88079e-07
4.85875e-07
4.83241e-07
4.80197e-07
4.76765e-07
4.72969e-07
4.6884e-07
4.6441e-07
4.59717e-07
4.54803e-07
4.49715e-07
4.44506e-07
4.39234e-07
4.33966e-07
4.28776e-07
4.23747e-07
4.18973e-07
4.14562e-07
4.10637e-07
4.0734e-07
4.04837e-07
4.03327e-07
4.03044e-07
4.04276e-07
4.07393e-07
4.12859e-07
4.21286e-07
4.33505e-07
4.50693e-07
4.74586e-07
5.07899e-07
5.55156e-07
6.24606e-07
7.33239e-07
9.23038e-07
1.33426e-06
2.82479e-06
2.88944e-06
1.36674e-06
9.48827e-07
7.57883e-07
6.50212e-07
5.82719e-07
5.37922e-07
5.07306e-07
4.86182e-07
4.71728e-07
4.62126e-07
4.56138e-07
4.52888e-07
4.51731e-07
4.52175e-07
4.5384e-07
4.56428e-07
4.5969e-07
4.63426e-07
4.67468e-07
4.71677e-07
4.75935e-07
4.80141e-07
4.84211e-07
4.88073e-07
4.91667e-07
4.94941e-07
4.97854e-07
5.0037e-07
5.02461e-07
5.04105e-07
5.05287e-07
5.05994e-07
5.0622e-07
5.05963e-07
5.05223e-07
5.04003e-07
5.02313e-07
5.00163e-07
4.97569e-07
4.94549e-07
4.91122e-07
4.87313e-07
4.83149e-07
4.78661e-07
4.73883e-07
4.68855e-07
4.63618e-07
4.58222e-07
4.52719e-07
4.47169e-07
4.41638e-07
4.36201e-07
4.30941e-07
4.25954e-07
4.21348e-07
4.17245e-07
4.1379e-07
4.1115e-07
4.09524e-07
4.09151e-07
4.10321e-07
4.13407e-07
4.18881e-07
4.27363e-07
4.39695e-07
4.5707e-07
4.81252e-07
5.1499e-07
5.62876e-07
6.33274e-07
7.43413e-07
9.35863e-07
1.35284e-06
2.86419e-06
2.99164e-06
1.41521e-06
9.82657e-07
7.85108e-07
6.73775e-07
6.04032e-07
5.57777e-07
5.2619e-07
5.04415e-07
4.89528e-07
4.79644e-07
4.73483e-07
4.70134e-07
4.68927e-07
4.69353e-07
4.71016e-07
4.73606e-07
4.76865e-07
4.80585e-07
4.84591e-07
4.88739e-07
4.92908e-07
4.96994e-07
5.00911e-07
5.04586e-07
5.07959e-07
5.10979e-07
5.13605e-07
5.15805e-07
5.17552e-07
5.18826e-07
5.19615e-07
5.1991e-07
5.19708e-07
5.19009e-07
5.17815e-07
5.16136e-07
5.13983e-07
5.1137e-07
5.08314e-07
5.04837e-07
5.0096e-07
4.9671e-07
4.92116e-07
4.8721e-07
4.82029e-07
4.76613e-07
4.71004e-07
4.65253e-07
4.59411e-07
4.53541e-07
4.47707e-07
4.41984e-07
4.36457e-07
4.3122e-07
4.2638e-07
4.22062e-07
4.18408e-07
4.15587e-07
4.13798e-07
4.1328e-07
4.14325e-07
4.17308e-07
4.22706e-07
4.3114e-07
4.43461e-07
4.60871e-07
4.85147e-07
5.19062e-07
5.67243e-07
6.3812e-07
7.49056e-07
9.42946e-07
1.36309e-06
2.88593e-06
3.0961e-06
1.46475e-06
1.01724e-06
8.1295e-07
6.9788e-07
6.25846e-07
5.78108e-07
5.45539e-07
5.23109e-07
5.07791e-07
4.97632e-07
4.91305e-07
4.87866e-07
4.86619e-07
4.87035e-07
4.887e-07
4.91293e-07
4.94545e-07
4.98238e-07
5.02192e-07
5.06257e-07
5.10306e-07
5.14235e-07
5.17954e-07
5.21391e-07
5.24485e-07
5.27188e-07
5.29458e-07
5.31267e-07
5.32591e-07
5.33413e-07
5.33725e-07
5.33521e-07
5.32803e-07
5.31571e-07
5.29837e-07
5.27611e-07
5.24908e-07
5.21747e-07
5.18147e-07
5.14132e-07
5.09728e-07
5.04963e-07
4.99868e-07
4.94478e-07
4.8883e-07
4.82964e-07
4.76927e-07
4.70766e-07
4.64536e-07
4.58297e-07
4.52115e-07
4.46064e-07
4.40227e-07
4.34698e-07
4.29585e-07
4.25009e-07
4.21113e-07
4.18064e-07
4.1606e-07
4.15341e-07
4.16197e-07
4.19002e-07
4.24233e-07
4.32513e-07
4.44694e-07
4.61978e-07
4.86147e-07
5.19978e-07
5.68105e-07
6.38972e-07
7.49963e-07
9.44028e-07
1.36463e-06
2.88922e-06
3.20461e-06
1.51621e-06
1.05317e-06
8.41866e-07
7.22912e-07
6.48497e-07
5.99222e-07
5.65636e-07
5.42533e-07
5.26777e-07
5.16345e-07
5.09859e-07
5.06339e-07
5.05062e-07
5.05477e-07
5.07153e-07
5.09752e-07
5.12993e-07
5.16651e-07
5.20536e-07
5.24492e-07
5.2839e-07
5.32119e-07
5.35591e-07
5.38731e-07
5.4148e-07
5.43791e-07
5.45626e-07
5.46959e-07
5.47769e-07
5.48045e-07
5.47783e-07
5.46981e-07
5.45643e-07
5.4378e-07
5.41404e-07
5.38531e-07
5.3518e-07
5.31374e-07
5.27136e-07
5.22493e-07
5.17473e-07
5.12109e-07
5.06432e-07
5.00481e-07
4.94292e-07
4.8791e-07
4.81378e-07
4.74747e-07
4.68071e-07
4.61409e-07
4.54827e-07
4.48398e-07
4.42204e-07
4.36338e-07
4.30905e-07
4.26025e-07
4.21839e-07
4.18513e-07
4.16242e-07
4.15265e-07
4.15871e-07
4.18425e-07
4.23405e-07
4.31427e-07
4.43339e-07
4.60338e-07
4.84194e-07
5.17674e-07
5.65387e-07
6.35735e-07
7.46012e-07
9.38941e-07
1.35721e-06
2.87352e-06
3.31907e-06
1.57049e-06
1.09104e-06
8.72338e-07
7.49277e-07
6.72343e-07
6.21441e-07
5.86784e-07
5.62977e-07
5.46769e-07
5.36061e-07
5.29423e-07
5.25835e-07
5.24543e-07
5.24971e-07
5.26669e-07
5.29281e-07
5.32514e-07
5.36129e-07
5.39929e-07
5.43751e-07
5.47459e-07
5.50942e-07
5.54109e-07
5.56886e-07
5.59215e-07
5.61049e-07
5.62357e-07
5.63115e-07
5.63309e-07
5.62932e-07
5.61983e-07
5.60469e-07
5.584e-07
5.5579e-07
5.52658e-07
5.49026e-07
5.44917e-07
5.40357e-07
5.35375e-07
5.30002e-07
5.24268e-07
5.1821e-07
5.11862e-07
5.05262e-07
4.98452e-07
4.91474e-07
4.84375e-07
4.77205e-07
4.70016e-07
4.6287e-07
4.55829e-07
4.48967e-07
4.42365e-07
4.36115e-07
4.3032e-07
4.25096e-07
4.20579e-07
4.16931e-07
4.14343e-07
4.13046e-07
4.13326e-07
4.1554e-07
4.20163e-07
4.27805e-07
4.39301e-07
4.55835e-07
4.79158e-07
5.12002e-07
5.58923e-07
6.28224e-07
7.36991e-07
9.27424e-07
1.34046e-06
2.83802e-06
3.44147e-06
1.62852e-06
1.13151e-06
9.04865e-07
7.77393e-07
6.9775e-07
6.45102e-07
6.09298e-07
5.84744e-07
5.68064e-07
5.57079e-07
5.50299e-07
5.46661e-07
5.45375e-07
5.45839e-07
5.47579e-07
5.50217e-07
5.53446e-07
5.57014e-07
5.60713e-07
5.64373e-07
5.67852e-07
5.71036e-07
5.73833e-07
5.76169e-07
5.77989e-07
5.7925e-07
5.79925e-07
5.79996e-07
5.79455e-07
5.783e-07
5.7654e-07
5.74187e-07
5.71257e-07
5.67773e-07
5.63758e-07
5.59241e-07
5.5425e-07
5.48817e-07
5.42975e-07
5.36759e-07
5.30203e-07
5.23347e-07
5.16227e-07
5.08885e-07
5.01362e-07
4.93704e-07
4.85956e-07
4.78169e-07
4.70396e-07
4.627e-07
4.55144e-07
4.47796e-07
4.40733e-07
4.34041e-07
4.27819e-07
4.22183e-07
4.17266e-07
4.13225e-07
4.10246e-07
4.08557e-07
4.08437e-07
4.10232e-07
4.14407e-07
4.21559e-07
4.32506e-07
4.48409e-07
4.70985e-07
5.02915e-07
5.4867e-07
6.16392e-07
7.2284e-07
9.09398e-07
1.31425e-06
2.78245e-06
3.57384e-06
1.69125e-06
1.17522e-06
9.39953e-07
8.07683e-07
7.25091e-07
6.70544e-07
6.33499e-07
6.08145e-07
5.90972e-07
5.79711e-07
5.72807e-07
5.69147e-07
5.67902e-07
5.68434e-07
5.70243e-07
5.72929e-07
5.76165e-07
5.79683e-07
5.83265e-07
5.8673e-07
5.89933e-07
5.92756e-07
5.95105e-07
5.9691e-07
5.98118e-07
5.98692e-07
5.98612e-07
5.97865e-07
5.96453e-07
5.94382e-07
5.91667e-07
5.88331e-07
5.84397e-07
5.79895e-07
5.74857e-07
5.69317e-07
5.6331e-07
5.56874e-07
5.50046e-07
5.42865e-07
5.35371e-07
5.27604e-07
5.19606e-07
5.11419e-07
5.03087e-07
4.94655e-07
4.86171e-07
4.77689e-07
4.6926e-07
4.60939e-07
4.52786e-07
4.44871e-07
4.3727e-07
4.30068e-07
4.23361e-07
4.1726e-07
4.1189e-07
4.07404e-07
4.0398e-07
4.01837e-07
4.01246e-07
4.02543e-07
4.06173e-07
4.12721e-07
4.22982e-07
4.38083e-07
4.59697e-07
4.90432e-07
5.34641e-07
6.00252e-07
7.03572e-07
8.84871e-07
1.27859e-06
2.70684e-06
3.71816e-06
1.75961e-06
1.2228e-06
9.78095e-07
8.40559e-07
7.54729e-07
6.98099e-07
6.59705e-07
6.33494e-07
6.15811e-07
6.04284e-07
5.97286e-07
5.93647e-07
5.92488e-07
5.93134e-07
5.95052e-07
5.97814e-07
6.01071e-07
6.04538e-07
6.07983e-07
6.11215e-07
6.14084e-07
6.16468e-07
6.18276e-07
6.19439e-07
6.1991e-07
6.19664e-07
6.18684e-07
6.16968e-07
6.14527e-07
6.11379e-07
6.0755e-07
6.03069e-07
5.97971e-07
5.92295e-07
5.8608e-07
5.79368e-07
5.72201e-07
5.64622e-07
5.56674e-07
5.48401e-07
5.39845e-07
5.31052e-07
5.22064e-07
5.12926e-07
5.03683e-07
4.94383e-07
4.85075e-07
4.75806e-07
4.66627e-07
4.57596e-07
4.48775e-07
4.40228e-07
4.32028e-07
4.24257e-07
4.17005e-07
4.10378e-07
4.04496e-07
3.99504e-07
3.95572e-07
3.92909e-07
3.91775e-07
3.92492e-07
3.95485e-07
4.0132e-07
4.10759e-07
4.24893e-07
4.45333e-07
4.74598e-07
5.16891e-07
5.79865e-07
6.7926e-07
8.53937e-07
1.23362e-06
2.61145e-06
3.87636e-06
1.8345e-06
1.27486e-06
1.01976e-06
8.76415e-07
7.87009e-07
7.2809e-07
6.88225e-07
6.61102e-07
6.42899e-07
6.31131e-07
6.24085e-07
6.20526e-07
6.19518e-07
6.20337e-07
6.22414e-07
6.25288e-07
6.28582e-07
6.31993e-07
6.35271e-07
6.38218e-07
6.40676e-07
6.42524e-07
6.4367e-07
6.44055e-07
6.43643e-07
6.42411e-07
6.40358e-07
6.37495e-07
6.33844e-07
6.29435e-07
6.24307e-07
6.18501e-07
6.12063e-07
6.05041e-07
5.97485e-07
5.89442e-07
5.80963e-07
5.72097e-07
5.62892e-07
5.53396e-07
5.43656e-07
5.33718e-07
5.23629e-07
5.13435e-07
5.03182e-07
4.92919e-07
4.8269e-07
4.72547e-07
4.62542e-07
4.52729e-07
4.43167e-07
4.33919e-07
4.25054e-07
4.16649e-07
4.08791e-07
4.01578e-07
3.95125e-07
3.89568e-07
3.85068e-07
3.81822e-07
3.80074e-07
3.80135e-07
3.82403e-07
3.87419e-07
3.95911e-07
4.08919e-07
4.27984e-07
4.55517e-07
4.95537e-07
5.55367e-07
6.50066e-07
8.16802e-07
1.17962e-06
2.49692e-06
4.05021e-06
1.91675e-06
1.33197e-06
1.06538e-06
9.15604e-07
8.22248e-07
7.60812e-07
7.19353e-07
6.91268e-07
6.7255e-07
6.60585e-07
6.5356e-07
6.50165e-07
6.49389e-07
6.50455e-07
6.5275e-07
6.55773e-07
6.59117e-07
6.62455e-07
6.6552e-07
6.68105e-07
6.70048e-07
6.71225e-07
6.71557e-07
6.70996e-07
6.69509e-07
6.67092e-07
6.63759e-07
6.59535e-07
6.54459e-07
6.48577e-07
6.41943e-07
6.34611e-07
6.2664e-07
6.18088e-07
6.09014e-07
5.99476e-07
5.89531e-07
5.79233e-07
5.68635e-07
5.5779e-07
5.46746e-07
5.35554e-07
5.2426e-07
5.12913e-07
5.01559e-07
4.90245e-07
4.79018e-07
4.67927e-07
4.57023e-07
4.46359e-07
4.3599e-07
4.25978e-07
4.16387e-07
4.07291e-07
3.9877e-07
3.90917e-07
3.8384e-07
3.77663e-07
3.72539e-07
3.68652e-07
3.66229e-07
3.65562e-07
3.67027e-07
3.71128e-07