/*--------------------------------*- C++ -*----------------------------------*\
  =========                 |
  \\      /  F ield         | OpenFOAM: The Open Source CFD Toolbox
   \\    /   O peration     | Website:  https://openfoam.org
    \\  /    A nd           | Version:  12
     \\/     M anipulation  |
\*---------------------------------------------------------------------------*/
FoamFile
{
    format      ascii;
    class       volScalarField;
    location    "5";
    object      nut;
}
// * * * * * * * * * * * * * * * * * * * * * * * * * * * * * * * * * * * * * //

dimensions      [0 2 -1 0 0 0 0];

internalField   nonuniform List<scalar> 
5625
(
2.04306e-16
6.17289e-15
1.30857e-14
2.13389e-14
3.06377e-14
4.07595e-14
5.15421e-14
6.28607e-14
7.46129e-14
8.67104e-14
9.9074e-14
1.11631e-13
1.24313e-13
1.37056e-13
1.49799e-13
1.62482e-13
1.75049e-13
1.87444e-13
1.99616e-13
2.11513e-13
2.23087e-13
2.3429e-13
2.45078e-13
2.55407e-13
2.65237e-13
2.7453e-13
2.83248e-13
2.91357e-13
2.98827e-13
3.05628e-13
3.11734e-13
3.1712e-13
3.21765e-13
3.25651e-13
3.28762e-13
3.31085e-13
3.3261e-13
3.3333e-13
3.33243e-13
3.32345e-13
3.30639e-13
3.28129e-13
3.24823e-13
3.20732e-13
3.1587e-13
3.10254e-13
3.03904e-13
2.96842e-13
2.89095e-13
2.80691e-13
2.71661e-13
2.6204e-13
2.51864e-13
2.41173e-13
2.3001e-13
2.1842e-13
2.06449e-13
1.94147e-13
1.81568e-13
1.68766e-13
1.55798e-13
1.42725e-13
1.29609e-13
1.16517e-13
1.03518e-13
9.06872e-14
7.81031e-14
6.58525e-14
5.4032e-14
4.27531e-14
3.21511e-14
2.24009e-14
1.37402e-14
6.48245e-15
2.14549e-16
1.3812e-15
2.01164e-13
1.07378e-12
2.51116e-12
4.22332e-12
6.07423e-12
8.01533e-12
1.0026e-11
1.20932e-11
1.42063e-11
1.63549e-11
1.8529e-11
2.07187e-11
2.29144e-11
2.51063e-11
2.72852e-11
2.94419e-11
3.15675e-11
3.36533e-11
3.56909e-11
3.76722e-11
3.95892e-11
4.14345e-11
4.32008e-11
4.48813e-11
4.64695e-11
4.79591e-11
4.93446e-11
5.06205e-11
5.17819e-11
5.28244e-11
5.37438e-11
5.45366e-11
5.51997e-11
5.57304e-11
5.61265e-11
5.63863e-11
5.65085e-11
5.64924e-11
5.63381e-11
5.60456e-11
5.56158e-11
5.50502e-11
5.43507e-11
5.35196e-11
5.25598e-11
5.14746e-11
5.02678e-11
4.89439e-11
4.75077e-11
4.59644e-11
4.43197e-11
4.258e-11
4.07517e-11
3.88421e-11
3.68585e-11
3.48089e-11
3.27014e-11
3.05447e-11
2.83479e-11
2.61201e-11
2.38712e-11
2.1611e-11
1.93498e-11
1.70982e-11
1.48669e-11
1.26671e-11
1.05102e-11
8.40818e-12
6.37541e-12
4.43445e-12
2.63727e-12
1.12779e-12
2.11288e-13
1.45078e-15
3.06976e-15
5.03695e-13
3.43775e-12
1.027e-11
2.07461e-11
3.3785e-11
4.84154e-11
6.40114e-11
8.02099e-11
9.67968e-11
1.13634e-10
1.30622e-10
1.47678e-10
1.64729e-10
1.81705e-10
1.98542e-10
2.15173e-10
2.31537e-10
2.4757e-10
2.63213e-10
2.78406e-10
2.93093e-10
3.07217e-10
3.20727e-10
3.33572e-10
3.45703e-10
3.57076e-10
3.67647e-10
3.77377e-10
3.8623e-10
3.94173e-10
4.01174e-10
4.07209e-10
4.12252e-10
4.16286e-10
4.19293e-10
4.21262e-10
4.22183e-10
4.22052e-10
4.20869e-10
4.18632e-10
4.15351e-10
4.11035e-10
4.05698e-10
3.99357e-10
3.92035e-10
3.83755e-10
3.74546e-10
3.64441e-10
3.53474e-10
3.41684e-10
3.29114e-10
3.15808e-10
3.01815e-10
2.87186e-10
2.71975e-10
2.56238e-10
2.40034e-10
2.23424e-10
2.06473e-10
1.89244e-10
1.71806e-10
1.5423e-10
1.36588e-10
1.18961e-10
1.01439e-10
8.41319e-11
6.71907e-11
5.08484e-11
3.5496e-11
2.18009e-11
1.07927e-11
3.61278e-12
5.29393e-13
3.22666e-15
5.07304e-15
8.53305e-13
6.22038e-12
2.04356e-11
4.56697e-11
8.14394e-11
1.25734e-10
1.76249e-10
2.31033e-10
2.88633e-10
3.48018e-10
4.08459e-10
4.69425e-10
5.30503e-10
5.91358e-10
6.51703e-10
7.11277e-10
7.69842e-10
8.27174e-10
8.83056e-10
9.37282e-10
9.89653e-10
1.03998e-09
1.08808e-09
1.13377e-09
1.1769e-09
1.21731e-09
1.25485e-09
1.28938e-09
1.32078e-09
1.34893e-09
1.37374e-09
1.3951e-09
1.41295e-09
1.42721e-09
1.43784e-09
1.44477e-09
1.448e-09
1.4475e-09
1.44328e-09
1.43532e-09
1.42366e-09
1.40834e-09
1.38939e-09
1.36688e-09
1.34089e-09
1.3115e-09
1.27879e-09
1.24289e-09
1.20392e-09
1.16199e-09
1.11726e-09
1.06988e-09
1.02001e-09
9.67824e-10
9.13502e-10
8.57238e-10
7.99236e-10
7.3971e-10
6.78888e-10
6.17016e-10
5.54363e-10
4.91236e-10
4.27993e-10
3.6508e-10
3.03079e-10
2.42787e-10
1.85324e-10
1.32258e-10
8.56802e-11
4.80488e-11
2.14992e-11
6.54421e-12
8.97836e-13
5.33823e-15
7.29679e-15
1.23778e-12
9.24092e-12
3.15684e-11
7.40838e-11
1.39148e-10
2.25764e-10
3.30841e-10
4.50531e-10
5.81132e-10
7.19483e-10
8.6304e-10
1.00981e-09
1.15823e-09
1.30705e-09
1.45526e-09
1.60201e-09
1.74654e-09
1.8882e-09
2.02636e-09
2.16048e-09
2.29003e-09
2.41452e-09
2.53348e-09
2.64648e-09
2.75311e-09
2.85298e-09
2.94573e-09
3.03104e-09
3.10859e-09
3.17811e-09
3.23935e-09
3.29209e-09
3.33613e-09
3.37132e-09
3.39753e-09
3.41464e-09
3.4226e-09
3.42137e-09
3.41096e-09
3.39134e-09
3.36258e-09
3.32478e-09
3.27803e-09
3.2225e-09
3.15834e-09
3.08576e-09
3.005e-09
2.9163e-09
2.81996e-09
2.71629e-09
2.60564e-09
2.48838e-09
2.3649e-09
2.23564e-09
2.10107e-09
1.96168e-09
1.81802e-09
1.6707e-09
1.52039e-09
1.36787e-09
1.21403e-09
1.05998e-09
9.07066e-10
7.56995e-10
6.1195e-10
4.74709e-10
3.48718e-10
2.37993e-10
1.46676e-10
7.80788e-11
3.32653e-11
9.73701e-12
1.30433e-12
7.68954e-15
9.6797e-15
1.64819e-12
1.24378e-11
4.32819e-11
1.04136e-10
2.01338e-10
3.36748e-10
5.08374e-10
7.11744e-10
9.41268e-10
1.19126e-09
1.45651e-09
1.73247e-09
2.01535e-09
2.30196e-09
2.58967e-09
2.87624e-09
3.15978e-09
3.43864e-09
3.71135e-09
3.97662e-09
4.23326e-09
4.48017e-09
4.71635e-09
4.94087e-09
5.15285e-09
5.35149e-09
5.53606e-09
5.70586e-09
5.86028e-09
5.99876e-09
6.12078e-09
6.22592e-09
6.31377e-09
6.38403e-09
6.43642e-09
6.47075e-09
6.48687e-09
6.48471e-09
6.4643e-09
6.42555e-09
6.36863e-09
6.2937e-09
6.20098e-09
6.09075e-09
5.96334e-09
5.81915e-09
5.65865e-09
5.48233e-09
5.29079e-09
5.08467e-09
4.86466e-09
4.63153e-09
4.38615e-09
4.12944e-09
3.86245e-09
3.58631e-09
3.30233e-09
3.012e-09
2.71701e-09
2.4194e-09
2.12153e-09
1.82629e-09
1.53714e-09
1.25832e-09
9.9484e-10
7.52482e-10
5.37493e-10
3.55968e-10
2.12756e-10
1.09996e-10
4.57018e-11
1.31306e-11
1.73998e-12
1.0219e-14
1.21754e-14
2.07719e-12
1.57631e-11
5.53946e-11
1.35123e-10
2.65667e-10
4.5269e-10
6.96723e-10
9.94173e-10
1.33877e-09
1.72293e-09
2.13879e-09
2.57887e-09
3.0364e-09
3.50539e-09
3.98067e-09
4.45775e-09
4.93275e-09
5.4023e-09
5.86341e-09
6.31344e-09
6.75003e-09
7.17104e-09
7.57451e-09
7.95867e-09
8.32189e-09
8.66267e-09
8.97965e-09
9.27157e-09
9.53732e-09
9.77585e-09
9.98628e-09
1.01678e-08
1.03197e-08
1.04414e-08
1.05325e-08
1.05925e-08
1.06212e-08
1.06185e-08
1.05844e-08
1.05187e-08
1.04218e-08
1.02939e-08
1.01353e-08
9.94655e-09
9.72826e-09
9.48111e-09
9.2059e-09
8.90356e-09
8.57513e-09
8.22178e-09
7.84483e-09
7.44573e-09
7.02614e-09
6.58788e-09
6.13301e-09
5.66385e-09
5.18308e-09
4.69376e-09
4.1995e-09
3.70447e-09
3.21363e-09
2.73274e-09
2.26849e-09
1.8285e-09
1.42118e-09
1.05531e-09
7.3931e-10
4.8009e-10
2.81552e-10
1.43102e-10
5.86311e-11
1.66779e-11
2.19747e-12
1.288e-14
1.4746e-14
2.51857e-12
1.91741e-11
6.77654e-11
1.66647e-10
3.31003e-10
5.70661e-10
8.89426e-10
1.28564e-09
1.75348e-09
2.28443e-09
2.86862e-09
3.49584e-09
4.15623e-09
4.84061e-09
5.54069e-09
6.24904e-09
6.95908e-09
7.66499e-09
8.36159e-09
9.04427e-09
9.70888e-09
1.03517e-08
1.09694e-08
1.15588e-08
1.21173e-08
1.26422e-08
1.31312e-08
1.35823e-08
1.39935e-08
1.43633e-08
1.46899e-08
1.49722e-08
1.52089e-08
1.53991e-08
1.55421e-08
1.56371e-08
1.56837e-08
1.56817e-08
1.56312e-08
1.55318e-08
1.53839e-08
1.5188e-08
1.49447e-08
1.46546e-08
1.43189e-08
1.39385e-08
1.35148e-08
1.30494e-08
1.25439e-08
1.20003e-08
1.14209e-08
1.08082e-08
1.01651e-08
9.49466e-09
8.8007e-09
8.08738e-09
7.35952e-09
6.62264e-09
5.88309e-09
5.14816e-09
4.42618e-09
3.72661e-09
3.0599e-09
2.43735e-09
1.8706e-09
1.37084e-09
9.47628e-10
6.07402e-10
3.51933e-10
1.77e-10
7.19134e-11
2.03359e-11
2.67052e-12
1.56344e-14
1.73592e-14
2.96693e-12
2.2632e-11
8.02672e-11
1.98393e-10
3.96616e-10
6.88994e-10
1.0829e-09
1.57917e-09
2.17319e-09
2.85632e-09
3.61745e-09
4.44412e-09
5.32369e-09
6.24383e-09
7.19294e-09
8.16033e-09
9.13628e-09
1.0112e-08
1.10796e-08
1.20319e-08
1.29625e-08
1.38656e-08
1.4736e-08
1.55687e-08
1.63595e-08
1.71045e-08
1.77999e-08
1.84427e-08
1.90298e-08
1.95585e-08
2.00267e-08
2.04321e-08
2.0773e-08
2.1048e-08
2.12556e-08
2.13951e-08
2.14656e-08
2.14667e-08
2.13985e-08
2.12604e-08
2.1053e-08
2.07769e-08
2.04329e-08
2.00223e-08
1.95462e-08
1.90066e-08
1.84054e-08
1.77449e-08
1.70278e-08
1.62573e-08
1.54368e-08
1.45704e-08
1.36625e-08
1.27185e-08
1.17442e-08
1.07462e-08
9.73228e-09
8.71106e-09
7.69237e-09
6.6873e-09
5.70815e-09
4.76841e-09
3.88246e-09
3.06508e-09
2.33065e-09
1.69197e-09
1.15878e-09
7.36209e-10
4.23159e-10
2.11371e-10
8.54182e-11
2.40649e-11
3.15354e-12
1.84484e-14
1.99869e-14
3.41754e-12
2.61022e-11
9.27836e-11
2.30083e-10
4.61928e-10
8.06528e-10
1.27485e-09
1.87048e-09
2.59038e-09
3.42636e-09
4.36659e-09
5.39704e-09
6.5026e-09
7.66806e-09
8.87867e-09
1.01204e-08
1.13803e-08
1.26464e-08
1.39076e-08
1.5154e-08
1.63764e-08
1.75667e-08
1.87171e-08
1.98209e-08
2.08718e-08
2.1864e-08
2.27923e-08
2.36521e-08
2.44391e-08
2.51494e-08
2.57797e-08
2.63269e-08
2.67885e-08
2.71622e-08
2.74461e-08
2.76388e-08
2.77392e-08
2.77466e-08
2.7661e-08
2.74816e-08
2.7209e-08
2.68442e-08
2.63882e-08
2.58426e-08
2.52094e-08
2.4491e-08
2.36903e-08
2.28106e-08
2.18559e-08
2.08308e-08
1.97402e-08
1.85903e-08
1.73875e-08
1.61397e-08
1.48553e-08
1.35443e-08
1.22175e-08
1.08874e-08
9.56784e-09
8.27397e-09
7.02236e-09
5.8306e-09
4.71682e-09
3.69892e-09
2.79346e-09
2.01416e-09
1.37037e-09
8.65278e-10
4.94611e-10
2.45918e-10
9.90202e-11
2.78272e-11
3.64141e-12
2.12918e-14
2.26044e-14
3.86621e-12
2.95536e-11
1.05209e-10
2.61467e-10
5.26437e-10
9.22333e-10
1.46363e-09
2.15664e-09
3.00011e-09
3.98657e-09
5.10387e-09
6.33679e-09
7.66823e-09
9.08043e-09
1.05557e-08
1.20769e-08
1.36279e-08
1.51932e-08
1.67589e-08
1.83119e-08
1.98403e-08
2.13329e-08
2.27797e-08
2.41715e-08
2.54999e-08
2.6757e-08
2.79358e-08
2.903e-08
3.00336e-08
3.09416e-08
3.17491e-08
3.2452e-08
3.30468e-08
3.35303e-08
3.39e-08
3.41537e-08
3.42898e-08
3.43073e-08
3.42062e-08
3.39852e-08
3.36451e-08
3.31869e-08
3.26123e-08
3.19232e-08
3.11222e-08
3.02125e-08
2.91982e-08
2.80837e-08
2.68744e-08
2.55766e-08
2.41974e-08
2.27447e-08
2.1228e-08
1.96575e-08
1.80451e-08
1.64041e-08
1.47491e-08
1.30967e-08
1.14649e-08
9.87313e-09
8.34228e-09
6.89391e-09
5.54963e-09
4.3301e-09
3.25352e-09
2.33415e-09
1.58049e-09
9.93546e-10
5.65712e-10
2.80349e-10
1.12598e-10
3.15874e-11
4.12934e-12
2.41361e-14
2.51903e-14
4.30931e-12
3.29589e-11
1.17449e-10
2.92317e-10
5.89697e-10
1.03562e-09
1.6479e-09
2.43546e-09
3.39885e-09
4.53143e-09
5.82096e-09
7.25127e-09
8.80373e-09
1.04582e-08
1.21945e-08
1.39926e-08
1.5833e-08
1.76975e-08
1.95689e-08
2.1431e-08
2.3269e-08
2.5069e-08
2.68183e-08
2.85053e-08
3.0119e-08
3.16495e-08
3.30879e-08
3.44257e-08
3.56555e-08
3.67705e-08
3.77645e-08
3.86321e-08
3.93686e-08
3.99697e-08
4.04321e-08
4.07529e-08
4.093e-08
4.09616e-08
4.0848e-08
4.05871e-08
4.01799e-08
3.96277e-08
3.89324e-08
3.80964e-08
3.71231e-08
3.60166e-08
3.4782e-08
3.34252e-08
3.19532e-08
3.0374e-08
2.8697e-08
2.69326e-08
2.50928e-08
2.31913e-08
2.12431e-08
1.92652e-08
1.72763e-08
1.52972e-08
1.335e-08
1.14588e-08
9.64837e-09
7.94415e-09
6.37101e-09
4.95192e-09
3.7065e-09
2.64921e-09
1.78747e-09
1.12001e-09
6.35898e-10
3.1438e-10
1.26033e-10
3.53113e-11
4.61279e-12
2.69547e-14
2.77263e-14
4.74372e-12
3.62945e-11
1.29421e-10
3.22435e-10
6.51317e-10
1.1457e-09
1.82654e-09
2.70521e-09
3.78394e-09
5.05693e-09
6.51197e-09
8.13213e-09
9.89741e-09
1.17858e-08
1.37746e-08
1.58411e-08
1.79633e-08
2.01198e-08
2.22904e-08
2.44562e-08
2.65994e-08
2.87034e-08
3.07529e-08
3.27336e-08
3.46323e-08
3.64368e-08
3.8136e-08
3.97197e-08
4.11784e-08
4.25037e-08
4.3688e-08
4.47243e-08
4.56067e-08
4.63299e-08
4.68895e-08
4.72818e-08
4.75039e-08
4.75536e-08
4.74311e-08
4.71336e-08
4.66622e-08
4.60183e-08
4.5204e-08
4.42225e-08
4.30778e-08
4.17749e-08
4.032e-08
3.87206e-08
3.69853e-08
3.51242e-08
3.31487e-08
3.10721e-08
2.89091e-08
2.66767e-08
2.43934e-08
2.208e-08
1.97594e-08
1.74563e-08
1.51974e-08
1.30108e-08
1.09254e-08
8.97015e-09
7.17296e-09
5.55884e-09
4.14865e-09
2.95687e-09
1.98973e-09
1.2437e-09
7.04613e-10
3.47731e-10
1.39211e-10
3.89659e-11
5.08737e-12
2.9722e-14
3.01973e-14
5.16685e-12
3.95409e-11
1.41057e-10
3.51654e-10
7.10969e-10
1.25202e-09
1.99865e-09
2.9645e-09
4.15332e-09
5.56009e-09
7.17264e-09
8.97338e-09
1.09411e-08
1.30521e-08
1.52815e-08
1.76043e-08
1.99957e-08
2.24319e-08
2.48899e-08
2.7348e-08
2.97856e-08
3.21837e-08
3.45242e-08
3.67904e-08
3.89669e-08
4.10393e-08
4.29942e-08
4.48195e-08
4.65041e-08
4.80375e-08
4.94107e-08
5.06154e-08
5.16441e-08
5.24906e-08
5.31492e-08
5.36154e-08
5.38855e-08
5.39567e-08
5.38292e-08
5.34993e-08
5.29681e-08
5.22372e-08
5.1309e-08
5.01871e-08
4.88761e-08
4.73822e-08
4.57127e-08
4.38765e-08
4.18838e-08
3.97468e-08
3.74793e-08
3.50971e-08
3.2618e-08
3.0062e-08
2.74513e-08
2.48105e-08
2.21665e-08
1.9548e-08
1.69861e-08
1.45127e-08
1.21607e-08
9.96244e-09
7.94848e-09
6.14587e-09
4.57648e-09
3.25472e-09
2.18569e-09
1.36365e-09
7.71304e-10
3.80124e-10
1.52018e-10
4.2519e-11
5.54888e-12
3.24131e-14
3.25914e-14
5.57667e-12
4.26826e-11
1.52303e-10
3.79842e-10
7.68391e-10
1.35412e-09
2.16352e-09
3.21228e-09
4.50547e-09
6.03874e-09
7.79993e-09
9.77085e-09
1.19291e-08
1.42496e-08
1.67054e-08
1.92695e-08
2.19147e-08
2.46147e-08
2.7344e-08
3.00784e-08
3.2795e-08
3.5472e-08
3.80891e-08
4.06274e-08
4.3069e-08
4.53975e-08
4.75977e-08
4.96553e-08
5.15574e-08
5.32921e-08
5.48486e-08
5.62171e-08
5.73891e-08
5.83567e-08
5.91135e-08
5.96541e-08
5.99738e-08
6.00691e-08
5.99402e-08
5.95826e-08
5.89971e-08
5.81856e-08
5.71507e-08
5.58964e-08
5.44281e-08
5.27526e-08
5.08784e-08
4.88159e-08
4.6577e-08
4.41758e-08
4.16284e-08
3.89531e-08
3.61707e-08
3.33043e-08
3.03796e-08
2.74248e-08
2.44706e-08
2.15501e-08
1.86979e-08
1.595e-08
1.3343e-08
1.09124e-08
8.69111e-09
6.70826e-09
4.9866e-09
3.54045e-09
2.37381e-09
1.47888e-09
8.3542e-10
4.11285e-10
1.64343e-10
4.59394e-11
5.99319e-12
3.5004e-14
3.49002e-14
5.97175e-12
4.57086e-11
1.63119e-10
4.06904e-10
8.23398e-10
1.45169e-09
2.32066e-09
3.44779e-09
4.83933e-09
6.49142e-09
8.39183e-09
1.05218e-08
1.28578e-08
1.53735e-08
1.804e-08
2.08285e-08
2.37097e-08
2.6655e-08
2.96368e-08
3.26285e-08
3.56048e-08
3.85419e-08
4.14172e-08
4.42097e-08
4.68995e-08
4.94682e-08
5.18986e-08
5.41748e-08
5.6282e-08
5.82069e-08
5.99371e-08
6.14614e-08
6.277e-08
6.3854e-08
6.47058e-08
6.53189e-08
6.56881e-08
6.5809e-08
6.56819e-08
6.5301e-08
6.46674e-08
6.37828e-08
6.265e-08
6.12734e-08
5.96589e-08
5.78142e-08
5.5749e-08
5.34746e-08
5.10048e-08
4.83555e-08
4.55449e-08
4.25938e-08
3.95257e-08
3.63667e-08
3.31459e-08
2.9895e-08
2.66483e-08
2.34427e-08
2.03166e-08
1.73097e-08
1.44619e-08
1.18117e-08
9.39464e-09
7.2414e-09
5.37565e-09
3.8117e-09
2.55254e-09
1.58844e-09
8.96414e-10
4.40943e-10
1.76078e-10
4.91964e-11
6.41628e-12
3.74711e-14
3.71188e-14
6.35124e-12
4.86125e-11
1.73484e-10
4.32786e-10
8.75884e-10
1.54453e-09
2.46978e-09
3.67065e-09
5.15435e-09
6.91737e-09
8.94732e-09
1.12248e-08
1.37253e-08
1.6421e-08
1.92817e-08
2.22765e-08
2.53745e-08
2.8545e-08
3.17583e-08
3.49858e-08
3.82003e-08
4.13758e-08
4.44879e-08
4.75135e-08
5.0431e-08
5.32203e-08
5.58623e-08
5.83396e-08
6.06359e-08
6.27363e-08
6.46271e-08
6.62959e-08
6.77315e-08
6.89241e-08
6.9865e-08
7.0547e-08
7.09638e-08
7.11104e-08
7.09872e-08
7.05872e-08
6.99114e-08
6.89616e-08
6.77407e-08
6.62533e-08
6.45058e-08
6.25066e-08
6.02663e-08
5.77976e-08
5.51155e-08
5.22377e-08
4.91843e-08
4.59785e-08
4.26462e-08
3.92165e-08
3.57214e-08
3.21959e-08
2.86779e-08
2.52075e-08
2.18269e-08
1.85792e-08
1.55073e-08
1.26527e-08
1.0053e-08
7.74068e-09
5.7403e-09
4.06614e-09
2.72032e-09
1.69135e-09
9.53739e-10
4.68828e-10
1.87113e-10
5.22596e-11
6.8142e-12
3.97913e-14
3.92461e-14
6.71496e-12
5.1393e-11
1.83393e-10
4.57477e-10
9.25829e-10
1.63264e-09
2.61086e-09
3.88083e-09
5.45049e-09
7.31654e-09
9.46628e-09
1.18796e-08
1.45311e-08
1.73915e-08
2.04293e-08
2.36119e-08
2.69066e-08
3.0281e-08
3.37035e-08
3.71439e-08
4.05729e-08
4.3963e-08
4.7288e-08
5.05231e-08
5.36452e-08
5.66324e-08
5.94643e-08
6.21222e-08
6.45882e-08
6.68463e-08
6.88816e-08
7.06805e-08
7.22307e-08
7.35215e-08
7.45433e-08
7.52879e-08
7.57484e-08
7.59196e-08
7.58011e-08
7.53852e-08
7.46728e-08
7.36657e-08
7.23667e-08
7.07808e-08
6.89146e-08
6.67773e-08
6.438e-08
6.17366e-08
5.88634e-08
5.57794e-08
5.25067e-08
4.90705e-08
4.54989e-08
4.18236e-08
3.80794e-08
3.43042e-08
3.0539e-08
2.68273e-08
2.32143e-08
1.97464e-08
1.64694e-08
1.34273e-08
1.066e-08
8.20151e-09
6.07719e-09
4.30142e-09
2.87558e-09
1.78664e-09
1.00685e-09
4.94674e-10
1.97343e-10
5.50993e-11
7.18306e-12
4.1942e-14
4.12849e-14
7.06339e-12
5.40536e-11
1.92859e-10
4.81011e-10
9.73306e-10
1.71614e-09
2.74412e-09
4.07868e-09
5.72826e-09
7.6896e-09
9.94957e-09
1.24873e-08
1.52763e-08
1.82862e-08
2.14839e-08
2.48354e-08
2.83063e-08
3.18627e-08
3.54715e-08
3.91005e-08
4.27193e-08
4.62986e-08
4.98108e-08
5.32297e-08
5.65308e-08
5.96909e-08
6.26886e-08
6.55036e-08
6.81173e-08
7.05124e-08
7.2673e-08
7.45846e-08
7.62342e-08
7.76101e-08
7.8702e-08
7.9501e-08
7.99993e-08
8.01918e-08
8.00776e-08
7.96478e-08
7.89036e-08
7.78466e-08
7.64796e-08
7.48077e-08
7.28379e-08
7.05797e-08
6.80449e-08
6.52483e-08
6.2207e-08
5.89417e-08
5.54757e-08
5.1836e-08
4.80527e-08
4.41598e-08
4.01945e-08
3.61973e-08
3.22121e-08
2.8285e-08
2.44644e-08
2.07993e-08
1.73384e-08
1.41279e-08
1.12096e-08
8.61927e-09
6.38293e-09
4.51517e-09
3.01676e-09
1.87337e-09
1.05521e-09
5.18215e-10
2.06663e-10
5.76863e-11
7.51906e-12
4.39009e-14
4.3242e-14
7.39768e-12
5.66033e-11
2.01913e-10
5.03469e-10
1.01848e-09
1.79533e-09
2.87005e-09
4.26493e-09
5.98871e-09
8.03796e-09
1.0399e-08
1.30501e-08
1.59637e-08
1.9108e-08
2.24488e-08
2.59503e-08
2.9577e-08
3.32933e-08
3.70647e-08
4.08577e-08
4.46404e-08
4.83823e-08
5.20546e-08
5.56299e-08
5.90826e-08
6.23885e-08
6.55252e-08
6.84716e-08
7.12081e-08
7.37168e-08
7.5981e-08
7.79854e-08
7.97164e-08
8.11616e-08
8.23103e-08
8.31529e-08
8.36811e-08
8.38899e-08
8.37776e-08
8.33345e-08
8.25622e-08
8.1462e-08
8.00367e-08
7.82914e-08
7.62332e-08
7.3872e-08
7.12202e-08
6.8293e-08
6.51086e-08
6.16883e-08
5.80571e-08
5.42431e-08
5.02783e-08
4.61983e-08
4.20425e-08
3.78537e-08
3.3678e-08
2.95643e-08
2.55631e-08
2.17262e-08
1.81046e-08
1.47465e-08
1.16958e-08
8.98935e-09
6.65417e-09
4.70504e-09
3.14232e-09
1.95056e-09
1.09829e-09
5.39193e-10
2.14969e-10
5.9992e-11
7.81847e-12
4.56463e-14
4.51282e-14
7.71968e-12
5.90563e-11
2.10607e-10
5.2498e-10
1.06162e-09
1.87069e-09
2.98942e-09
4.44073e-09
6.23346e-09
8.3638e-09
1.08174e-08
1.35714e-08
1.65971e-08
1.98615e-08
2.33289e-08
2.69622e-08
3.07244e-08
3.45785e-08
3.84888e-08
4.24206e-08
4.63408e-08
5.02178e-08
5.40218e-08
5.77247e-08
6.12999e-08
6.47225e-08
6.79695e-08
7.10192e-08
7.38515e-08
7.64478e-08
7.8791e-08
8.08656e-08
8.26574e-08
8.41537e-08
8.53433e-08
8.62161e-08
8.67645e-08
8.69821e-08
8.68677e-08
8.64103e-08
8.56123e-08
8.44746e-08
8.3e-08
8.11933e-08
7.90621e-08
7.66162e-08
7.38684e-08
7.08342e-08
6.75325e-08
6.39855e-08
6.02187e-08
5.62617e-08
5.21475e-08
4.79133e-08
4.36e-08
3.92523e-08
3.49183e-08
3.06488e-08
2.64966e-08
2.25154e-08
1.87584e-08
1.52756e-08
1.21125e-08
9.30716e-09
6.88754e-09
4.86869e-09
3.2507e-09
2.01728e-09
1.13556e-09
5.57351e-10
2.22161e-10
6.19883e-11
8.07767e-12
4.71571e-14
4.69581e-14
8.03193e-12
6.14319e-11
2.19011e-10
5.4572e-10
1.10308e-09
1.94285e-09
3.10326e-09
4.60762e-09
6.46465e-09
8.66998e-09
1.12083e-08
1.40557e-08
1.7182e-08
2.05529e-08
2.41313e-08
2.78786e-08
3.17564e-08
3.57266e-08
3.97521e-08
4.37973e-08
4.7828e-08
5.18119e-08
5.57184e-08
5.95187e-08
6.31858e-08
6.66944e-08
7.0021e-08
7.31437e-08
7.60423e-08
7.86978e-08
8.10932e-08
8.32127e-08
8.50421e-08
8.65686e-08
8.77807e-08
8.86684e-08
8.92243e-08
8.94419e-08
8.93186e-08
8.88446e-08
8.80219e-08
8.68513e-08
8.53353e-08
8.3479e-08
8.12897e-08
7.87773e-08
7.59548e-08
7.2838e-08
6.9446e-08
6.58014e-08
6.19304e-08
5.78631e-08
5.36336e-08
4.928e-08
4.48444e-08
4.03729e-08
3.59149e-08
3.15229e-08
2.72513e-08
2.31555e-08
1.92904e-08
1.57075e-08
1.24536e-08
9.56819e-09
7.07976e-09
5.00384e-09
3.3404e-09
2.0726e-09
1.1665e-09
5.72444e-10
2.28141e-10
6.36484e-11
8.29317e-12
4.84129e-14
4.87506e-14
8.33762e-12
6.37549e-11
2.27214e-10
5.65911e-10
1.14332e-09
2.01262e-09
3.21286e-09
4.76753e-09
6.685e-09
8.96009e-09
1.15764e-08
1.45085e-08
1.7725e-08
2.11898e-08
2.48644e-08
2.87087e-08
3.2683e-08
3.67478e-08
4.0865e-08
4.49981e-08
4.9112e-08
5.31739e-08
5.71526e-08
6.10191e-08
6.47461e-08
6.83082e-08
7.16819e-08
7.48454e-08
7.77786e-08
8.04627e-08
8.28809e-08
8.50177e-08
8.6859e-08
8.83923e-08
8.96059e-08
9.04912e-08
9.10397e-08
9.12459e-08
9.11055e-08
9.06107e-08
8.97628e-08
8.85625e-08
8.70123e-08
8.51171e-08
8.28842e-08
8.03236e-08
7.7448e-08
7.42732e-08
7.08185e-08
6.71066e-08
6.31638e-08
5.90206e-08
5.47116e-08
5.02752e-08
4.57545e-08
4.11961e-08
3.66506e-08
3.21714e-08
2.78141e-08
2.36355e-08
1.96914e-08
1.60348e-08
1.27136e-08
9.76804e-09
7.22763e-09
5.10824e-09
3.40997e-09
2.11564e-09
1.19063e-09
5.84232e-10
2.32816e-10
6.49465e-11
8.46164e-12
4.93944e-14
5.05278e-14
8.64059e-12
6.60547e-11
2.35321e-10
5.8582e-10
1.18289e-09
2.08098e-09
3.31978e-09
4.92276e-09
6.8977e-09
9.23836e-09
1.19269e-08
1.49365e-08
1.82337e-08
2.1781e-08
2.5538e-08
2.94632e-08
3.35153e-08
3.76538e-08
4.18394e-08
4.60348e-08
5.02043e-08
5.43147e-08
5.83346e-08
6.22349e-08
6.59884e-08
6.957e-08
7.29565e-08
7.61266e-08
7.90606e-08
8.17406e-08
8.415e-08
8.62741e-08
8.80993e-08
8.96135e-08
9.08062e-08
9.16687e-08
9.21929e-08
9.23745e-08
9.2207e-08
9.16854e-08
9.08103e-08
8.95823e-08
8.8004e-08
8.608e-08
8.38176e-08
8.12265e-08
7.83193e-08
7.51116e-08
7.16224e-08
6.78741e-08
6.38931e-08
5.97096e-08
5.53581e-08
5.08773e-08
4.63102e-08
4.17039e-08
3.71092e-08
3.25801e-08
2.81729e-08
2.39448e-08
1.99528e-08
1.62505e-08
1.28867e-08
9.90256e-09
7.32811e-09
5.17981e-09
3.45801e-09
2.14555e-09
1.20748e-09
5.92493e-10
2.36099e-10
6.58586e-11
8.57998e-12
5.00835e-14
5.23157e-14
8.94527e-12
6.83655e-11
2.43455e-10
6.05758e-10
1.2224e-09
2.14903e-09
3.42579e-09
5.07594e-09
7.10639e-09
9.50957e-09
1.2266e-08
1.53468e-08
1.87167e-08
2.23361e-08
2.61628e-08
3.01536e-08
3.42656e-08
3.84572e-08
4.2688e-08
4.692e-08
5.11172e-08
5.5246e-08
5.92751e-08
6.31757e-08
6.6921e-08
7.04866e-08
7.385e-08
7.69907e-08
7.989e-08
8.25309e-08
8.4898e-08
8.69773e-08
8.87563e-08
9.02238e-08
9.13707e-08
9.21883e-08
9.26695e-08
9.28113e-08
9.26052e-08
9.20494e-08
9.11438e-08
8.9889e-08
8.82875e-08
8.63441e-08
8.40656e-08
8.14616e-08
7.85442e-08
7.53287e-08
7.18334e-08
6.80804e-08
6.40953e-08
5.9908e-08
5.55524e-08
5.10667e-08
4.64936e-08
4.18799e-08
3.7276e-08
3.2736e-08
2.83162e-08
2.4074e-08
2.00666e-08
1.63482e-08
1.29681e-08
9.96789e-09
7.37839e-09
5.21657e-09
3.48325e-09
2.16155e-09
1.21663e-09
5.97022e-10
2.3791e-10
6.63627e-11
8.64537e-12
5.04639e-14
5.41429e-14
9.25661e-12
7.07254e-11
2.51754e-10
6.26069e-10
1.26258e-09
2.21802e-09
3.53288e-09
5.22997e-09
7.31507e-09
9.77894e-09
1.26e-08
1.57473e-08
1.91831e-08
2.28654e-08
2.67501e-08
3.07919e-08
3.49465e-08
3.91708e-08
4.34237e-08
4.76664e-08
5.18627e-08
5.5979e-08
5.99845e-08
6.38507e-08
6.75519e-08
7.10646e-08
7.43674e-08
7.74412e-08
8.02685e-08
8.28338e-08
8.51232e-08
8.71239e-08
8.8825e-08
9.02169e-08
9.12911e-08
9.20401e-08
9.24583e-08
9.25429e-08
9.22858e-08
9.16873e-08
9.07468e-08
8.9465e-08
8.78447e-08
8.58904e-08
8.36088e-08
8.1009e-08
7.81027e-08
7.49043e-08
7.14316e-08
6.77058e-08
6.37515e-08
5.95976e-08
5.52771e-08
5.08272e-08
4.62896e-08
4.171e-08
3.71384e-08
3.26279e-08
2.82342e-08
2.40146e-08
2.00258e-08
1.63222e-08
1.29531e-08
9.9606e-09
7.37597e-09
5.2168e-09
3.48455e-09
2.16297e-09
1.2177e-09
5.97641e-10
2.38178e-10
6.644e-11
8.65539e-12
5.05216e-14
5.60411e-14
9.58002e-12
7.31761e-11
2.60367e-10
6.47132e-10
1.30417e-09
2.28931e-09
3.6432e-09
5.38799e-09
7.52803e-09
1.0052e-08
1.2936e-08
1.61461e-08
1.96421e-08
2.33792e-08
2.73109e-08
3.13898e-08
3.55699e-08
3.98067e-08
4.40583e-08
4.82854e-08
5.24517e-08
5.65239e-08
6.04718e-08
6.4268e-08
6.78879e-08
7.13094e-08
7.45128e-08
7.74807e-08
8.01974e-08
8.26494e-08
8.48242e-08
8.67115e-08
8.83021e-08
8.95875e-08
9.05606e-08
9.12163e-08
9.15512e-08
9.156e-08
9.12392e-08
9.05886e-08
8.9608e-08
8.82987e-08
8.66638e-08
8.47078e-08
8.24371e-08
7.98599e-08
7.69873e-08
7.38326e-08
7.04126e-08
6.67471e-08
6.28596e-08
5.87774e-08
5.45319e-08
5.0159e-08
4.56987e-08
4.11954e-08
3.66974e-08
3.22567e-08
2.79279e-08
2.3767e-08
1.98304e-08
1.61721e-08
1.28412e-08
9.88007e-09
7.32025e-09
5.17997e-09
3.46153e-09
2.14952e-09
1.21052e-09
5.94261e-10
2.36869e-10
6.60798e-11
8.60855e-12
5.02474e-14
5.80434e-14
9.92125e-12
7.5762e-11
2.69456e-10
6.69351e-10
1.34802e-09
2.36433e-09
3.75902e-09
5.55331e-09
7.74975e-09
1.03346e-08
1.32808e-08
1.65514e-08
2.01029e-08
2.38875e-08
2.78558e-08
3.19582e-08
3.61467e-08
4.03756e-08
4.46021e-08
4.87865e-08
5.28927e-08
5.68882e-08
6.07436e-08
6.44329e-08
6.79331e-08
7.12241e-08
7.42883e-08
7.71103e-08
7.96769e-08
8.19767e-08
8.39999e-08
8.57377e-08
8.71828e-08
8.83302e-08
8.91753e-08
8.97139e-08
8.99435e-08
8.98598e-08
8.94625e-08
8.87513e-08
8.77269e-08
8.63907e-08
8.47455e-08
8.27955e-08
8.05467e-08
7.80073e-08
7.51873e-08
7.20993e-08
6.87587e-08
6.51839e-08
6.13967e-08
5.74225e-08
5.32908e-08
4.90351e-08
4.46936e-08
4.03086e-08
3.59266e-08
3.15977e-08
2.73747e-08
2.33121e-08
1.94648e-08
1.58858e-08
1.26234e-08
9.71978e-09
7.20674e-09
5.10318e-09
3.41238e-09
2.12019e-09
1.19457e-09
5.86647e-10
2.33895e-10
6.52598e-11
8.5022e-12
4.96269e-14
6.01847e-14
1.02863e-11
7.85293e-11
2.79188e-10
6.93147e-10
1.39497e-09
2.44458e-09
3.88268e-09
5.72928e-09
7.98472e-09
1.06322e-08
1.36412e-08
1.6971e-08
2.0574e-08
2.43992e-08
2.83939e-08
3.25061e-08
3.66857e-08
4.08856e-08
4.50622e-08
4.91759e-08
5.3191e-08
5.70759e-08
6.08027e-08
6.43472e-08
6.76886e-08
7.0809e-08
7.36934e-08
7.63291e-08
7.87057e-08
8.08145e-08
8.26475e-08
8.42e-08
8.54684e-08
8.64487e-08
8.71378e-08
8.75343e-08
8.76364e-08
8.74435e-08
8.69556e-08
8.61734e-08
8.50981e-08
8.37319e-08
8.2078e-08
8.01408e-08
7.79258e-08
7.54405e-08
7.26938e-08
6.96972e-08
6.64643e-08
6.30116e-08
5.93586e-08
5.5529e-08
5.15503e-08
4.74537e-08
4.32746e-08
3.90524e-08
3.48307e-08
3.06567e-08
2.65809e-08
2.26555e-08
1.89333e-08
1.54661e-08
1.23014e-08
9.48056e-09
7.03575e-09
4.98643e-09
3.33701e-09
2.07487e-09
1.16976e-09
5.74751e-10
2.29235e-10
6.39743e-11
8.33559e-12
4.86554e-14
6.25003e-14
1.06812e-11
8.15253e-11
2.89732e-10
7.18949e-10
1.44589e-09
2.53159e-09
4.01653e-09
5.91924e-09
8.23732e-09
1.09503e-08
1.40235e-08
1.74116e-08
2.10628e-08
2.49218e-08
2.89325e-08
3.30401e-08
3.71924e-08
4.13411e-08
4.5442e-08
4.94556e-08
5.33473e-08
5.70866e-08
6.06477e-08
6.40086e-08
6.71512e-08
7.00607e-08
7.27247e-08
7.5134e-08
7.72811e-08
7.91597e-08
8.07679e-08
8.21027e-08
8.31615e-08
8.39445e-08
8.44515e-08
8.46826e-08
8.46384e-08
8.43202e-08
8.37294e-08
8.28679e-08
8.17378e-08
8.0342e-08
7.8684e-08
7.67678e-08
7.45989e-08
7.21837e-08
6.95302e-08
6.66479e-08
6.35491e-08
6.02488e-08
5.67647e-08
5.31174e-08
4.93309e-08
4.54335e-08
4.14572e-08
3.74384e-08
3.34175e-08
2.94385e-08
2.55488e-08
2.17979e-08
1.8236e-08
1.4913e-08
1.18749e-08
9.1623e-09
6.80719e-09
4.82967e-09
3.23539e-09
2.01354e-09
1.13609e-09
5.58574e-10
2.22892e-10
6.22239e-11
8.10878e-12
4.73335e-14
6.5025e-14
1.1112e-11
8.47967e-11
3.0126e-10
7.47187e-10
1.50165e-09
2.62682e-09
4.16287e-09
6.12637e-09
8.51164e-09
1.12939e-08
1.44332e-08
1.78791e-08
2.15748e-08
2.54604e-08
2.94758e-08
3.35633e-08
3.76687e-08
4.17423e-08
4.574e-08
4.96227e-08
5.33571e-08
5.69146e-08
6.0272e-08
6.34101e-08
6.63141e-08
6.89721e-08
7.13758e-08
7.35195e-08
7.53986e-08
7.70134e-08
7.83625e-08
7.94458e-08
8.02662e-08
8.08264e-08
8.11279e-08
8.11737e-08
8.09668e-08
8.05102e-08
7.9807e-08
7.88602e-08
7.76732e-08
7.62493e-08
7.45921e-08
7.27058e-08
7.05952e-08
6.82658e-08
6.57245e-08
6.29799e-08
6.00425e-08
5.69242e-08
5.36401e-08
5.02078e-08
4.66486e-08
4.29872e-08
3.92521e-08
3.54759e-08
3.16951e-08
2.795e-08
2.42843e-08
2.07441e-08
1.73767e-08
1.42291e-08
1.13459e-08
8.76624e-09
6.52187e-09
4.63339e-09
3.10781e-09
1.93637e-09
1.09366e-09
5.38163e-10
2.14885e-10
6.00143e-11
7.82257e-12
4.56658e-14
6.77924e-14
1.15845e-11
8.83885e-11
3.13935e-10
7.78273e-10
1.56307e-09
2.73172e-09
4.32381e-09
6.35356e-09
8.81124e-09
1.16668e-08
1.48744e-08
1.83775e-08
2.21133e-08
2.6017e-08
3.00244e-08
3.40746e-08
3.81113e-08
4.20843e-08
4.59492e-08
4.96684e-08
5.32102e-08
5.65488e-08
5.9664e-08
6.25401e-08
6.51655e-08
6.75331e-08
6.96384e-08
7.14789e-08
7.30571e-08
7.4374e-08
7.54313e-08
7.62369e-08
7.67949e-08
7.71098e-08
7.7187e-08
7.70319e-08
7.66498e-08
7.60456e-08
7.52239e-08
7.41892e-08
7.29456e-08
7.1497e-08
6.98474e-08
6.80007e-08
6.59611e-08
6.37334e-08
6.13237e-08
5.87383e-08
5.59854e-08
5.30751e-08
5.00194e-08
4.68331e-08
4.35338e-08
4.01425e-08
3.66837e-08
3.31859e-08
2.96814e-08
2.6206e-08
2.27994e-08
1.95037e-08
1.63626e-08
1.34201e-08
1.07184e-08
8.29526e-09
6.18174e-09
4.39889e-09
2.95508e-09
1.84384e-09
1.04271e-09
5.13639e-10
2.05262e-10
5.73592e-11
7.47881e-12
4.36633e-14
7.08337e-14
1.21038e-11
9.23424e-11
3.2791e-10
8.12594e-10
1.63093e-09
2.84756e-09
4.50126e-09
6.60326e-09
9.13896e-09
1.2072e-08
1.53497e-08
1.89082e-08
2.26786e-08
2.65903e-08
3.05747e-08
3.45679e-08
3.85119e-08
4.2356e-08
4.60567e-08
4.9578e-08
5.28907e-08
5.59727e-08
5.8807e-08
6.13818e-08
6.36909e-08
6.57311e-08
6.75017e-08
6.90077e-08
7.02531e-08
7.12402e-08
7.1985e-08
7.24909e-08
7.27664e-08
7.282e-08
7.26598e-08
7.22939e-08
7.17296e-08
7.09736e-08
7.00322e-08
6.89109e-08
6.76146e-08
6.61478e-08
6.45144e-08
6.27183e-08
6.07631e-08
5.86528e-08
5.63916e-08
5.39846e-08
5.14379e-08
4.87588e-08
4.59567e-08
4.3043e-08
4.00318e-08
3.69401e-08
3.37882e-08
3.06001e-08
2.74034e-08
2.42294e-08
2.11129e-08
1.80918e-08
1.52056e-08
1.24949e-08
9.99914e-09
7.75417e-09
5.79012e-09
4.12834e-09
2.77857e-09
1.73675e-09
9.83694e-10