/*--------------------------------*- C++ -*----------------------------------*\
  =========                 |
  \\      /  F ield         | OpenFOAM: The Open Source CFD Toolbox
   \\    /   O peration     | Website:  https://openfoam.org
    \\  /    A nd           | Version:  12
     \\/     M anipulation  |
\*---------------------------------------------------------------------------*/
FoamFile
{
    format      ascii;
    class       volScalarField;
    location    "5";
    object      p;
}
// * * * * * * * * * * * * * * * * * * * * * * * * * * * * * * * * * * * * * //

dimensions      [0 2 -2 0 0 0 0];

internalField   nonuniform List<scalar> 
5625
(
-2.19284e-09
5.87255e-08
9.59463e-07
2.79047e-06
5.32818e-06
8.36093e-06
1.17135e-05
1.52272e-05
1.8763e-05
2.21973e-05
2.5423e-05
2.83486e-05
3.08972e-05
3.30049e-05
3.46195e-05
3.56998e-05
3.62144e-05
3.61408e-05
3.54648e-05
3.41796e-05
3.2285e-05
2.97873e-05
2.66984e-05
2.30351e-05
1.88191e-05
1.40762e-05
8.83597e-06
3.13135e-06
-3.00176e-06
-9.52489e-06
-1.63973e-05
-2.35765e-05
-3.10183e-05
-3.86773e-05
-4.65072e-05
-5.44611e-05
-6.24916e-05
-7.05514e-05
-7.85932e-05
-8.65699e-05
-9.44355e-05
-0.000102144
-0.000109652
-0.000116916
-0.000123895
-0.000130547
-0.000136836
-0.000142726
-0.000148183
-0.000153176
-0.000157677
-0.000161661
-0.000165107
-0.000167997
-0.000170316
-0.000172057
-0.000173213
-0.000173787
-0.000173786
-0.000173223
-0.000172118
-0.000170503
-0.000168414
-0.000165901
-0.000163024
-0.000159856
-0.000156483
-0.00015301
-0.000149556
-0.000146248
-0.000143257
-0.000140747
-0.000138928
-0.000138025
-0.000137954
-3.12623e-06
-2.69339e-06
-1.67247e-06
-3.21907e-08
2.10295e-06
4.59118e-06
7.30673e-06
1.01342e-05
1.29675e-05
1.57102e-05
1.82766e-05
2.05916e-05
2.25902e-05
2.42175e-05
2.54276e-05
2.61835e-05
2.64559e-05
2.62236e-05
2.54721e-05
2.41934e-05
2.23857e-05
2.00526e-05
1.72029e-05
1.38502e-05
1.00121e-05
5.71047e-06
9.70331e-07
-4.17996e-06
-9.7093e-06
-1.55841e-05
-2.17688e-05
-2.82259e-05
-3.49163e-05
-4.18e-05
-4.88359e-05
-5.59823e-05
-6.31971e-05
-7.0438e-05
-7.76629e-05
-8.483e-05
-9.18981e-05
-9.88269e-05
-0.000105577
-0.000112109
-0.000118388
-0.000124378
-0.000130045
-0.000135358
-0.000140287
-0.000144807
-0.000148893
-0.000152523
-0.00015568
-0.00015835
-0.000160522
-0.000162189
-0.000163348
-0.000164004
-0.000164164
-0.000163842
-0.000163058
-0.00016184
-0.000160222
-0.000158247
-0.000155968
-0.000153445
-0.00015075
-0.000147965
-0.000145183
-0.000142507
-0.000140051
-0.000137936
-0.000136305
-0.000135281
-0.000134837
-9.20578e-06
-8.05874e-06
-6.44966e-06
-4.52824e-06
-2.35278e-06
1.04487e-08
2.48342e-06
4.98728e-06
7.44691e-06
9.79216e-06
1.19586e-05
1.38882e-05
1.55294e-05
1.68376e-05
1.77749e-05
1.83099e-05
1.84179e-05
1.80799e-05
1.72832e-05
1.60204e-05
1.42893e-05
1.20925e-05
9.43739e-06
6.33535e-06
2.80168e-06
-1.1448e-06
-5.48203e-06
-1.01851e-05
-1.52265e-05
-2.05764e-05
-2.62032e-05
-3.20734e-05
-3.81522e-05
-4.44037e-05
-5.0791e-05
-5.72768e-05
-6.38233e-05
-7.03925e-05
-7.69467e-05
-8.34484e-05
-8.98607e-05
-9.61472e-05
-0.000102273
-0.000108203
-0.000113906
-0.000119349
-0.000124503
-0.000129341
-0.000133836
-0.000137965
-0.000141708
-0.000145046
-0.000147963
-0.000150447
-0.000152491
-0.000154088
-0.000155237
-0.000155942
-0.000156209
-0.000156053
-0.000155489
-0.000154542
-0.000153241
-0.00015162
-0.000149722
-0.000147595
-0.000145294
-0.000142879
-0.000140417
-0.000137982
-0.000135649
-0.000133494
-0.000131581
-0.000129967
-0.000128808
-1.70847e-05
-1.50541e-05
-1.25994e-05
-1.00946e-05
-7.54451e-06
-4.95616e-06
-2.3742e-06
1.47304e-07
2.55598e-06
4.80212e-06
6.83892e-06
8.62313e-06
1.01157e-05
1.12823e-05
1.20932e-05
1.25239e-05
1.25548e-05
1.21712e-05
1.13629e-05
1.01249e-05
8.45603e-06
6.35967e-06
3.84301e-06
9.1698e-07
-2.40409e-06
-6.10269e-06
-1.01584e-05
-1.45483e-05
-1.92471e-05
-2.42273e-05
-2.94598e-05
-3.49139e-05
-4.05576e-05
-4.6358e-05
-5.22813e-05
-5.82931e-05
-6.4359e-05
-7.04441e-05
-7.6514e-05
-8.25343e-05
-8.84714e-05
-9.42922e-05
-9.99645e-05
-0.000105457
-0.000110741
-0.000115786
-0.000120567
-0.000125058
-0.000129236
-0.00013308
-0.000136571
-0.000139692
-0.00014243
-0.000144773
-0.000146713
-0.000148245
-0.000149368
-0.000150083
-0.000150396
-0.000150317
-0.000149858
-0.00014904
-0.000147882
-0.000146414
-0.000144665
-0.000142672
-0.000140475
-0.000138116
-0.000135643
-0.000133104
-0.000130551
-0.000128025
-0.000125532
-0.000123074
-0.000121032
-2.55411e-05
-2.25843e-05
-1.91923e-05
-1.59693e-05
-1.28808e-05
-9.88662e-06
-7.00726e-06
-4.2793e-06
-1.73827e-06
5.82067e-07
2.64919e-06
4.43237e-06
5.90344e-06
7.03733e-06
7.81241e-06
8.21073e-06
8.21818e-06
7.82452e-06
7.02339e-06
5.81225e-06
4.19228e-06
2.16821e-06
-2.51783e-07
-3.05634e-06
-6.23108e-06
-9.75882e-06
-1.36199e-05
-1.77921e-05
-2.22516e-05
-2.69721e-05
-3.19263e-05
-3.70852e-05
-4.24189e-05
-4.78963e-05
-5.34859e-05
-5.91557e-05
-6.48734e-05
-7.06067e-05
-7.63236e-05
-8.19922e-05
-8.75812e-05
-9.30601e-05
-9.83991e-05
-0.00010357
-0.000108544
-0.000113296
-0.000117801
-0.000122035
-0.000125978
-0.000129609
-0.000132911
-0.000135869
-0.000138469
-0.0001407
-0.000142554
-0.000144025
-0.000145111
-0.00014581
-0.000146127
-0.000146067
-0.00014564
-0.000144858
-0.000143737
-0.000142295
-0.000140554
-0.00013854
-0.000136278
-0.000133798
-0.000131129
-0.000128303
-0.000125354
-0.0001223
-0.000119095
-0.000115704
-0.000112736
-3.37528e-05
-2.98868e-05
-2.55437e-05
-2.15472e-05
-1.78348e-05
-1.43296e-05
-1.10355e-05
-7.97797e-06
-5.18095e-06
-2.66651e-06
-4.56283e-07
1.42892e-06
2.96987e-06
4.14948e-06
4.95313e-06
5.36906e-06
5.38846e-06
5.00565e-06
4.21811e-06
3.02652e-06
1.43469e-06
-5.5053e-07
-2.91935e-06
-5.65916e-06
-8.75478e-06
-1.21885e-05
-1.59405e-05
-1.99887e-05
-2.43095e-05
-2.88773e-05
-3.36656e-05
-3.86461e-05
-4.37902e-05
-4.90681e-05
-5.44497e-05
-5.99043e-05
-6.54013e-05
-7.09101e-05
-7.64003e-05
-8.18418e-05
-8.7205e-05
-9.24612e-05
-9.75825e-05
-0.000102542
-0.000107313
-0.000111872
-0.000116194
-0.000120259
-0.000124046
-0.000127535
-0.000130711
-0.000133557
-0.000136062
-0.000138213
-0.000140001
-0.00014142
-0.000142464
-0.000143132
-0.000143424
-0.000143342
-0.00014289
-0.000142077
-0.00014091
-0.000139402
-0.000137567
-0.00013542
-0.000132976
-0.000130254
-0.000127271
-0.000124047
-0.000120601
-0.000116936
-0.000112968
-0.000108632
-0.000104759
-4.11455e-05
-3.64069e-05
-3.11311e-05
-2.63475e-05
-2.19726e-05
-1.79006e-05
-1.4125e-05
-1.06645e-05
-7.53533e-06
-4.7515e-06
-2.32664e-06
-2.73951e-07
1.39443e-06
2.66799e-06
3.53816e-06
3.99862e-06
4.0455e-06
3.6775e-06
2.89597e-06
1.705e-06
1.11329e-07
-1.87564e-06
-4.24399e-06
-6.97932e-06
-1.0065e-05
-1.34821e-05
-1.721e-05
-2.12261e-05
-2.55061e-05
-3.00246e-05
-3.47548e-05
-3.9669e-05
-4.47387e-05
-4.99347e-05
-5.52275e-05
-6.05874e-05
-6.59846e-05
-7.13894e-05
-7.67725e-05
-8.21048e-05
-8.7358e-05
-9.25044e-05
-9.75172e-05
-0.00010237
-0.000107039
-0.0001115
-0.00011573
-0.000119709
-0.000123415
-0.000126832
-0.000129943
-0.000132731
-0.000135184
-0.000137289
-0.000139037
-0.000140418
-0.000141428
-0.000142059
-0.000142311
-0.00014218
-0.000141669
-0.000140779
-0.000139514
-0.000137879
-0.000135882
-0.000133529
-0.00013083
-0.000127792
-0.000124424
-0.000120737
-0.000116744
-0.000112434
-0.000107694
-0.000102437
-9.76971e-05
-4.73037e-05
-4.17286e-05
-3.55463e-05
-2.99797e-05
-2.4929e-05
-2.02649e-05
-1.59737e-05
-1.20708e-05
-8.5677e-06
-5.47276e-06
-2.79388e-06
-5.3859e-07
1.28654e-06
2.67634e-06
3.62735e-06
4.13805e-06
4.20901e-06
3.84309e-06
3.04543e-06
1.82359e-06
1.87451e-07
-1.85077e-06
-4.27662e-06
-7.07348e-06
-1.02227e-05
-1.37038e-05
-1.74946e-05
-2.15712e-05
-2.59085e-05
-3.04802e-05
-3.52589e-05
-4.02165e-05
-4.53242e-05
-5.05528e-05
-5.58727e-05
-6.12545e-05
-6.66686e-05
-7.20856e-05
-7.74768e-05
-8.28136e-05
-8.80683e-05
-9.32137e-05
-9.82236e-05
-0.000103073
-0.000107737
-0.000112192
-0.000116417
-0.000120391
-0.000124093
-0.000127507
-0.000130614
-0.000133398
-0.000135847
-0.000137946
-0.000139685
-0.000141052
-0.000142041
-0.000142642
-0.000142851
-0.000142663
-0.000142075
-0.000141084
-0.00013969
-0.000137893
-0.000135694
-0.000133094
-0.000130095
-0.0001267
-0.00012291
-0.00011873
-0.000114168
-0.000109205
-0.000103703
-9.75567e-05
-9.1993e-05
-5.19078e-05
-4.5523e-05
-3.84564e-05
-3.21163e-05
-2.63888e-05
-2.11243e-05
-1.63042e-05
-1.19424e-05
-8.04782e-06
-4.62491e-06
-1.67748e-06
7.91268e-07
2.77912e-06
4.28531e-06
5.3107e-06
5.85802e-06
5.93192e-06
5.53916e-06
4.68862e-06
3.39132e-06
1.66044e-06
-4.88741e-07
-3.03895e-06
-5.97096e-06
-9.26378e-06
-1.28947e-05
-1.68396e-05
-2.1073e-05
-2.5568e-05
-3.02971e-05
-3.52318e-05
-4.03429e-05
-4.56008e-05
-5.09757e-05
-5.64376e-05
-6.19564e-05
-6.75025e-05
-7.30463e-05
-7.8559e-05
-8.40119e-05
-8.93775e-05
-9.46287e-05
-9.97395e-05
-0.000104685
-0.00010944
-0.000113982
-0.000118289
-0.00012234
-0.000126115
-0.000129595
-0.000132763
-0.000135602
-0.000138098
-0.000140236
-0.000142003
-0.000143388
-0.000144379
-0.000144968
-0.000145146
-0.000144904
-0.000144237
-0.000143139
-0.000141604
-0.000139629
-0.00013721
-0.000134343
-0.000131025
-0.000127254
-0.000123026
-0.000118342
-0.000113207
-0.000107595
-0.000101348
-9.43444e-05
-8.7992e-05
-5.46884e-05
-4.75087e-05
-3.95714e-05
-3.24662e-05
-2.60662e-05
-2.02025e-05
-1.48532e-05
-1.00319e-05
-5.74591e-06
-1.99707e-06
1.21389e-06
3.88713e-06
6.02403e-06
7.62752e-06
8.70231e-06
9.25493e-06
9.29387e-06
8.82966e-06
7.87483e-06
6.44399e-06
4.55372e-06
2.22259e-06
-5.29034e-07
-3.67898e-06
-7.20349e-06
-1.10773e-05
-1.52739e-05
-1.97655e-05
-2.45234e-05
-2.95181e-05
-3.47194e-05
-4.00967e-05
-4.56192e-05
-5.12557e-05
-5.69754e-05
-6.27472e-05
-6.85408e-05
-7.43261e-05
-8.00736e-05
-8.57543e-05
-9.13403e-05
-9.68042e-05
-0.00010212
-0.000107261
-0.000112204
-0.000116926
-0.000121403
-0.000125614
-0.00012954
-0.000133161
-0.000136458
-0.000139414
-0.000142014
-0.000144241
-0.000146082
-0.000147523
-0.000148551
-0.000149154
-0.000149322
-0.000149044
-0.00014831
-0.000147112
-0.000145441
-0.000143288
-0.000140647
-0.000137509
-0.000133869
-0.000129718
-0.00012505
-0.000119863
-0.000114161
-0.000107911
-0.000100936
-9.31001e-05
-8.59852e-05
-5.53927e-05
-4.74216e-05
-3.86183e-05
-3.07531e-05
-2.36864e-05
-1.72306e-05
-1.13608e-05
-6.09095e-06
-1.42727e-06
2.63027e-06
6.0835e-06
8.93538e-06
1.11904e-05
1.28549e-05
1.3937e-05
1.44469e-05
1.43968e-05
1.3801e-05
1.26758e-05
1.10394e-05
8.91194e-06
6.31561e-06
3.27416e-06
-1.86986e-07
-4.04094e-06
-8.25948e-06
-1.28132e-05
-1.76719e-05
-2.28042e-05
-2.81783e-05
-3.37621e-05
-3.9523e-05
-4.54282e-05
-5.14452e-05
-5.75415e-05
-6.3685e-05
-6.9844e-05
-7.59875e-05
-8.20849e-05
-8.81067e-05
-9.40241e-05
-9.9809e-05
-0.000105435
-0.000110875
-0.000116104
-0.0001211
-0.000125838
-0.000130296
-0.000134455
-0.000138292
-0.000141791
-0.000144932
-0.000147697
-0.000150071
-0.000152037
-0.00015358
-0.000154687
-0.000155342
-0.000155532
-0.000155245
-0.000154468
-0.000153189
-0.000151397
-0.000149081
-0.000146228
-0.00014283
-0.000138874
-0.000134352
-0.000129252
-0.000123571
-0.000117311
-0.000110436
-0.000102748
-9.40976e-05
-8.62374e-05
-5.37617e-05
-4.49929e-05
-3.53201e-05
-2.6697e-05
-1.89706e-05
-1.19342e-05
-5.55986e-06
1.38e-07
5.15388e-06
9.48962e-06
1.31493e-05
1.61386e-05
1.84649e-05
2.01377e-05
2.11686e-05
2.15716e-05
2.13625e-05
2.05593e-05
1.91824e-05
1.72538e-05
1.47975e-05
1.18395e-05
8.40728e-06
4.52987e-06
2.37675e-07
-4.43772e-06
-9.46375e-06
-1.4807e-05
-2.04334e-05
-2.63084e-05
-3.23973e-05
-3.86651e-05
-4.50771e-05
-5.15985e-05
-5.8195e-05
-6.4833e-05
-7.14792e-05
-7.81011e-05
-8.4667e-05
-9.11463e-05
-9.75089e-05
-0.000103726
-0.00010977
-0.000115614
-0.000121232
-0.000126599
-0.000131692
-0.000136487
-0.000140964
-0.000145101
-0.000148877
-0.000152275
-0.000155274
-0.000157858
-0.000160008
-0.000161708
-0.000162943
-0.000163694
-0.000163949
-0.00016369
-0.000162903
-0.000161574
-0.000159688
-0.000157231
-0.000154189
-0.000150548
-0.000146295
-0.000141416
-0.000135899
-0.000129737
-0.000122933
-0.000115444
-0.000107055
-9.7603e-05
-8.90073e-05
-4.95109e-05
-3.99313e-05
-2.93804e-05
-1.99998e-05
-1.16225e-05
-4.0217e-06
2.83391e-06
8.92968e-06
1.4261e-05
1.88316e-05
2.26479e-05
2.57183e-05
2.80532e-05
2.96655e-05
3.05705e-05
3.07857e-05
3.0331e-05
2.92287e-05
2.75029e-05
2.51801e-05
2.22884e-05
1.8858e-05
1.49203e-05
1.05086e-05
5.65703e-06
4.00972e-07
-5.22336e-06
-1.11791e-05
-1.74289e-05
-2.39351e-05
-3.06601e-05
-3.7566e-05
-4.46157e-05
-5.17721e-05
-5.89986e-05
-6.62596e-05
-7.35199e-05
-8.07455e-05
-8.79031e-05
-9.49605e-05
-0.000101887
-0.000108652
-0.000115226
-0.000121583
-0.000127694
-0.000133535
-0.000139081
-0.000144308
-0.000149194
-0.000153716
-0.000157853
-0.000161585
-0.000164892
-0.000167755
-0.000170156
-0.000172074
-0.000173494
-0.000174396
-0.000174764
-0.000174579
-0.000173825
-0.000172484
-0.00017054
-0.000167975
-0.000164773
-0.000160917
-0.00015639
-0.000151177
-0.000145263
-0.000138638
-0.000131304
-0.000123215
-0.000114135
-0.000103888
-9.45609e-05
-4.23157e-05
-3.19086e-05
-2.04687e-05
-1.03323e-05
-1.31694e-06
6.82554e-06
1.41306e-05
2.05837e-05
2.61815e-05
3.09299e-05
3.48383e-05
3.79179e-05
4.01825e-05
4.16488e-05
4.23357e-05
4.22652e-05
4.14613e-05
3.99508e-05
3.77623e-05
3.49268e-05
3.14773e-05
2.74482e-05
2.28756e-05
1.77972e-05
1.22515e-05
6.27803e-06
-8.29454e-08
-6.79066e-06
-1.38041e-05
-2.10821e-05
-2.85837e-05
-3.6268e-05
-4.40949e-05
-5.20247e-05
-6.00182e-05
-6.80376e-05
-7.60456e-05
-8.40061e-05
-9.18843e-05
-9.96462e-05
-0.000107259
-0.000114692
-0.000121915
-0.000128898
-0.000135613
-0.000142035
-0.000148138
-0.000153896
-0.000159286
-0.000164285
-0.00016887
-0.000173021
-0.000176717
-0.000179936
-0.000182658
-0.000184865
-0.000186534
-0.000187648
-0.000188187
-0.000188131
-0.00018746
-0.000186155
-0.000184196
-0.000181564
-0.000178239
-0.000174202
-0.000169434
-0.000163914
-0.000157627
-0.00015056
-0.000142714
-0.000134038
-0.000124277
-0.000113239
-0.000103181
-3.17991e-05
-2.05479e-05
-8.21023e-06
2.67584e-06
1.23095e-05
2.0962e-05
2.86738e-05
3.54311e-05
4.12324e-05
4.60866e-05
5.00061e-05
5.30059e-05
5.51037e-05
5.63202e-05
5.66789e-05
5.62062e-05
5.49311e-05
5.28851e-05
5.0102e-05
4.6618e-05
4.24708e-05
3.77001e-05
3.23472e-05
2.64543e-05
2.00648e-05
1.3223e-05
5.97363e-06
-1.63834e-06
-9.56775e-06
-1.77696e-05
-2.61992e-05
-3.48123e-05
-4.35654e-05
-5.24159e-05
-6.1322e-05
-7.02431e-05
-7.91397e-05
-8.79736e-05
-9.67079e-05
-0.000105307
-0.000113736
-0.000121964
-0.000129957
-0.000137686
-0.000145122
-0.000152237
-0.000159005
-0.000165399
-0.000171395
-0.000176969
-0.000182098
-0.000186758
-0.000190929
-0.000194587
-0.000197712
-0.000200281
-0.000202274
-0.000203669
-0.000204445
-0.000204579
-0.00020405
-0.000202836
-0.000200915
-0.000198265
-0.000194862
-0.000190685
-0.000185712
-0.00017992
-0.000173289
-0.000165806
-0.000157469
-0.000148222
-0.00013779
-0.000125965
-0.000115176
-1.75207e-05
-5.41298e-06
7.82471e-06
1.94456e-05
2.96672e-05
3.87857e-05
4.68475e-05
5.38404e-05
5.97656e-05
6.46358e-05
6.84673e-05
7.12793e-05
7.30942e-05
7.39373e-05
7.38375e-05
7.28262e-05
7.09379e-05
6.82096e-05
6.46809e-05
6.03933e-05
5.53905e-05
4.97176e-05
4.34213e-05
3.65495e-05
2.91509e-05
2.12746e-05
1.29705e-05
4.28818e-06
-4.72266e-06
-1.40128e-05
-2.35334e-05
-3.32367e-05
-4.30756e-05
-5.30041e-05
-6.29776e-05
-7.29526e-05
-8.28871e-05
-9.27406e-05
-0.000102474
-0.00011205
-0.000121433
-0.000130587
-0.000139481
-0.000148082
-0.000156361
-0.000164288
-0.000171836
-0.000178978
-0.000185688
-0.000191942
-0.000197715
-0.000202982
-0.000207722
-0.00021191
-0.000215524
-0.000218541
-0.000220938
-0.000222691
-0.000223777
-0.000224173
-0.000223853
-0.000222794
-0.000220971
-0.000218358
-0.000214931
-0.000210663
-0.00020553
-0.000199507
-0.000192568
-0.000184699
-0.000175896
-0.000166098
-0.000155007
-0.000142401
-0.00013088
1.03322e-06
1.40006e-05
2.81286e-05
4.0456e-05
5.12201e-05
6.07438e-05
6.9081e-05
7.62221e-05
8.21719e-05
8.69477e-05
9.05707e-05
9.30654e-05
9.44594e-05
9.47839e-05
9.40733e-05
9.23653e-05
8.97004e-05
8.61219e-05
8.16756e-05
7.64095e-05
7.03733e-05
6.36185e-05
5.61979e-05
4.81653e-05
3.95751e-05
3.04821e-05
2.09416e-05
1.10082e-05
7.36582e-07
-9.81942e-06
-2.06068e-05
-3.15735e-05
-4.26688e-05
-5.38432e-05
-6.50488e-05
-7.62393e-05
-8.737e-05
-9.8398e-05
-0.000109282
-0.000119983
-0.000130463
-0.000140685
-0.000150616
-0.000160222
-0.000169473
-0.000178339
-0.000186789
-0.000194798
-0.000202338
-0.000209383
-0.000215908
-0.000221888
-0.000227299
-0.000232116
-0.000236315
-0.000239871
-0.000242761
-0.000244958
-0.000246438
-0.000247175
-0.000247141
-0.000246309
-0.000244653
-0.000242144
-0.000238753
-0.000234453
-0.000229213
-0.000223005
-0.000215802
-0.000207584
-0.000198347
-0.000188022
-0.00017629
-0.000162913
-0.000150664
2.44581e-05
3.82739e-05
5.32642e-05
6.62504e-05
7.74912e-05
8.73382e-05
9.58539e-05
0.000103033
0.000108884
0.000113431
0.000116701
0.000118724
0.000119535
0.000119171
0.000117674
0.000115087
0.000111459
0.00010684
0.000101283
9.48414e-05
8.75736e-05
7.95375e-05
7.07923e-05
6.13985e-05
5.14168e-05
4.09082e-05
2.99336e-05
1.85533e-05
6.82712e-06
-5.18609e-06
-1.74287e-05
-2.98444e-05
-4.23784e-05
-5.49777e-05
-6.75908e-05
-8.01682e-05
-9.26627e-05
-0.000105029
-0.000117225
-0.000129207
-0.000140936
-0.000152375
-0.000163488
-0.00017424
-0.000184601
-0.000194538
-0.000204021
-0.000213023
-0.000221516
-0.000229473
-0.000236867
-0.000243674
-0.000249866
-0.00025542
-0.000260309
-0.000264507
-0.000267989
-0.000270727
-0.000272693
-0.00027386
-0.000274198
-0.000273678
-0.000272268
-0.000269938
-0.000266656
-0.000262389
-0.000257105
-0.00025077
-0.000243354
-0.000234833
-0.0002252
-0.00021438
-0.000202032
-0.000187899
-0.00017493
5.34398e-05
6.80713e-05
8.38706e-05
9.7442e-05
0.000109067
0.000119129
0.000127699
0.000134777
0.000140379
0.000144534
0.000147279
0.000148649
0.000148688
0.00014744
0.000144953
0.000141281
0.000136479
0.000130605
0.000123719
0.000115885
0.000107166
9.76279e-05
8.73384e-05
7.63644e-05
6.47735e-05
5.26332e-05
4.00107e-05
2.69721e-05
1.3583e-05
-9.26492e-08
-1.39924e-05
-2.80553e-05
-4.22226e-05
-5.64375e-05
-7.06453e-05
-8.47918e-05
-9.88262e-05
-0.000112704
-0.00012638
-0.000139809
-0.00015295
-0.000165762
-0.000178211
-0.000190259
-0.000201875
-0.000213026
-0.000223682
-0.000233813
-0.000243391
-0.000252389
-0.00026078
-0.000268536
-0.000275632
-0.000282041
-0.000287735
-0.000292688
-0.000296872
-0.000300257
-0.000302815
-0.000304514
-0.000305323
-0.000305208
-0.000304137
-0.000302073
-0.000298982
-0.000294828
-0.000289572
-0.000283179
-0.000275612
-0.000266844
-0.000256864
-0.00024559
-0.000232658
-0.000217793
-0.00020412
8.87607e-05
0.000104147
0.000120667
0.000134717
0.000146602
0.000156736
0.000165202
0.000172008
0.000177177
0.000180748
0.000182763
0.00018327
0.000182317
0.000179959
0.000176254
0.000171263
0.00016505
0.000157682
0.000149227
0.000139758
0.000129347
0.000118067
0.000105994
9.32018e-05
7.97661e-05
6.57613e-05
5.12609e-05
3.63378e-05
2.10629e-05
5.50596e-06
-1.02654e-05
-2.61858e-05
-4.21918e-05
-5.82227e-05
-7.42203e-05
-9.01305e-05
-0.000105899
-0.000121475
-0.00013681
-0.00015186
-0.000166581
-0.000180933
-0.000194879
-0.000208383
-0.00022141
-0.000233927
-0.000245904
-0.000257311
-0.000268118
-0.000278298
-0.000287823
-0.000296664
-0.000304796
-0.00031219
-0.000318819
-0.000324652
-0.000329661
-0.000333815
-0.000337082
-0.000339429
-0.00034082
-0.00034122
-0.000340592
-0.000338897
-0.000336095
-0.000332145
-0.000327005
-0.000320635
-0.000312991
-0.000304045
-0.000293778
-0.000282103
-0.00026863
-0.000253069
-0.000238715
0.000131306
0.000147347
0.000164459
0.000178838
0.000190816
0.000200839
0.000209006
0.000215331
0.000219847
0.000222602
0.00022365
0.000223047
0.000220853
0.000217131
0.000211948
0.000205377
0.00019749
0.000188363
0.000178076
0.000166709
0.000154342
0.00014106
0.000126945
0.000112079
9.65462e-05
8.04278e-05
6.38045e-05
4.67556e-05
2.93584e-05
1.1688e-05
-6.18261e-06
-2.41831e-05
-4.22459e-05
-6.03062e-05
-7.83021e-05
-9.61751e-05
-0.00011387
-0.000131333
-0.000148519
-0.000165381
-0.000181868
-0.000197938
-0.000213555
-0.000228684
-0.000243288
-0.000257336
-0.000270795
-0.000283635
-0.000295827
-0.000307342
-0.000318152
-0.000328229
-0.000337544
-0.000346069
-0.000353774
-0.000360629
-0.000366603
-0.000371663
-0.000375773
-0.000378899
-0.000381003
-0.000382044
-0.000381981
-0.000380772
-0.000378373
-0.000374736
-0.000369816
-0.000363565
-0.000355936
-0.000346893
-0.000336414
-0.000324404
-0.000310448
-0.000294238
-0.000279238
0.000182065
0.000198615
0.000216131
0.000230639
0.000242495
0.000252179
0.000259802
0.000265393
0.000268994
0.000270665
0.00027047
0.000268477
0.000264757
0.000259384
0.000252436
0.000243996
0.000234146
0.000222973
0.000210566
0.000197016
0.000182413
0.000166848
0.000150415
0.000133203
0.000115305
9.68094e-05
7.78041e-05
5.83752e-05
3.86061e-05
1.8578e-05
-1.631e-06
-2.19458e-05
-4.22946e-05
-6.26086e-05
-8.28229e-05
-0.000102876
-0.000122709
-0.000142268
-0.000161498
-0.000180354
-0.000198796
-0.000216775
-0.000234251
-0.000251188
-0.00026755
-0.000283305
-0.000298421
-0.000312867
-0.000326614
-0.000339633
-0.000351895
-0.000363372
-0.000374035
-0.000383853
-0.000392797
-0.000400834
-0.000407931
-0.000414053
-0.000419162
-0.00042322
-0.000426185
-0.000428013
-0.00042866
-0.000428076
-0.000426213
-0.000423019
-0.000418441
-0.000412426
-0.000404919
-0.00039588
-0.000385281
-0.000373017
-0.00035865
-0.000341853
-0.000326254
0.000242132
0.000258984
0.000276651
0.000291024
0.000302485
0.000311543
0.000318329
0.000322883
0.00032526
0.000325534
0.000323782
0.000320082
0.000314519
0.000307177
0.000298148
0.000287522
0.000275396
0.000261867
0.000247034
0.000230996
0.000213856
0.000195714
0.000176671
0.000156828
0.000136283
0.000115134
9.3476e-05
7.14016e-05
4.90007e-05
2.63603e-05
3.56367e-06
-1.93092e-05
-4.21824e-05
-6.49835e-05
-8.76444e-05
-0.000110101
-0.000132292
-0.000154162
-0.000175653
-0.000196716
-0.00021731
-0.000237394
-0.000256926
-0.000275866
-0.000294179
-0.000311832
-0.000328795
-0.000345035
-0.000360525
-0.000375234
-0.000389135
-0.000402198
-0.000414393
-0.000425689
-0.000436056
-0.000445457
-0.00045386
-0.000461224
-0.000467512
-0.000472678
-0.000476679
-0.000479467
-0.00048099
-0.000481195
-0.000480027
-0.000477429
-0.00047334
-0.000467699
-0.000460447
-0.000451533
-0.000440926
-0.000428508
-0.00041382
-0.000396517
-0.000380379
0.0003127
0.000329573
0.000347054
0.000360954
0.000371678
0.000379762
0.000385357
0.000388517
0.000389314
0.000387834
0.000384168
0.000378408
0.00037065
0.000360992
0.000349537
0.000336388
0.000321652
0.000305436
0.000287852
0.000269009
0.000249018
0.00022799
0.000206036
0.000183263
0.000159781
0.000135693
0.000111102
8.61082e-05
6.08073e-05
3.52919e-05
9.65062e-06
-1.60321e-05
-4.1676e-05
-6.72055e-05
-9.2549e-05
-0.00011764
-0.000142415
-0.000166817
-0.000190791
-0.000214286
-0.000237257
-0.00025966
-0.000281457
-0.000302609
-0.000323081
-0.000342841
-0.000361857
-0.0003801
-0.000397541
-0.000414149
-0.000429898
-0.000444756
-0.000458693
-0.000471678
-0.000483677
-0.000494655
-0.000504573
-0.000513391
-0.000521065
-0.000527549
-0.000532791
-0.00053674
-0.000539339
-0.000540528
-0.000540244
-0.000538423
-0.000534998
-0.000529899
-0.000523058
-0.000514417
-0.000503936
-0.000491488
-0.00047659
-0.000458879
-0.00044228
0.000395046
0.00041157
0.000428431
0.000441432
0.000450997
0.000457687
0.000461673
0.000463025
0.000461831
0.000458194
0.000452217
0.000444008
0.000433674
0.000421326
0.000407079
0.000391048
0.00037335
0.000354105
0.000333433
0.000311455
0.000288291
0.000264061
0.000238886
0.000212882
0.000186165
0.000158847
0.00013104
0.000102847
7.43732e-05
4.5715e-05
1.69665e-05
-1.17836e-05
-4.04513e-05
-6.89576e-05
-9.72284e-05
-0.000125195
-0.000152793
-0.000179962
-0.000206649
-0.000232803
-0.000258376
-0.000283328
-0.000307617
-0.000331209
-0.000354067
-0.000376162
-0.000397462
-0.000417938
-0.000437561
-0.000456303
-0.000474135
-0.000491026
-0.000506946
-0.000521862
-0.000535738
-0.000548537
-0.000560217
-0.000570734
-0.000580041
-0.000588086
-0.000594814
-0.000600165
-0.000604076
-0.000606479
-0.000607306
-0.000606481
-0.00060393
-0.000599573
-0.000593333
-0.000585142
-0.000574951
-0.000562622
-0.000547648
-0.000529651
-0.000512684
0.000490509
0.000506207
0.000521897
0.00053347
0.000541366
0.000546164
0.000548052
0.00054712
0.000543474
0.00053723
0.000528509
0.000517429
0.000504111
0.000488679
0.000471257
0.000451972
0.000430952
0.000408327
0.000384225
0.000358779
0.000332117
0.000304369
0.000275662
0.000246123
0.000215875
0.000185037
0.000153728
0.000122058
9.01363e-05
5.80663e-05
2.5946e-05
-6.13163e-06
-3.80792e-05
-6.98148e-05
-0.000101262
-0.000132351
-0.000163016
-0.000193196
-0.000222838
-0.00025189
-0.000280308
-0.000308048
-0.000335074
-0.000361349
-0.000386842
-0.00041152
-0.000435356
-0.000458321
-0.000480387
-0.000501526
-0.00052171
-0.000540907
-0.000559086
-0.000576212
-0.000592249
-0.000607155
-0.000620885
-0.000633392
-0.000644623
-0.00065452
-0.000663022
-0.000670062
-0.000675567
-0.000679464
-0.000681671
-0.000682106
-0.000680681
-0.000677308
-0.000671896
-0.000664368
-0.000654665
-0.000642635
-0.000627749
-0.000609612
-0.00059239
0.000600451
0.000614721
0.000628554
0.000638054
0.000643674
0.000645994
0.000645221
0.000641468
0.000634855
0.000625516
0.000613582
0.000599185
0.000582458
0.000563533
0.000542545
0.00051963
0.000494926
0.00046857
0.000440701
0.000411458
0.000380979
0.000349401
0.00031686
0.00028349
0.00024942
0.000214778
0.000179687
0.000144265
0.000108626
7.28784e-05
3.71244e-05
1.46052e-06
-3.40227e-05
-6.92411e-05
-0.000104117
-0.000138578
-0.000172558
-0.000205999
-0.000238845
-0.000271047
-0.00030256
-0.000333345
-0.000363366
-0.000392588
-0.000420981
-0.000448516
-0.000475167
-0.000500906
-0.000525706
-0.000549541
-0.000572381
-0.000594196
-0.000614953
-0.000634615
-0.000653142
-0.000670491
-0.000686612
-0.000701452
-0.000714952
-0.000727048
-0.000737669
-0.00074674
-0.00075418
-0.000759903
-0.000763816
-0.000765826
-0.000765833
-0.000763733
-0.000759425
-0.000752819
-0.000743841
-0.000732326
-0.000717723
-0.000699621
-0.000682281
0.000726208
0.000738303
0.000749436
0.00075609
0.000758716
0.000757882
0.000753813
0.000746639
0.000736499
0.000723539
0.000707899
0.000689723
0.00066915
0.00064632
0.000621376
0.000594465
0.000565724
0.000535299
0.000503338
0.000469984
0.000435384
0.000399681
0.000363017
0.000325533
0.000287365
0.000248646
0.000209506
0.000170069
0.000130453
9.07701e-05
5.11277e-05
1.16253e-05
-2.76443e-05
-6.65949e-05
-0.000105148
-0.00014323
-0.000180777
-0.000217729
-0.000254033
-0.000289642
-0.000324514
-0.00035861
-0.000391898
-0.000424347
-0.000455929
-0.000486618
-0.000516389
-0.000545217
-0.000573078
-0.000599945
-0.000625789
-0.000650579
-0.000674281
-0.000696856
-0.000718261
-0.000738446
-0.000757359
-0.000774939
-0.000791119
-0.000805826
-0.000818979
-0.000830494
-0.000840276
-0.000848226
-0.000854239
-0.000858205
-0.000860011
-0.000859537
-0.000856665
-0.00085129
-0.000843324
-0.000832584
-0.000818499
-0.000800642
-0.000783344
0.000869013
0.000878019
0.000885433
0.000888323
0.000887124
0.000882369
0.000874293
0.000863045
0.000848777
0.000831643
0.000811791
0.000789368
0.000764518
0.000737384
0.00070811
0.000676846
0.00064374
0.000608934
0.000572579
0.000534827
0.000495826
0.000455726
0.000414675
0.000372817
0.000330295
0.000287249
0.000243811
0.000200112
0.000156275
0.000112415
6.86437e-05
2.50628e-05
-1.82326e-05
-6.11551e-05
-0.000103625
-0.000145572
-0.000186929
-0.000227642
-0.000267657
-0.000306932
-0.000345428
-0.000383111
-0.00041995
-0.00045592
-0.000490997
-0.000525158
-0.000558382
-0.000590647
-0.000621929
-0.000652205
-0.000681445
-0.000709618
-0.000736688
-0.000762612
-0.000787344
-0.00081083
-0.000833007
-0.000853808
-0.000873156
-0.000890966
-0.000907148
-0.000921599
-0.000934214
-0.000944876
-0.000953463
-0.000959846
-0.000963895
-0.000965471
-0.000964437
-0.000960669
-0.00095406
-0.00094441
-0.000931123
-0.000913761
-0.000896695
0.00102987
0.00103468
0.00103716
0.00103523
0.00102926
0.00101973
0.00100687
0.00099085
0.000971826
0.000949953
0.000925382
0.000898254
0.000868714
0.000836902
0.000802958
0.000767024
0.000729253
0.000689787
0.000648777
0.000606373
0.000562728
0.000517994
0.000472321
0.000425861
0.000378759
0.00033116
0.000283202
0.00023502
0.00018674
0.000138483
9.03628e-05
4.24832e-05
-5.05878e-06
-5.21752e-05
-9.87872e-05
-0.000144824
-0.000190224
-0.000234933
-0.000278904
-0.000322097
-0.000364479
-0.00040602
-0.000446698
-0.00048649
-0.000525379
-0.000563348
-0.000600379
-0.000636455
-0.000671555
-0.000705657
-0.000738732
-0.000770749
-0.000801668
-0.000831445
-0.000860026
-0.00088735
-0.000913346
-0.000937937
-0.000961032
-0.000982533
-0.00100233
-0.00102031
-0.00103635
-0.00105032
-0.00106205
-0.0010714
-0.00107823
-0.00108237
-0.00108366
-0.00108196
-0.00107712
-0.00106894
-0.00105679
-0.00104022
-0.00102361
0.00120946
0.00120878
0.00120495
0.00119697
0.00118516
0.0011699
0.00115141
0.00112988
0.00110545
0.00107828
0.0010485
0.00101624
0.000981628
0.000944802
0.000905888
0.00086502
0.000822338
0.000777982
0.000732098
0.000684835
0.000636344
0.000586779
0.000536291
0.000485036
0.000433162
0.00038082
0.000328151
0.000275294
0.000222381
0.000169536
0.000116875
6.45044e-05
1.25233e-05
-3.89806e-05
-8.99304e-05
-0.000140258
-0.000189906
-0.000238824
-0.00028697
-0.000334312
-0.000380823
-0.000426482
-0.000471273
-0.000515183
-0.000558201
-0.000600318
-0.000641523
-0.000681804
-0.000721144
-0.000759523
-0.000796916
-0.000833289
-0.000868601
-0.000902801
-0.00093583
-0.000967617
-0.00099808
-0.00102713
-0.00105465
-0.00108054
-0.00110467
-0.00112689
-0.00114707
-0.00116502
-0.00118058
-0.00119359
-0.00120385
-0.00121118
-0.00121539
-0.00121629
-0.00121374
-0.00120749
-0.00119688
-0.00118146
-0.00116559
0.00140805
0.00140034
0.00138852
0.00137308
0.00135425
0.00133224
0.00130725
0.00127945
0.00124899
0.00121598
0.00118053
0.00114275