/*--------------------------------*- C++ -*----------------------------------*\
  =========                 |
  \\      /  F ield         | OpenFOAM: The Open Source CFD Toolbox
   \\    /   O peration     | Website:  https://openfoam.org
    \\  /    A nd           | Version:  12
     \\/     M anipulation  |
\*---------------------------------------------------------------------------*/
FoamFile
{
    format      ascii;
    class       surfaceScalarField;
    location    "5";
    object      phi;
}
// * * * * * * * * * * * * * * * * * * * * * * * * * * * * * * * * * * * * * //

dimensions      [0 3 -1 0 0 0 0];

internalField   nonuniform List<scalar> 
11100
(
-3.15134e-11
3.15673e-11
-7.94978e-11
4.79876e-11
-1.14762e-10
3.52675e-11
-1.20017e-10
5.25591e-12
-8.57568e-11
-3.42588e-11
-7.08379e-12
-7.8672e-11
1.17644e-10
-1.24726e-10
2.87912e-10
-1.70268e-10
5.01759e-10
-2.13846e-10
7.56263e-10
-2.54503e-10
1.04788e-09
-2.91621e-10
1.37269e-09
-3.24806e-10
1.72652e-09
-3.53826e-10
2.10508e-09
-3.78561e-10
2.50405e-09
-3.98969e-10
2.91912e-09
-4.15067e-10
3.34604e-09
-4.26919e-10
3.78065e-09
-4.34619e-10
4.21894e-09
-4.38289e-10
4.65701e-09
-4.3807e-10
5.09114e-09
-4.34124e-10
5.51776e-09
-4.26623e-10
5.93351e-09
-4.15753e-10
6.33522e-09
-4.0171e-10
6.71992e-09
-3.84697e-10
7.08485e-09
-3.64925e-10
7.42745e-09
-3.42609e-10
7.74542e-09
-3.17969e-10
8.03665e-09
-2.91229e-10
8.29926e-09
-2.62612e-10
8.53161e-09
-2.32347e-10
8.73227e-09
-2.0066e-10
8.90005e-09
-1.67778e-10
9.03398e-09
-1.33926e-10
9.13331e-09
-9.93295e-11
9.19752e-09
-6.42103e-11
9.22631e-09
-2.87887e-11
9.21959e-09
6.7175e-12
9.17749e-09
4.20937e-11
9.10037e-09
7.71291e-11
8.98875e-09
1.11615e-10
8.84341e-09
1.45345e-10
8.66529e-09
1.78117e-10
8.45556e-09
2.09733e-10
8.21556e-09
2.39997e-10
7.94685e-09
2.68714e-10
7.65115e-09
2.95696e-10
7.3304e-09
3.20754e-10
6.98669e-09
3.43702e-10
6.62234e-09
3.64359e-10
6.23979e-09
3.82543e-10
5.84172e-09
3.98076e-10
5.43093e-09
4.10784e-10
5.01044e-09
4.20492e-10
4.58341e-09
4.27034e-10
4.15317e-09
4.30243e-10
3.7232e-09
4.29961e-10
3.29717e-09
4.26036e-10
2.87884e-09
4.18326e-10
2.47214e-09
4.06703e-10
2.08108e-09
3.91058e-10
1.70978e-09
3.71306e-10
1.36238e-09
3.474e-10
1.04303e-09
3.19346e-10
7.55808e-10
2.87223e-10
5.04593e-10
2.51216e-10
2.92927e-10
2.11666e-10
1.23791e-10
1.69137e-10
-7.4567e-13
1.24537e-10
-8.00444e-11
7.92992e-11
-1.15487e-10
3.54433e-11
-1.11754e-10
-3.73278e-12
-7.79586e-11
-3.37948e-11
-3.11029e-11
-4.68551e-11
-3.11026e-11
-1.56818e-11
4.72503e-11
-1.53915e-11
4.76975e-11
3.69881e-11
-1.71115e-11
1.6558e-10
-1.23336e-10
3.85996e-10
-2.54675e-10
7.06832e-10
-3.99507e-10
1.13153e-09
-5.49422e-10
1.65957e-09
-6.98311e-10
2.28749e-09
-8.41767e-10
3.00962e-09
-9.76633e-10
3.81867e-09
-1.10067e-09
4.70619e-09
-1.21232e-09
5.6629e-09
-1.31054e-09
6.67899e-09
-1.39465e-09
7.74431e-09
-1.46429e-09
8.84857e-09
-1.51933e-09
9.98144e-09
-1.55979e-09
1.11327e-08
-1.58587e-09
1.22923e-08
-1.59787e-09
1.34504e-08
-1.59619e-09
1.45976e-08
-1.58131e-09
1.57247e-08
-1.55377e-09
1.68232e-08
-1.51418e-09
1.78846e-08
-1.4632e-09
1.89014e-08
-1.4015e-09
1.98663e-08
-1.32982e-09
2.07726e-08
-1.2489e-09
2.16142e-08
-1.15952e-09
2.23854e-08
-1.06247e-09
2.30814e-08
-9.5854e-10
2.36976e-08
-8.48552e-10
2.42302e-08
-7.33321e-10
2.46761e-08
-6.13666e-10
2.50326e-08
-4.90409e-10
2.52976e-08
-3.64365e-10
2.54698e-08
-2.3635e-10
2.55481e-08
-1.07168e-10
2.55325e-08
2.23798e-11
2.54231e-08
1.51503e-10
2.52208e-08
2.79423e-10
2.4927e-08
4.05368e-10
2.45438e-08
5.28579e-10
2.40736e-08
6.4831e-10
2.35195e-08
7.63825e-10
2.28851e-08
8.744e-10
2.21745e-08
9.79326e-10
2.13923e-08
1.0779e-09
2.05436e-08
1.16944e-09
1.9634e-08
1.25328e-09
1.86696e-08
1.32874e-09
1.7657e-08
1.3952e-09
1.66031e-08
1.45201e-09
1.55153e-08
1.49857e-09
1.44015e-08
1.53429e-09
1.32699e-08
1.55861e-09
1.21291e-08
1.57098e-09
1.09882e-08
1.57092e-09
9.85626e-09
1.55796e-09
8.74287e-09
1.53171e-09
7.65773e-09
1.49185e-09
6.61065e-09
1.43814e-09
5.61149e-09
1.37047e-09
4.66999e-09
1.2889e-09
3.79566e-09
1.19367e-09
2.99756e-09
1.08533e-09
2.284e-09
9.64772e-10
1.66227e-09
8.33398e-10
1.13812e-09
6.93283e-10
7.1524e-10
5.47421e-10
3.94487e-10
4.00052e-10
1.72803e-10
2.57128e-10
4.21518e-11
1.26919e-10
-1.25639e-11
2.09219e-11
-1.48e-11
-4.46184e-11
-4.59023e-11
2.55533e-11
2.16966e-11
1.32229e-10
-5.89796e-11
3.44515e-10
-2.29397e-10
6.80577e-10
-4.59399e-10
1.15254e-09
-7.26641e-10
1.76715e-09
-1.01412e-09
2.52648e-09
-1.30875e-09
3.42865e-09
-1.60048e-09
4.46852e-09
-1.88164e-09
5.63832e-09
-2.14644e-09
6.92821e-09
-2.39056e-09
8.3267e-09
-2.61081e-09
9.82108e-09
-2.80492e-09
1.13978e-08
-2.97135e-09
1.30426e-08
-3.10912e-09
1.4741e-08
-3.21774e-09
1.64783e-08
-3.29708e-09
1.82398e-08
-3.34736e-09
2.0011e-08
-3.36902e-09
2.17775e-08
-3.36275e-09
2.35256e-08
-3.32943e-09
2.52419e-08
-3.27008e-09
2.69136e-08
-3.18587e-09
2.85285e-08
-3.07806e-09
3.0075e-08
-2.94802e-09
3.15424e-08
-2.79722e-09
3.29207e-08
-2.62716e-09
3.42005e-08
-2.43941e-09
3.53737e-08
-2.2356e-09
3.64325e-08
-2.01737e-09
3.73704e-08
-1.78641e-09
3.81814e-08
-1.54439e-09
3.88608e-08
-1.29304e-09
3.94045e-08
-1.03405e-09
3.98092e-08
-7.69148e-10
4.00729e-08
-5.00024e-10
4.01941e-08
-2.28378e-10
4.01724e-08
4.41113e-11
4.00081e-08
3.15778e-10
3.97026e-08
5.84977e-10
3.92578e-08
8.50083e-10
3.86769e-08
1.1095e-09
3.79636e-08
1.36164e-09
3.71225e-08
1.60496e-09
3.61589e-08
1.83793e-09
3.50792e-08
2.05906e-09
3.38902e-08
2.26688e-09
3.25997e-08
2.45996e-09
3.12161e-08
2.63689e-09
2.97485e-08
2.7963e-09
2.82069e-08
2.93689e-09
2.66015e-08
3.05735e-09
2.49436e-08
3.15645e-09
2.32449e-08
3.23303e-09
2.15175e-08
3.28597e-09
1.97743e-08
3.31425e-09
1.80283e-08
3.31692e-09
1.62931e-08
3.29318e-09
1.45824e-08
3.24236e-09
1.29103e-08
3.16394e-09
1.12908e-08
3.05765e-09
9.73781e-09
2.92347e-09
8.26497e-09
2.76174e-09
6.88544e-09
2.57321e-09
5.61158e-09
2.35918e-09
4.4547e-09
2.12166e-09
3.42458e-09
1.86351e-09
2.5291e-09
1.58877e-09
1.77362e-09
1.3029e-09
1.16042e-09
1.01326e-09
6.87923e-10
7.2962e-10
3.50041e-10
4.64802e-10
1.3537e-10
2.35594e-10
2.65662e-11
6.41859e-11
-1.93359e-11
7.22782e-11
-5.0582e-11
3.00595e-10
-2.87298e-10
6.95585e-10
-6.24388e-10
1.26548e-09
-1.0293e-09
2.01526e-09
-1.47642e-09
2.94638e-09
-1.94525e-09
4.05692e-09
-2.41928e-09
5.34172e-09
-2.88528e-09
6.79281e-09
-3.33273e-09
8.39975e-09
-3.75338e-09
1.015e-08
-4.14082e-09
1.20294e-08
-4.49017e-09
1.40223e-08
-4.79782e-09
1.61121e-08
-5.06118e-09
1.82815e-08
-5.27857e-09
2.05128e-08
-5.44899e-09
2.27878e-08
-5.57209e-09
2.50885e-08
-5.64803e-09
2.73968e-08
-5.6774e-09
2.96953e-08
-5.66118e-09
3.19665e-08
-5.60067e-09
3.41939e-08
-5.49744e-09
3.63613e-08
-5.3533e-09
3.84535e-08
-5.17027e-09
4.0456e-08
-4.95053e-09
4.23552e-08
-4.69642e-09
4.41384e-08
-4.41038e-09
4.5794e-08
-4.09499e-09
4.73113e-08
-3.75288e-09
4.86807e-08
-3.38676e-09
4.98936e-08
-2.99939e-09
5.09428e-08
-2.59356e-09
5.18219e-08
-2.1721e-09
5.25257e-08
-1.73784e-09
5.30501e-08
-1.29363e-09
5.33924e-08
-8.42301e-10
5.35507e-08
-3.86674e-10
5.35244e-08
7.04418e-11
5.33139e-08
5.26266e-10
5.29208e-08
9.78046e-10
5.23478e-08
1.42306e-09
5.15987e-08
1.85864e-09
5.06782e-08
2.28213e-09
4.95922e-08
2.69095e-09
4.83476e-08
3.08254e-09
4.69523e-08
3.45441e-09
4.5415e-08
3.80411e-09
4.37457e-08
4.12927e-09
4.1955e-08
4.42756e-09
4.00546e-08
4.69673e-09
3.80569e-08
4.93461e-09
3.59751e-08
5.13911e-09
3.38234e-08
5.30823e-09
3.16163e-08
5.4401e-09
2.93693e-08
5.53296e-09
2.70983e-08
5.58522e-09
2.48198e-08
5.59546e-09
2.25505e-08
5.56246e-09
2.03076e-08
5.48528e-09
1.81082e-08
5.36327e-09
1.59697e-08
5.19614e-09
1.39091e-08
4.98408e-09
1.19431e-08
4.7278e-09
1.00876e-08
4.42867e-09
8.35789e-09
4.08891e-09
6.76785e-09
3.7117e-09
5.32989e-09
3.30147e-09
4.05453e-09
2.86413e-09
2.94996e-09
2.40746e-09
2.02174e-09
1.94149e-09
1.27237e-09
1.47899e-09
7.01119e-10
1.03606e-09
3.0387e-10
6.32843e-10
7.33602e-11
2.94696e-10
5.40246e-11
1.17359e-10
-1.67941e-10
4.66661e-10
-6.36599e-10
1.0462e-09
-1.20393e-09
1.85407e-09
-1.83716e-09
2.88698e-09
-2.50933e-09
4.13973e-09
-3.19799e-09
5.60487e-09
-3.88443e-09
7.27273e-09
-4.55313e-09
9.13141e-09
-5.19141e-09
1.1167e-08
-5.78899e-09
1.33639e-08
-6.33769e-09
1.57048e-08
-6.83111e-09
1.81714e-08
-7.26439e-09
2.07442e-08
-7.63397e-09
2.34031e-08
-7.93743e-09
2.61274e-08
-8.17334e-09
2.88964e-08
-8.34107e-09
3.16891e-08
-8.44075e-09
3.44849e-08
-8.47314e-09
3.72632e-08
-8.43952e-09
4.00042e-08
-8.34166e-09
4.26885e-08
-8.18176e-09
4.52976e-08
-7.96235e-09
4.78136e-08
-7.68627e-09
5.02197e-08
-7.35664e-09
5.25e-08
-6.9768e-09
5.46399e-08
-6.55028e-09
5.66257e-08
-6.08077e-09
5.84449e-08
-5.57209e-09
6.00863e-08
-5.02817e-09
6.154e-08
-4.45303e-09
6.27972e-08
-3.85075e-09
6.38505e-08
-3.22544e-09
6.4694e-08
-2.58126e-09
6.53227e-08
-1.92237e-09
6.57333e-08
-1.25294e-09
6.59237e-08
-5.77097e-10
6.58932e-08
1.01014e-10
6.56421e-08
7.77305e-10
6.51725e-08
1.44772e-09
6.44873e-08
2.10826e-09
6.35909e-08
2.75497e-09
6.24891e-08
3.38397e-09
6.11886e-08
3.99142e-09
5.96976e-08
4.57359e-09
5.80252e-08
5.12681e-09
5.61818e-08
5.64748e-09
5.41789e-08
6.13212e-09
5.20292e-08
6.57734e-09
4.9746e-08
6.97986e-09
4.73441e-08
7.33652e-09
4.48389e-08
7.64432e-09
4.22468e-08
7.9004e-09
3.95848e-08
8.10207e-09
3.68709e-08
8.24687e-09
3.41235e-08
8.33256e-09
3.13618e-08
8.35719e-09
2.86052e-08
8.31912e-09
2.58733e-08
8.21711e-09
2.31862e-08
8.05035e-09
2.05638e-08
7.81857e-09
1.80257e-08
7.52214e-09
1.55914e-08
7.16214e-09
1.32795e-08
6.74057e-09
1.1108e-08
6.26046e-09
9.09356e-09
5.7261e-09
7.25178e-09
5.14325e-09
5.59649e-09
4.51942e-09
4.13978e-09
3.86417e-09
2.89173e-09
3.18953e-09
1.86039e-09
2.51033e-09
1.05177e-09
1.84468e-09
4.70141e-10
1.21447e-09
1.18561e-10
6.46277e-10
1.72586e-10
1.5912e-10
-3.27061e-10
6.23242e-10
-1.10072e-09
1.38073e-09
-1.96141e-09
2.42063e-09
-2.87707e-09
3.73169e-09
-3.82039e-09
5.30174e-09
-4.76803e-09
7.11729e-09
-5.69998e-09
9.1634e-09
-6.59924e-09
1.14236e-08
-7.4516e-09
1.38799e-08
-8.2453e-09
1.6513e-08
-8.97078e-09
1.93023e-08
-9.62045e-09
2.22263e-08
-1.01884e-08
2.52628e-08
-1.06704e-08
2.83886e-08
-1.10633e-08
3.15807e-08
-1.13654e-08
3.48155e-08
-1.15759e-08
3.80697e-08
-1.16949e-08
4.13201e-08
-1.17235e-08
4.45439e-08
-1.16633e-08
4.7719e-08
-1.15167e-08
5.08237e-08
-1.12865e-08
5.38374e-08
-1.0976e-08
5.67403e-08
-1.05892e-08
5.95136e-08
-1.01299e-08
6.21397e-08
-9.60289e-09
6.46021e-08
-9.01271e-09
6.68857e-08
-8.36434e-09
6.89765e-08
-7.66291e-09
7.08621e-08
-6.91373e-09
7.25312e-08
-6.1222e-09
7.39743e-08
-5.29382e-09
7.5183e-08
-4.43416e-09
7.61506e-08
-3.54883e-09
7.68717e-08
-2.64348e-09
7.73425e-08
-1.72375e-09
7.75607e-08
-7.95261e-10
7.75253e-08
1.36381e-10
7.7237e-08
1.06561e-09
7.66978e-08
1.98693e-09
7.59112e-08
2.89488e-09
7.4882e-08
3.7841e-09
7.36167e-08
4.6493e-09
7.21229e-08
5.48528e-09
7.04095e-08
6.28696e-09
6.8487e-08
7.04934e-09
6.63669e-08
7.76758e-09
6.4062e-08
8.43694e-09
6.15865e-08
9.05284e-09
5.89555e-08
9.61087e-09
5.61853e-08
1.01068e-08
5.3293e-08
1.05365e-08
5.02971e-08
1.08963e-08
4.72166e-08
1.11826e-08
4.40715e-08
1.1392e-08
4.08823e-08
1.15217e-08
3.76704e-08
1.15691e-08
3.44574e-08
1.15321e-08
3.12654e-08
1.14091e-08
2.81167e-08
1.1199e-08
2.50337e-08
1.09016e-08
2.20385e-08
1.05173e-08
1.91532e-08
1.00475e-08
1.63992e-08
9.49456e-09
1.37974e-08
8.86227e-09
1.13678e-08
8.15572e-09
9.12936e-09
7.38168e-09
7.09997e-09
6.54881e-09
5.29622e-09
5.66792e-09
3.73343e-09
4.75233e-09
2.42568e-09
3.81808e-09
1.38603e-09
2.88433e-09
6.26851e-10
1.97365e-09
1.60447e-10
1.11268e-09
3.33033e-10
1.97678e-10
-5.24738e-10
7.69725e-10
-1.67277e-09
1.69661e-09
-2.88829e-09
2.95966e-09
-4.14012e-09
4.54036e-09
-5.4011e-09
6.41984e-09
-6.64751e-09
8.57853e-09
-7.85867e-09
1.0996e-08
-9.01668e-09
1.36507e-08
-1.01064e-08
1.65203e-08
-1.11149e-08
1.95814e-08
-1.20319e-08
2.28098e-08
-1.28488e-08
2.61805e-08
-1.35591e-08
2.9668e-08
-1.41579e-08
3.32467e-08
-1.46419e-08
3.68904e-08
-1.50091e-08
4.05732e-08
-1.52587e-08
4.42694e-08
-1.53911e-08
4.79534e-08
-1.54075e-08
5.16003e-08
-1.53103e-08
5.5186e-08
-1.51023e-08
5.86868e-08
-1.47873e-08
6.20804e-08
-1.43696e-08
6.53451e-08
-1.38539e-08
6.84606e-08
-1.32455e-08
7.14079e-08
-1.25501e-08
7.4169e-08
-1.17738e-08
7.67274e-08
-1.09228e-08
7.90683e-08
-1.00037e-08
8.11779e-08
-9.02336e-09
8.30443e-08
-7.98859e-09
8.46569e-08
-6.90646e-09
8.60069e-08
-5.78413e-09
8.70869e-08
-4.6288e-09
8.78911e-08
-3.4477e-09
8.84154e-08
-2.24808e-09
8.86573e-08
-1.03717e-09
8.86159e-08
1.77825e-10
8.82917e-08
1.38975e-09
8.76871e-08
2.59152e-09
8.68059e-08
3.77612e-09
8.56534e-08
4.93665e-09
8.42363e-08
6.06631e-09
8.25632e-08
7.15839e-09
8.06438e-08
8.20636e-09
7.84894e-08
9.20381e-09
7.61124e-08
1.01445e-08
7.3527e-08
1.10223e-08
7.07484e-08
1.18315e-08
6.7793e-08
1.25663e-08
6.46786e-08
1.32212e-08
6.14239e-08
1.37912e-08
5.80487e-08
1.42714e-08
5.4574e-08
1.46573e-08
5.10214e-08
1.49446e-08
4.74133e-08
1.51298e-08
4.37731e-08
1.52094e-08
4.01243e-08
1.51809e-08
3.64913e-08
1.50421e-08
3.28985e-08
1.47918e-08
2.93708e-08
1.44294e-08
2.59328e-08
1.39553e-08
2.26092e-08
1.3371e-08
1.94245e-08
1.26793e-08
1.64026e-08
1.18841e-08
1.35671e-08
1.09912e-08
1.09409e-08
1.00079e-08
8.54611e-09
8.94359e-09
6.4042e-09
7.80983e-09
4.53593e-09
6.6206e-09
2.96145e-09
5.39256e-09
1.70056e-09
4.14522e-09
7.73018e-10
2.90119e-09
1.99031e-10
1.68667e-09
5.32064e-10
2.33764e-10
-7.58502e-10
9.08026e-10
-2.34703e-09
1.99678e-09
-3.97705e-09
3.47474e-09
-5.61807e-09
5.31684e-09
-7.24319e-09
7.49791e-09
-8.82859e-09
9.99247e-09
-1.03532e-08
1.27745e-08
-1.17987e-08
1.58175e-08
-1.31494e-08
1.90943e-08
-1.43917e-08
2.25772e-08
-1.55148e-08
2.6238e-08
-1.65096e-08
3.00482e-08
-1.73693e-08
3.39789e-08
-1.80887e-08
3.80014e-08
-1.86644e-08
4.20867e-08
-1.90945e-08
4.62064e-08
-1.93784e-08
5.03322e-08
-1.95169e-08
5.44364e-08
-1.95117e-08
5.84921e-08
-1.93659e-08
6.2473e-08
-1.90832e-08
6.63539e-08
-1.86683e-08
7.01106e-08
-1.81263e-08
7.37202e-08
-1.74635e-08
7.71609e-08
-1.66861e-08
8.04121e-08
-1.58014e-08
8.34551e-08
-1.48167e-08
8.62722e-08
-1.37399e-08
8.88475e-08
-1.2579e-08
9.11666e-08
-1.13424e-08
9.32167e-08
-1.00387e-08
9.49867e-08
-8.67648e-09
9.64672e-08
-7.26462e-09
9.76504e-08
-5.81201e-09
9.85303e-08
-4.32758e-09
9.91025e-08
-2.82028e-09
9.93643e-08
-1.29906e-09
9.9315e-08
2.27192e-10
9.89551e-08
1.74963e-09
9.82871e-08
3.25948e-09
9.73152e-08
4.74809e-09
9.60449e-08
6.20691e-09
9.44837e-08
7.62752e-09
9.26404e-08
9.00165e-09
9.05256e-08
1.03212e-08
8.81512e-08
1.15782e-08
8.55306e-08
1.27651e-08
8.26788e-08
1.38742e-08
7.9612e-08
1.48983e-08
7.63479e-08
1.58304e-08
7.29053e-08
1.66638e-08
6.93043e-08
1.73922e-08
6.55662e-08
1.80095e-08
6.17133e-08
1.85102e-08
5.77688e-08
1.88891e-08
5.3757e-08
1.91416e-08
4.97028e-08
1.92635e-08
4.5632e-08
1.92517e-08
4.15708e-08
1.91033e-08
3.7546e-08
1.88166e-08
3.35848e-08
1.83907e-08
2.97143e-08
1.78257e-08
2.59623e-08
1.71231e-08
2.23561e-08
1.62855e-08
1.89232e-08
1.53171e-08
1.56907e-08
1.42236e-08
1.26858e-08
1.30129e-08
9.93488e-09
1.16945e-08
7.4645e-09
1.02802e-08
5.30077e-09
8.78433e-09
3.46969e-09
7.22363e-09
1.99734e-09
5.61757e-09
9.1007e-10
3.98846e-09
2.34908e-10
2.36183e-09
7.66972e-10
2.68246e-10
-1.02675e-09
1.04084e-09
-3.11962e-09
2.28618e-09
-5.22239e-09
3.97304e-09
-7.30494e-09
6.07037e-09
-9.34052e-09
8.54709e-09
-1.13053e-08
1.1372e-08
-1.31781e-08
1.45135e-08
-1.49403e-08
1.79401e-08
-1.65759e-08
2.16197e-08
-1.80713e-08
2.55201e-08
-1.94152e-08
2.9609e-08
-2.05985e-08
3.3854e-08
-2.16143e-08
3.82229e-08
-2.24576e-08
4.26836e-08
-2.31251e-08
4.72042e-08
-2.36151e-08
5.17537e-08
-2.39278e-08
5.63011e-08
-2.40643e-08
6.08168e-08
-2.40274e-08
6.52715e-08
-2.38207e-08
6.96374e-08
-2.34491e-08
7.38873e-08
-2.29182e-08
7.79957e-08
-2.22348e-08
8.19382e-08
-2.14059e-08
8.56917e-08
-2.04396e-08
8.92347e-08
-1.93444e-08
9.25472e-08
-1.81293e-08
9.56108e-08
-1.68036e-08
9.84089e-08
-1.53771e-08
1.00926e-07
-1.38598e-08
1.0315e-07
-1.22621e-08
1.05068e-07
-1.05943e-08
1.0667e-07
-8.86706e-09
1.07949e-07
-7.09101e-09
1.08898e-07
-5.27687e-09
1.09513e-07
-3.4354e-09
1.09792e-07
-1.57731e-09
1.09732e-07
2.86714e-10
1.09336e-07
2.14607e-09
1.08605e-07
3.99025e-09
1.07544e-07
5.80884e-09
1.06159e-07
7.59158e-09
1.04459e-07
9.32838e-09
1.02451e-07
1.10093e-08
1.00148e-07
1.26246e-08
9.7561e-08
1.41648e-08
9.47055e-08
1.56206e-08
9.15967e-08
1.6983e-08
8.82518e-08
1.82432e-08
8.46893e-08
1.93928e-08
8.09293e-08
2.04238e-08
7.69929e-08
2.13286e-08
7.29028e-08
2.20997e-08
6.86824e-08
2.27306e-08
6.43567e-08
2.32148e-08
5.99514e-08
2.35469e-08
5.54932e-08
2.37217e-08
5.10097e-08
2.37351e-08
4.65294e-08
2.35837e-08
4.20811e-08
2.32649e-08
3.76945e-08
2.27773e-08
3.33996e-08
2.21206e-08
2.92268e-08
2.12959e-08
2.52068e-08
2.03055e-08
2.13705e-08
1.91533e-08
1.7749e-08
1.78451e-08
1.43735e-08
1.63885e-08
1.1275e-08
1.47929e-08
8.48495e-09
1.30703e-08
6.03469e-09
1.12346e-08
3.9558e-09
9.30252e-09
2.28018e-09
7.29319e-09
1.04017e-09
5.22847e-09
2.68792e-10
3.13321e-09
1.03576e-09
3.01946e-10
-1.32869e-09
1.17089e-09
-3.98857e-09
2.57001e-09
-6.62151e-09
4.46253e-09
-9.19746e-09
6.81169e-09
-1.16897e-08
9.58069e-09
-1.40743e-08
1.27327e-08
-1.63301e-08
1.62309e-08
-1.84385e-08
2.00383e-08
-2.03833e-08
2.4118e-08
-2.2151e-08
2.84334e-08
-2.37305e-08
3.29477e-08
-2.51128e-08
3.76247e-08
-2.62913e-08
4.24285e-08
-2.72614e-08
4.73236e-08
-2.80202e-08
5.22752e-08
-2.85668e-08
5.72493e-08
-2.89019e-08
6.22128e-08
-2.90278e-08
6.71334e-08
-2.8948e-08
7.198e-08
-2.86674e-08
7.67229e-08
-2.8192e-08
8.13335e-08
-2.75288e-08
8.57846e-08
-2.66858e-08
9.00505e-08
-2.56718e-08
9.41071e-08
-2.44962e-08
9.79319e-08
-2.31692e-08
1.01504e-07
-2.17014e-08
1.04804e-07
-2.01039e-08
1.07816e-07
-1.83883e-08
1.10522e-07
-1.65663e-08
1.1291e-07
-1.46501e-08
1.14968e-07
-1.26519e-08
1.16685e-07
-1.05841e-08
1.18053e-07
-8.4593e-09
1.19066e-07
-6.29003e-09
1.1972e-07
-4.08888e-09
1.20011e-07
-1.86843e-09
1.19939e-07
3.58809e-10
1.19504e-07
2.5804e-09
1.18711e-07
4.78401e-09
1.17562e-07
6.95747e-09
1.16065e-07
9.08873e-09
1.14227e-07
1.11659e-08
1.12059e-07
1.31775e-08
1.09572e-07
1.51119e-08
1.06779e-07
1.6958e-08
1.03694e-07
1.87049e-08
1.00335e-07
2.0342e-08
9.67195e-08
2.1859e-08
9.28664e-08
2.3246e-08
8.87967e-08
2.44935e-08
8.45329e-08
2.55924e-08
8.00986e-08
2.6534e-08
7.55188e-08
2.73104e-08
7.08196e-08
2.79141e-08
6.60283e-08
2.83381e-08
6.11735e-08
2.85766e-08
5.62845e-08
2.86241e-08
5.13918e-08
2.84763e-08
4.65267e-08
2.813e-08
4.17213e-08
2.75827e-08
3.70082e-08
2.68337e-08
3.2421e-08
2.58831e-08
2.79936e-08
2.47329e-08
2.37605e-08
2.33864e-08
1.97566e-08
2.1849e-08
1.60173e-08
2.01278e-08
1.25783e-08
1.82319e-08
9.47567e-09
1.61729e-08
6.74594e-09
1.39643e-08
4.42601e-09
1.16225e-08
2.55323e-09
9.16597e-09
1.16551e-09
6.6162e-09
3.01358e-10
3.99736e-09
1.33712e-09
3.35579e-10
-1.66427e-09
1.3006e-09
-4.95359e-09
2.85302e-09
-8.17393e-09
4.95057e-09
-1.1295e-08
7.55084e-09
-1.42899e-08
1.06114e-08
-1.71348e-08
1.40897e-08
-1.98085e-08
1.79436e-08
-2.22924e-08
2.21309e-08
-2.45706e-08
2.66097e-08
-2.66299e-08
3.13386e-08
-2.84594e-08
3.62767e-08
-3.00509e-08
4.13835e-08
-3.13982e-08
4.66195e-08
-3.24973e-08
5.19457e-08
-3.33464e-08
5.73244e-08
-3.39454e-08
6.27186e-08
-3.42961e-08
6.80926e-08
-3.44018e-08
7.34121e-08
-3.42675e-08
7.86439e-08
-3.38992e-08
8.37564e-08
-3.33045e-08
8.87196e-08
-3.24919e-08
9.35048e-08
-3.14711e-08
9.80853e-08
-3.02523e-08
1.02436e-07
-2.88468e-08
1.06533e-07
-2.72665e-08
1.10356e-07
-2.55238e-08
1.13883e-07
-2.36318e-08
1.17099e-07
-2.16037e-08
1.19986e-07
-1.94533e-08
1.2253e-07
-1.71945e-08
1.2472e-07
-1.48416e-08
1.26545e-07
-1.24089e-08
1.27996e-07
-9.9108e-09
1.29068e-07
-7.3618e-09
1.29755e-07
-4.77639e-09
1.30056e-07
-2.16905e-09
1.29969e-07
4.45835e-10
1.29495e-07
3.05395e-09
1.28638e-07
5.64113e-09
1.27403e-07
8.19334e-09
1.25794e-07
1.06967e-08
1.23823e-07
1.31377e-08
1.21497e-07
1.55028e-08
1.1883e-07
1.77788e-08
1.15836e-07
1.99529e-08
1.12528e-07
2.20125e-08
1.08925e-07
2.39453e-08
1.05044e-07
2.57394e-08
1.00907e-07
2.73833e-08
9.65345e-08
2.88659e-08
9.19503e-08
3.01766e-08
8.71789e-08
3.13054e-08
8.22465e-08
3.22428e-08
7.71807e-08
3.29799e-08
7.20103e-08
3.35086e-08
6.67653e-08
3.38215e-08
6.14772e-08
3.39122e-08
5.61784e-08
3.37751e-08
5.09025e-08
3.34059e-08
4.5684e-08
3.28012e-08
4.05585e-08
3.19592e-08
3.55624e-08
3.08792e-08
3.07331e-08
2.95622e-08
2.61087e-08
2.80109e-08
2.17279e-08
2.62298e-08
1.76304e-08
2.42253e-08
1.38563e-08
2.2006e-08
1.04465e-08
1.95827e-08
7.44239e-09
1.69684e-08
4.8861e-09
1.41787e-08
2.82024e-09
1.12318e-08
1.28801e-09
8.14842e-09
3.33172e-10
4.9522e-09
1.67029e-09
3.69717e-10
-2.03399e-09
1.43193e-09
-6.0158e-09
3.13911e-09
-9.88111e-09
5.44323e-09
-1.35991e-08
8.2961e-09
-1.71428e-08
1.16495e-08
-2.04882e-08
1.54552e-08
-2.36142e-08
1.96654e-08
-2.65026e-08
2.42327e-08
-2.91379e-08
2.91102e-08
-3.15074e-08
3.42517e-08
-3.36009e-08
3.96118e-08
-3.5411e-08
4.51459e-08
-3.69323e-08
5.08108e-08
-3.81621e-08
5.6564e-08
-3.90996e-08
6.23646e-08
-3.9746e-08
6.8173e-08
-4.01045e-08
7.39509e-08
-4.01797e-08
7.96617e-08
-3.99783e-08
8.52705e-08
-3.9508e-08
9.07438e-08
-3.87779e-08
9.60502e-08
-3.77983e-08
1.0116e-07
-3.65807e-08
1.06045e-07
-3.51372e-08
1.10679e-07
-3.3481e-08
1.15038e-07
-3.16259e-08
1.19101e-07
-2.95863e-08
1.22846e-07
-2.73771e-08
1.26256e-07
-2.50136e-08
1.29314e-07
-2.25116e-08
1.32007e-07
-1.98869e-08
1.34321e-07
-1.71557e-08
1.36246e-07
-1.43344e-08
1.37775e-07
-1.14394e-08
1.389e-07
-8.48705e-09
1.39618e-07
-5.49382e-09
1.39925e-07
-2.47611e-09
1.39821e-07
5.49778e-10
1.39307e-07
3.56764e-09
1.38387e-07
6.56143e-09
1.37065e-07
9.51525e-09
1.35348e-07
1.24134e-08
1.33245e-07
1.52405e-08
1.30767e-07
1.79812e-08
1.27925e-07
2.06206e-08
1.24734e-07
2.31441e-08
1.21209e-07
2.55373e-08
1.17368e-07
2.77862e-08
1.13231e-07
2.98772e-08
1.08817e-07
3.17972e-08
1.04149e-07
3.35333e-08
9.92522e-08
3.50735e-08
9.41516e-08
3.64061e-08
8.88745e-08
3.75199e-08
8.34498e-08
3.84046e-08
7.79077e-08
3.90507e-08
7.228e-08
3.94492e-08
6.65998e-08
3.95924e-08
6.09016e-08
3.94733e-08
5.52212e-08
3.90862e-08
4.95958e-08
3.84266e-08
4.40638e-08
3.74913e-08
3.86644e-08
3.62785e-08
3.34386e-08
3.47881e-08
2.84278e-08
3.30216e-08
2.3675e-08
3.09826e-08
1.92237e-08
2.86766e-08
1.51187e-08
2.6111e-08
1.14055e-08
2.32959e-08
8.13054e-09
2.02434e-08
5.34083e-09
1.69685e-08
3.08423e-09
1.34884e-08
1.4092e-09
9.82345e-09
3.64683e-10
5.99672e-09
2.03498e-09
4.04792e-10
-2.43878e-09
1.56635e-09
-7.17736e-09
3.43108e-09
-1.17458e-08
5.94483e-09
-1.61129e-08
9.05324e-09
-2.02512e-08
1.2702e-08
-2.41369e-08
1.6837e-08
-2.77492e-08
2.14048e-08
-3.10703e-08
2.63524e-08
-3.40855e-08
3.16277e-08
-3.67828e-08
3.71799e-08
-3.91531e-08
4.29589e-08
-4.119e-08
4.89161e-08
-4.28896e-08
5.50043e-08
-4.42504e-08
6.11779e-08
-4.52732e-08
6.73928e-08
-4.59609e-08
7.36066e-08
-4.63182e-08
7.97786e-08
-4.63518e-08
8.58702e-08
-4.60699e-08
9.18446e-08
-4.54823e-08
9.76667e-08
-4.46e-08
1.03304e-07
-4.34354e-08
1.08725e-07
-4.20019e-08
1.13902e-07
-4.03137e-08
1.18807e-07
-3.8386e-08
1.23415e-07
-3.62348e-08
1.27706e-07
-3.38764e-08
1.31656e-07
-3.1328e-08
1.3525e-07
-2.86068e-08
1.38469e-07
-2.57306e-08
1.41299e-07
-2.27174e-08
1.43729e-07
-1.95855e-08
1.45748e-07
-1.63531e-08
1.47347e-07
-1.30387e-08
1.48521e-07
-9.66064e-09
1.49264e-07
-6.23731e-09
1.49575e-07
-2.78707e-09
1.49453e-07
6.7186e-10
1.48899e-07
4.12137e-09
1.47917e-07
7.54353e-09
1.46512e-07
1.09206e-08
1.4469e-07
1.4235e-08
1.42461e-07
1.74694e-08
1.39836e-07
2.06068e-08
1.36826e-07
2.36304e-08
1.33446e-07
2.65237e-08
1.29713e-07
2.92707e-08
1.25643e-07
3.18556e-08
1.21258e-07
3.42629e-08
1.16577e-07
3.64778e-08
1.11625e-07
3.84857e-08
1.06425e-07
4.02728e-08
1.01006e-07
4.18256e-08
9.53943e-08
4.31314e-08
8.96207e-08
4.41782e-08
8.37168e-08
4.49546e-08
7.77157e-08
4.54503e-08
7.16524e-08
4.56557e-08
6.55634e-08
4.55623e-08
5.94868e-08
4.51629e-08
5.34621e-08
4.44513e-08
4.75304e-08
4.3423e-08
4.17343e-08
4.20746e-08
3.61177e-08
4.04047e-08
3.07259e-08
3.84134e-08
2.56057e-08
3.61029e-08
2.08048e-08
3.34774e-08
1.63724e-08
3.05434e-08
1.23588e-08
2.73095e-08
8.81511e-09
2.37871e-08
5.79366e-09
1.99899e-08
3.34745e-09
1.59346e-08
1.53022e-09
1.16407e-08
3.96215e-10
7.13072e-09
2.43119e-09
4.4108e-10
-2.87986e-09
1.70474e-09
-8.44101e-09
3.73057e-09
-1.37717e-08
6.45768e-09
-1.884e-08
9.82503e-09
-2.36186e-08
1.37718e-08
-2.80837e-08
1.82378e-08
-3.22152e-08
2.31635e-08
-3.5996e-08
2.84903e-08
-3.94123e-08
3.41609e-08
-4.24534e-08
4.01193e-08
-4.51115e-08
4.63112e-08
-4.73819e-08
5.26839e-08
-4.92622e-08
5.91863e-08
-5.07528e-08
6.57695e-08
-5.18564e-08
7.23865e-08
-5.25778e-08
7.89921e-08
-5.29239e-08
8.55437e-08
-5.29034e-08
9.20005e-08
-5.25267e-08
9.83241e-08
-5.18059e-08
1.04478e-07
-5.07541e-08
1.10429e-07
-4.9386e-08
1.16144e-07
-4.77173e-08
1.21595e-07
-4.57644e-08
1.26754e-07
-4.35448e-08
1.31596e-07
-4.10765e-08
1.36097e-07
-3.83783e-08
1.40239e-07
-3.54694e-08
1.44001e-07
-3.23692e-08
1.47368e-07
-2.90976e-08
1.50326e-07
-2.56748e-08
1.52861e-07
-2.2121e-08
1.54965e-07
-1.84566e-08
1.56628e-07
-1.47019e-08
1.57845e-07
-1.08774e-08
1.58611e-07
-7.00344e-09
1.58924e-07
-3.10024e-09
1.58784e-07
8.12035e-10
1.58192e-07
4.7134e-09
1.57151e-07
8.58403e-09
1.55667e-07
1.24043e-08
1.53747e-07
1.61548e-08
1.514e-07
1.98165e-08
1.48637e-07
2.33703e-08
1.45469e-07
2.67978e-08
1.41913e-07
3.00805e-08
1.37983e-07
3.32006e-08
1.33698e-07
3.61405e-08
1.29078e-07
3.88829e-08
1.24144e-07
4.14111e-08
1.18921e-07
4.37087e-08
1.13434e-07
4.576e-08
1.0771e-07
4.75497e-08
1.01778e-07
4.90633e-08
9.56699e-08
5.02867e-08
8.94176e-08
5.1207e-08
8.30562e-08
5.18117e-08
7.66222e-08
5.20896e-08
7.01542e-08
5.20304e-08
6.36922e-08
5.16249e-08
5.72783e-08
5.08652e-08
5.09562e-08
4.9745e-08
4.47716e-08
4.82592e-08
3.87717e-08
4.64046e-08
3.30053e-08
4.41797e-08
2.75231e-08
4.15851e-08
2.23771e-08
3.86235e-08
1.76209e-08
3.52996e-08
1.33094e-08
3.1621e-08
9.49886e-09
2.75976e-08
6.2467e-09
2.32421e-08
3.61127e-09
1.85701e-08
1.65177e-09
1.36002e-08
4.27978e-10
8.35451e-09
2.85917e-09
4.78694e-10
-3.35855e-09
1.84735e-09
-9.80967e-09
4.03787e-09
-1.59622e-08
6.98179e-09
-2.17839e-08
1.06108e-08
-2.72476e-08
1.48572e-08
-3.23301e-08
1.96541e-08
-3.70121e-08
2.49356e-08
-4.12775e-08
3.06375e-08
-4.51141e-08
3.66969e-08
-4.85128e-08
4.30531e-08
-5.14677e-08
4.96472e-08
-5.39759e-08
5.64222e-08
-5.60373e-08
6.33237e-08
-5.76544e-08
7.02995e-08
-5.88322e-08
7.72998e-08
-5.95781e-08
8.42772e-08
-5.99013e-08
9.11868e-08
-5.9813e-08
9.79864e-08
-5.93263e-08
1.04636e-07
-5.84555e-08
1.11098e-07
-5.72166e-08
1.17339e-07
-5.56265e-08
1.23325e-07
-5.37033e-08
1.29027e-07
-5.14661e-08
1.34417e-07
-4.89347e-08
1.3947e-07
-4.61296e-08
1.44163e-07
-4.30716e-08
1.48476e-07
-3.97823e-08
1.5239e-07
-3.62834e-08
1.55889e-07
-3.2597e-08
1.5896e-07
-2.87452e-08
1.61589e-07
-2.47505e-08
1.63768e-07
-2.06352e-08
1.65488e-07
-1.64217e-08
1.66743e-07
-1.21324e-08
1.67529e-07
-7.78955e-09
1.67844e-07
-3.41528e-09
1.67688e-07
9.68374e-10
1.67061e-07
5.33956e-09
1.65969e-07
9.67663e-09
1.64415e-07
1.39581e-08
1.62407e-07
1.81628e-08
1.59954e-07
2.22697e-08
1.57066e-07
2.62581e-08
1.53756e-07
3.01076e-08
1.50039e-07
3.37979e-08
1.4593e-07
3.73094e-08
1.41448e-07
4.06224e-08
1.36613e-07
4.3718e-08
1.31447e-07
4.65773e-08
1.25973e-07
4.91822e-08
1.20219e-07
5.15149e-08
1.1421e-07
5.35582e-08
1.07978e-07
5.52954e-08
1.01554e-07
5.67106e-08
9.49724e-08
5.77887e-08
8.82689e-08
5.85152e-08
8.14816e-08
5.88769e-08
7.46507e-08
5.88612e-08
6.78186e-08
5.8457e-08
6.10294e-08
5.76544e-08
5.43297e-08
5.64447e-08
4.77679e-08
5.4821e-08
4.13946e-08
5.27779e-08
3.52622e-08
5.03122e-08
2.94251e-08
4.74222e-08
2.39397e-08
4.41089e-08
1.8864e-08
4.03753e-08
1.42579e-08
3.62272e-08
1.01825e-08
3.16729e-08
6.70066e-09
2.67239e-08
3.87625e-09
2.13945e-08
1.77417e-09
1.57023e-08
4.60076e-10
9.66861e-09
3.31924e-09
5.17575e-10
-3.87612e-09
1.99379e-09
-1.12859e-08
4.35176e-09
-1.83201e-08
7.51461e-09
-2.49468e-08
1.14061e-08
-3.11391e-08
1.59508e-08
-3.68749e-08
2.10749e-08
-4.21361e-08
2.6706e-08
-4.69086e-08
3.27738e-08
-5.11819e-08
3.92101e-08
-5.49491e-08
4.59489e-08
-5.82066e-08
5.2927e-08
-6.0954e-08
6.00837e-08
-6.31939e-08
6.7361e-08
-6.49317e-08
7.47038e-08
-6.6175e-08
8.20599e-08
-6.69341e-08
8.93797e-08
-6.72211e-08
9.66169e-08
-6.70502e-08
1.03728e-07
-6.64371e-08
1.10671e-07
-6.53992e-08
1.1741e-07
-6.3955e-08
1.23908e-07
-6.21245e-08
1.30133e-07
-5.99283e-08
1.36055e-07
-5.73882e-08
1.41647e-07
-5.45264e-08
1.46883e-07
-5.13659e-08
1.51741e-07
-4.793e-08
1.56202e-07
-4.42427e-08
1.60246e-07
-4.03277e-08
1.63859e-07
-3.62095e-08
1.67026e-07
-3.19123e-08
1.69736e-07
-2.74605e-08
1.71979e-07
-2.28785e-08
1.73748e-07
-1.81906e-08
1.75036e-07
-1.34211e-08
1.75841e-07
-8.59419e-09
1.7616e-07
-3.73378e-09
1.75992e-07
1.13629e-09
1.75339e-07
5.99238e-09
1.74204e-07
1.0811e-08
1.72593e-07
1.55691e-08
1.70513e-07
2.02434e-08
1.67971e-07
2.48113e-08
1.64979e-07
2.92503e-08
1.61548e-07
3.35381e-08
1.57694e-07
3.76526e-08
1.53431e-07
4.15722e-08
1.48778e-07
4.52754e-08
1.43755e-07
4.87413e-08
1.38383e-07
5.19491e-08
1.32687e-07
5.48785e-08
1.26692e-07
5.75096e-08
1.20427e-07
5.98232e-08
1.13922e-07
6.18004e-08
1.0721e-07
6.34231e-08
1.00324e-07
6.46738e-08
9.33036e-08
6.5536e-08
8.61867e-08
6.59938e-08
7.90155e-08
6.60325e-08
7.1834e-08
6.56385e-08
6.46888e-08
6.47995e-08
5.76289e-08
6.35046e-08
5.07056e-08
6.17443e-08
4.39726e-08
5.95109e-08
3.74859e-08
5.67988e-08
3.13039e-08
5.36042e-08
2.54872e-08
4.99256e-08
2.00983e-08
4.57642e-08
1.5202e-08
4.11235e-08
1.08648e-08
3.60101e-08
7.15492e-09
3.04337e-08
4.14215e-09
2.44072e-08
1.89738e-09
1.7947e-08
4.92513e-10
1.10735e-08
3.81176e-09
5.57462e-10
-4.43358e-09
2.14287e-09
-1.28713e-08
4.66934e-09
-2.08466e-08
8.05065e-09
-2.83281e-08
1.22017e-08
-3.52901e-08
1.70391e-08
-4.17123e-08
2.24813e-08
-4.75784e-08
2.84492e-08
-5.28766e-08
3.48664e-08
-5.7599e-08
4.16589e-08
-6.17416e-08
4.87562e-08
-6.53038e-08
5.60906e-08
-6.82884e-08
6.35978e-08
-7.07011e-08
7.12167e-08