/*--------------------------------*- C++ -*----------------------------------*\
  =========                 |
  \\      /  F ield         | OpenFOAM: The Open Source CFD Toolbox
   \\    /   O peration     | Website:  https://openfoam.org
    \\  /    A nd           | Version:  12
     \\/     M anipulation  |
\*---------------------------------------------------------------------------*/
FoamFile
{
    format      ascii;
    class       volVectorField;
    location    "5";
    object      U;
}
// * * * * * * * * * * * * * * * * * * * * * * * * * * * * * * * * * * * * * //

dimensions      [0 1 -1 0 0 0 0];

internalField   nonuniform List<vector> 
5625
(
(-5.33835e-07 1.19333e-06 0)
(-2.19077e-06 1.96978e-06 0)
(-3.81536e-06 1.94096e-06 0)
(-4.68374e-06 1.52926e-06 0)
(-4.21525e-06 9.50778e-07 0)
(-2.13185e-06 3.08445e-07 0)
(1.67486e-06 -3.4088e-07 0)
(7.21568e-06 -9.64522e-07 0)
(1.44376e-05 -1.54364e-06 0)
(2.32462e-05 -2.06854e-06 0)
(3.35179e-05 -2.53505e-06 0)
(4.51108e-05 -2.94215e-06 0)
(5.7872e-05 -3.29057e-06 0)
(7.16421e-05 -3.58202e-06 0)
(8.62589e-05 -3.81873e-06 0)
(0.00010156 -4.00318e-06 0)
(0.000117385 -4.13795e-06 0)
(0.000133575 -4.22566e-06 0)
(0.000149977 -4.26892e-06 0)
(0.000166443 -4.27028e-06 0)
(0.00018283 -4.23231e-06 0)
(0.000199 -4.15752e-06 0)
(0.000214824 -4.0484e-06 0)
(0.000230179 -3.90741e-06 0)
(0.00024495 -3.737e-06 0)
(0.00025903 -3.5396e-06 0)
(0.000272318 -3.31762e-06 0)
(0.000284724 -3.07343e-06 0)
(0.000296164 -2.80939e-06 0)
(0.000306565 -2.52784e-06 0)
(0.000315859 -2.23107e-06 0)
(0.00032399 -1.92134e-06 0)
(0.000330908 -1.60089e-06 0)
(0.000336573 -1.27189e-06 0)
(0.000340952 -9.36505e-07 0)
(0.000344023 -5.96825e-07 0)
(0.000345768 -2.54913e-07 0)
(0.000346182 8.72372e-08 0)
(0.000345265 4.27535e-07 0)
(0.000343025 7.64259e-07 0)
(0.00033948 1.09542e-06 0)
(0.000334655 1.41913e-06 0)
(0.00032858 1.73358e-06 0)
(0.000321297 2.03698e-06 0)
(0.000312851 2.32755e-06 0)
(0.000303298 2.60351e-06 0)
(0.000292698 2.86311e-06 0)
(0.000281122 3.10457e-06 0)
(0.000268643 3.32613e-06 0)
(0.000255345 3.52596e-06 0)
(0.000241318 3.70223e-06 0)
(0.000226656 3.85305e-06 0)
(0.000211464 3.97649e-06 0)
(0.00019585 4.07053e-06 0)
(0.000179929 4.13307e-06 0)
(0.000163824 4.16191e-06 0)
(0.000147664 4.15475e-06 0)
(0.00013158 4.10915e-06 0)
(0.000115714 4.02256e-06 0)
(0.000100209 3.89226e-06 0)
(8.52153e-05 3.71545e-06 0)
(7.08846e-05 3.48922e-06 0)
(5.73724e-05 3.21068e-06 0)
(4.48351e-05 2.87708e-06 0)
(3.34276e-05 2.48609e-06 0)
(2.33003e-05 2.03627e-06 0)
(1.45943e-05 1.52781e-06 0)
(7.4333e-06 9.63946e-07 0)
(1.91285e-06 3.54233e-07 0)
(-1.90357e-06 -2.82347e-07 0)
(-4.01972e-06 -9.17276e-07 0)
(-4.54097e-06 -1.49335e-06 0)
(-3.73136e-06 -1.90707e-06 0)
(-2.15667e-06 -1.94399e-06 0)
(-5.29738e-07 -1.18236e-06 0)
(-3.26167e-07 3.54307e-06 0)
(-9.7961e-07 5.24422e-06 0)
(-1.91371e-07 3.27125e-06 0)
(3.03144e-06 -9.71988e-07 0)
(9.4625e-06 -6.54371e-06 0)
(1.95543e-05 -1.28071e-05 0)
(3.35196e-05 -1.9324e-05 0)
(5.14016e-05 -2.57929e-05 0)
(7.31176e-05 -3.20066e-05 0)
(9.84901e-05 -3.78248e-05 0)
(0.000127272 -4.31533e-05 0)
(0.000159163 -4.79307e-05 0)
(0.00019383 -5.21187e-05 0)
(0.000230912 -5.56958e-05 0)
(0.000270032 -5.86525e-05 0)
(0.000310807 -6.09885e-05 0)
(0.000352848 -6.27103e-05 0)
(0.000395768 -6.38298e-05 0)
(0.000439188 -6.43632e-05 0)
(0.000482734 -6.43299e-05 0)
(0.000526044 -6.37521e-05 0)
(0.00056877 -6.26546e-05 0)
(0.000610577 -6.10636e-05 0)
(0.00065115 -5.90073e-05 0)
(0.000690187 -5.65151e-05 0)
(0.000727408 -5.36175e-05 0)
(0.000762552 -5.03457e-05 0)
(0.000795379 -4.67318e-05 0)
(0.000825668 -4.28084e-05 0)
(0.000853221 -3.86085e-05 0)
(0.000877861 -3.41652e-05 0)
(0.000899435 -2.95119e-05 0)
(0.00091781 -2.46817e-05 0)
(0.000932876 -1.97081e-05 0)
(0.000944546 -1.46239e-05 0)
(0.000952754 -9.46197e-06 0)
(0.000957456 -4.25478e-06 0)
(0.000958632 9.65577e-07 0)
(0.000956282 6.16743e-06 0)
(0.000950427 1.13196e-05 0)
(0.00094111 1.63911e-05 0)
(0.000928396 2.13517e-05 0)
(0.000912368 2.61715e-05 0)
(0.000893132 3.0821e-05 0)
(0.000870812 3.52713e-05 0)
(0.000845553 3.9494e-05 0)
(0.000817517 4.34607e-05 0)
(0.000786888 4.7144e-05 0)
(0.000753867 5.05165e-05 0)
(0.000718672 5.35514e-05 0)
(0.00068154 5.62221e-05 0)
(0.000642724 5.85028e-05 0)
(0.000602497 6.03679e-05 0)
(0.000561142 6.17925e-05 0)
(0.000518964 6.27521e-05 0)
(0.000476277 6.32235e-05 0)
(0.000433411 6.3184e-05 0)
(0.000390708 6.26125e-05 0)
(0.000348519 6.14897e-05 0)
(0.000307207 5.97984e-05 0)
(0.000267137 5.75248e-05 0)
(0.00022868 5.46592e-05 0)
(0.000192204 5.11977e-05 0)
(0.000158073 4.71448e-05 0)
(0.000126635 4.25162e-05 0)
(9.822e-05 3.73435e-05 0)
(7.3124e-05 3.1681e-05 0)
(5.15958e-05 2.56153e-05 0)
(3.38183e-05 1.92798e-05 0)
(1.98851e-05 1.2875e-05 0)
(9.76704e-06 6.69248e-06 0)
(3.26846e-06 1.16506e-06 0)
(-4.2089e-08 -3.0752e-06 0)
(-9.13781e-07 -5.09048e-06 0)
(-3.17943e-07 -3.47734e-06 0)
(-8.19353e-09 3.32562e-06 0)
(2.13213e-06 1.65089e-06 0)
(7.86473e-06 -6.03951e-06 0)
(1.80049e-05 -1.76888e-05 0)
(3.30737e-05 -3.17893e-05 0)
(5.34086e-05 -4.72323e-05 0)
(7.917e-05 -6.31911e-05 0)
(0.000110356 -7.90499e-05 0)
(0.00014683 -9.4353e-05 0)
(0.000188343 -0.000108766 0)
(0.000234562 -0.000122046 0)
(0.000285081 -0.00013402 0)
(0.000339445 -0.000144569 0)
(0.000397157 -0.000153613 0)
(0.000457694 -0.000161107 0)
(0.000520516 -0.000167029 0)
(0.000585072 -0.00017138 0)
(0.000650809 -0.000174174 0)
(0.00071718 -0.000175441 0)
(0.000783643 -0.000175222 0)
(0.000849669 -0.000173567 0)
(0.000914749 -0.000170532 0)
(0.000978391 -0.000166182 0)
(0.00104012 -0.000160586 0)
(0.0010995 -0.000153819 0)
(0.00115611 -0.000145959 0)
(0.00120956 -0.000137087 0)
(0.00125948 -0.000127286 0)
(0.00130555 -0.000116643 0)
(0.00134746 -0.000105246 0)
(0.00138496 -9.31817e-05 0)
(0.0014178 -8.0541e-05 0)
(0.00144579 -6.74131e-05 0)
(0.00146875 -5.3888e-05 0)
(0.00148656 -4.00552e-05 0)
(0.00149911 -2.60041e-05 0)
(0.00150634 -1.18234e-05 0)
(0.0015082 2.39915e-06 0)
(0.00150471 1.65766e-05 0)
(0.00149588 3.0623e-05 0)
(0.00148179 4.44536e-05 0)
(0.00146253 5.79849e-05 0)
(0.00143822 7.11346e-05 0)
(0.00140903 8.38218e-05 0)
(0.00137514 9.59669e-05 0)
(0.00133677 0.000107492 0)
(0.00129416 0.000118319 0)
(0.00124759 0.000128374 0)
(0.00119737 0.000137583 0)
(0.00114382 0.000145874 0)
(0.00108731 0.000153177 0)
(0.0010282 0.000159422 0)
(0.000966908 0.000164545 0)
(0.00090386 0.000168481 0)
(0.000839505 0.00017117 0)
(0.00077431 0.000172555 0)
(0.000708762 0.000172584 0)
(0.000643362 0.000171211 0)
(0.000578623 0.000168393 0)
(0.000515067 0.000164102 0)
(0.00045322 0.000158315 0)
(0.000393607 0.000151026 0)
(0.000336748 0.000142247 0)
(0.000283147 0.000132011 0)
(0.000233286 0.000120384 0)
(0.000187612 0.00010747 0)
(0.000146523 9.34248e-05 0)
(0.000110356 7.84746e-05 0)
(7.93648e-05 6.29361e-05 0)
(5.36978e-05 4.7248e-05 0)
(3.33739e-05 3.20098e-05 0)
(1.82546e-05 1.80339e-05 0)
(8.02874e-06 6.41718e-06 0)
(2.20691e-06 -1.34103e-06 0)
(1.10858e-09 -3.18762e-06 0)
(3.21183e-07 -3.00565e-07 0)
(5.66543e-06 -1.07872e-05 0)
(1.70781e-05 -2.86175e-05 0)
(3.50933e-05 -5.14242e-05 0)
(5.98217e-05 -7.73645e-05 0)
(9.13464e-05 -0.000104998 0)
(0.000129661 -0.00013319 0)
(0.000174635 -0.00016105 0)
(0.00022602 -0.000187884 0)
(0.000283466 -0.000213158 0)
(0.000346538 -0.000236466 0)
(0.000414733 -0.000257504 0)
(0.000487488 -0.000276051 0)
(0.000564198 -0.000291953 0)
(0.000644223 -0.00030511 0)
(0.000726903 -0.000315468 0)
(0.000811564 -0.00032301 0)
(0.000897526 -0.00032775 0)
(0.000984111 -0.000329728 0)
(0.00107065 -0.000329005 0)
(0.00115649 -0.000325663 0)
(0.00124099 -0.000319798 0)
(0.00132354 -0.000311519 0)
(0.00140355 -0.000300949 0)
(0.00148046 -0.000288218 0)
(0.00155373 -0.000273465 0)
(0.00162289 -0.000256838 0)
(0.00168748 -0.000238487 0)
(0.00174706 -0.000218569 0)
(0.00180127 -0.000197245 0)
(0.00184976 -0.000174676 0)
(0.00189224 -0.000151028 0)
(0.00192845 -0.000126466 0)
(0.00195817 -0.000101158 0)
(0.00198123 -7.52692e-05 0)
(0.00199751 -4.89664e-05 0)
(0.00200691 -2.24148e-05 0)
(0.00200938 4.22123e-06 0)
(0.00200493 3.07791e-05 0)
(0.00199359 5.70981e-05 0)
(0.00197545 8.30191e-05 0)
(0.00195062 0.000108386 0)
(0.00191927 0.000133044 0)
(0.00188158 0.000156841 0)
(0.00183782 0.000179629 0)
(0.00178824 0.000201262 0)
(0.00173317 0.000221597 0)
(0.00167295 0.000240492 0)
(0.00160797 0.000257813 0)
(0.00153865 0.000273427 0)
(0.00146544 0.000287204 0)
(0.00138882 0.000299021 0)
(0.00130931 0.00030876 0)
(0.00122744 0.000316307 0)
(0.00114378 0.000321556 0)
(0.00105892 0.000324412 0)
(0.000973458 0.000324786 0)
(0.000888028 0.000322602 0)
(0.000803264 0.000317801 0)
(0.000719811 0.000310338 0)
(0.000638317 0.000300192 0)
(0.000559426 0.000287368 0)
(0.000483774 0.000271905 0)
(0.000411974 0.000253881 0)
(0.000344616 0.000233429 0)
(0.000282247 0.000210742 0)
(0.000225365 0.000186098 0)
(0.000174402 0.000159872 0)
(0.000129714 0.00013257 0)
(9.15607e-05 0.000104856 0)
(6.00921e-05 7.75927e-05 0)
(3.53383e-05 5.18911e-05 0)
(1.72473e-05 2.91709e-05 0)
(5.74522e-06 1.126e-05 0)
(3.31322e-07 5.17392e-07 0)
(6.15263e-07 -7.44273e-06 0)
(9.10228e-06 -3.25106e-05 0)
(2.62187e-05 -6.52232e-05 0)
(5.22281e-05 -0.000103132 0)
(8.68054e-05 -0.000144238 0)
(0.000129729 -0.000186909 0)
(0.00018077 -0.000229803 0)
(0.000239615 -0.000271826 0)
(0.000305858 -0.000312094 0)
(0.000379015 -0.000349903 0)
(0.000458528 -0.000384698 0)
(0.000543779 -0.000416052 0)
(0.000634097 -0.000443642 0)
(0.00072877 -0.000467237 0)
(0.000827054 -0.00048668 0)
(0.000928183 -0.00050188 0)
(0.00103138 -0.000512798 0)
(0.00113585 -0.000519445 0)
(0.00124083 -0.00052187 0)
(0.00134553 -0.000520157 0)
(0.0014492 -0.00051442 0)
(0.00155111 -0.0005048 0)
(0.00165053 -0.000491457 0)
(0.00174678 -0.000474572 0)
(0.00183922 -0.000454342 0)
(0.00192724 -0.000430977 0)
(0.00201025 -0.0004047 0)
(0.00208773 -0.000375743 0)
(0.00215918 -0.000344344 0)
(0.00222417 -0.000310751 0)
(0.00228229 -0.000275215 0)
(0.00233319 -0.00023799 0)
(0.00237658 -0.000199334 0)
(0.00241219 -0.000159505 0)
(0.00243984 -0.000118764 0)
(0.00245935 -7.73682e-05 0)
(0.00247063 -3.55771e-05 0)
(0.00247363 6.35297e-06 0)
(0.00246834 4.81673e-05 0)
(0.0024548 8.96141e-05 0)
(0.00243311 0.000130444 0)
(0.00240341 0.000170413 0)
(0.00236589 0.000209277 0)
(0.00232078 0.000246801 0)
(0.00226836 0.00028275 0)
(0.00220895 0.000316897 0)
(0.00214293 0.000349017 0)
(0.0020707 0.000378895 0)
(0.00199271 0.000406317 0)
(0.00190946 0.000431079 0)
(0.00182148 0.000452983 0)
(0.00172932 0.00047184 0)
(0.00163359 0.00048747 0)
(0.00153491 0.000499704 0)
(0.00143394 0.000508385 0)
(0.00133137 0.00051337 0)
(0.0012279 0.000514533 0)
(0.00112424 0.00051177 0)
(0.00102115 0.000504997 0)
(0.000919356 0.000494162 0)
(0.000819618 0.000479244 0)
(0.000722676 0.000460265 0)
(0.000629265 0.000437293 0)
(0.000540102 0.000410457 0)
(0.000455875 0.000379955 0)
(0.000377237 0.000346072 0)
(0.000304795 0.000309195 0)
(0.000239104 0.000269836 0)
(0.00018065 0.000228655 0)
(0.000129851 0.000186491 0)
(8.70383e-05 0.000144399 0)
(5.24677e-05 0.000103682 0)
(2.63955e-05 6.59419e-05 0)
(9.18997e-06 3.31516e-05 0)
(6.2726e-07 7.74526e-06 0)
(8.74657e-07 -1.78578e-05 0)
(1.23027e-05 -6.31271e-05 0)
(3.48786e-05 -0.000115505 0)
(6.86426e-05 -0.000172571 0)
(0.000112864 -0.000232277 0)
(0.000167015 -0.000292892 0)
(0.000230628 -0.00035295 0)
(0.000303181 -0.00041122 0)
(0.000384086 -0.000466681 0)
(0.000472695 -0.000518498 0)
(0.000568308 -0.000565996 0)
(0.000670175 -0.000608646 0)
(0.000777507 -0.000646037 0)
(0.000889477 -0.000677871 0)
(0.00100524 -0.000703941 0)
(0.00112392 -0.000724121 0)
(0.00124464 -0.000738357 0)
(0.00136653 -0.000746658 0)
(0.0014887 -0.000749087 0)
(0.0016103 -0.000745754 0)
(0.00173049 -0.00073681 0)
(0.00184843 -0.000722443 0)
(0.00196334 -0.000702873 0)
(0.00207446 -0.000678345 0)
(0.00218105 -0.00064913 0)
(0.00228245 -0.000615519 0)
(0.00237801 -0.000577818 0)
(0.00246713 -0.000536349 0)
(0.00254928 -0.000491446 0)
(0.00262395 -0.000443453 0)
(0.00269069 -0.000392719 0)
(0.00274913 -0.000339603 0)
(0.00279892 -0.000284465 0)
(0.00283979 -0.000227668 0)
(0.00287149 -0.000169578 0)
(0.00289387 -0.000110559 0)
(0.0029068 -5.09764e-05 0)
(0.00291023 8.80845e-06 0)
(0.00290415 6.84359e-05 0)
(0.00288861 0.00012755 0)
(0.00286371 0.000185799 0)
(0.00282961 0.000242835 0)
(0.00278653 0.000298318 0)
(0.00273471 0.000351912 0)
(0.00267449 0.000403287 0)
(0.00260621 0.000452121 0)
(0.0025303 0.0004981 0)
(0.00244721 0.000540917 0)
(0.00235744 0.000580277 0)
(0.00226154 0.000615893 0)
(0.00216011 0.000647488 0)
(0.00205377 0.000674801 0)
(0.0019432 0.000697582 0)
(0.00182908 0.0007156 0)
(0.00171216 0.000728641 0)
(0.0015932 0.000736512 0)
(0.00147298 0.000739045 0)
(0.0013523 0.000736102 0)
(0.001232 0.000727576 0)
(0.00111291 0.000713402 0)
(0.000995853 0.000693558 0)
(0.000881679 0.000668078 0)
(0.000771217 0.000637057 0)
(0.000665281 0.000600666 0)
(0.000564668 0.000559161 0)
(0.000470146 0.000512901 0)
(0.000382447 0.000462361 0)
(0.000302264 0.000408158 0)
(0.000230244 0.000351066 0)
(0.000166984 0.000292046 0)
(0.000113023 0.000232271 0)
(6.88593e-05 0.000173152 0)
(3.50574e-05 0.000116374 0)
(1.23981e-05 6.39434e-05 0)
(8.89011e-07 1.82563e-05 0)
(1.10546e-06 -3.12804e-05 0)
(1.52682e-05 -0.000102092 0)
(4.30087e-05 -0.000178816 0)
(8.41921e-05 -0.000259093 0)
(0.000137726 -0.000340879 0)
(0.000202798 -0.000422402 0)
(0.0002787 -0.000502127 0)
(0.000364698 -0.000578738 0)
(0.000460007 -0.000651121 0)
(0.000563804 -0.00071835 0)
(0.000675228 -0.000779665 0)
(0.000793386 -0.000834458 0)
(0.000917354 -0.000882256 0)
(0.00104619 -0.000922708 0)
(0.00117892 -0.000955571 0)
(0.00131458 -0.000980699 0)
(0.0014522 -0.000998031 0)
(0.00159079 -0.00100758 0)
(0.00172941 -0.00100944 0)
(0.00186709 -0.00100374 0)
(0.00200293 -0.000990687 0)
(0.00213601 -0.000970518 0)
(0.00226549 -0.00094352 0)
(0.00239053 -0.000910012 0)
(0.00251034 -0.000870346 0)
(0.00262419 -0.000824898 0)
(0.00273138 -0.00077407 0)
(0.00283127 -0.000718283 0)
(0.00292327 -0.000657973 0)
(0.00300684 -0.00059359 0)
(0.00308149 -0.000525593 0)
(0.00314681 -0.000454453 0)
(0.00320244 -0.000380643 0)
(0.00324806 -0.000304642 0)
(0.00328344 -0.000226931 0)
(0.00330838 -0.00014799 0)
(0.00332276 -6.83007e-05 0)
(0.00332652 1.16596e-05 0)
(0.00331965 9.14159e-05 0)
(0.00330221 0.000170498 0)
(0.00327431 0.000248441 0)
(0.00323612 0.000324786 0)
(0.00318787 0.000399082 0)
(0.00312984 0.000470885 0)
(0.00306239 0.000539761 0)
(0.00298589 0.000605284 0)
(0.0029008 0.00066704 0)
(0.00280762 0.000724626 0)
(0.0027069 0.000777651 0)
(0.00259922 0.00082574 0)
(0.00248524 0.000868531 0)
(0.00236564 0.000905682 0)
(0.00224114 0.000936868 0)
(0.00211251 0.000961789 0)
(0.00198054 0.000980166 0)
(0.00184606 0.000991753 0)
(0.00170994 0.000996334 0)
(0.00157304 0.00099373 0)
(0.00143628 0.000983806 0)
(0.00130057 0.000966476 0)
(0.00116682 0.000941712 0)
(0.00103599 0.00090955 0)
(0.000908976 0.0008701 0)
(0.000786718 0.000823562 0)
(0.000670121 0.000770231 0)
(0.000560079 0.000710518 0)
(0.00045746 0.000644959 0)
(0.000363112 0.00057424 0)
(0.000277852 0.000499209 0)
(0.00020247 0.000420898 0)
(0.000137718 0.000340544 0)
(8.43314e-05 0.000259606 0)
(4.31638e-05 0.000179788 0)
(1.53634e-05 0.000103076 0)
(1.12191e-06 3.17827e-05 0)
(1.31607e-06 -4.74912e-05 0)
(1.80496e-05 -0.000148911 0)
(5.07028e-05 -0.000254517 0)
(9.90027e-05 -0.000362012 0)
(0.000161534 -0.000469369 0)
(0.000237221 -0.000574804 0)
(0.00032513 -0.000676747 0)
(0.000424312 -0.000773833 0)
(0.000533783 -0.000864893 0)
(0.000652537 -0.000948941 0)
(0.000779543 -0.00102516 0)
(0.000913753 -0.0010929 0)
(0.0010541 -0.00115165 0)
(0.00119951 -0.00120101 0)
(0.00134891 -0.00124074 0)
(0.0015012 -0.00127069 0)
(0.00165531 -0.00129079 0)
(0.00181017 -0.00130109 0)
(0.00196474 -0.0013017 0)
(0.00211799 -0.00129281 0)
(0.00226891 -0.00127466 0)
(0.00241655 -0.00124758 0)
(0.00255998 -0.00121191 0)
(0.00269831 -0.00116806 0)
(0.0028307 -0.00111647 0)
(0.00295636 -0.00105761 0)
(0.00307454 -0.000991986 0)
(0.00318458 -0.000920125 0)
(0.00328583 -0.000842575 0)
(0.00337772 -0.000759901 0)
(0.00345976 -0.00067268 0)
(0.00353148 -0.000581502 0)
(0.00359251 -0.000486962 0)
(0.00364252 -0.000389663 0)
(0.00368125 -0.00029021 0)
(0.00370851 -0.000189208 0)
(0.00372416 -8.72613e-05 0)
(0.00372815 1.50268e-05 0)
(0.00372046 0.000117059 0)
(0.00370116 0.000218241 0)
(0.00367036 0.000317989 0)
(0.00362826 0.000415723 0)
(0.00357509 0.000510874 0)
(0.00351117 0.000602884 0)
(0.00343685 0.000691203 0)
(0.00335256 0.000775297 0)
(0.00325877 0.000854644 0)
(0.00315602 0.000928735 0)
(0.00304488 0.000997081 0)
(0.00292601 0.00105921 0)
(0.00280007 0.00111466 0)
(0.00266781 0.00116302 0)
(0.00253 0.00120386 0)
(0.00238746 0.00123682 0)
(0.00224103 0.00126155 0)
(0.00209162 0.00127773 0)
(0.00194015 0.0012851 0)
(0.00178756 0.00128342 0)
(0.00163484 0.00127254 0)
(0.00148297 0.00125232 0)
(0.00133298 0.00122273 0)
(0.00118588 0.00118379 0)
(0.0010427 0.0011356 0)
(0.000904474 0.00107838 0)
(0.000772235 0.00101244 0)
(0.000647005 0.000938225 0)
(0.000529802 0.000856294 0)
(0.000421631 0.000767372 0)
(0.000323488 0.000672345 0)
(0.000236354 0.000572277 0)
(0.000161192 0.000468429 0)
(9.8962e-05 0.000362269 0)
(5.07817e-05 0.000255485 0)
(1.81262e-05 0.000150018 0)
(1.33334e-06 4.80927e-05 0)
(1.51444e-06 -6.63355e-05 0)
(2.07105e-05 -0.000203218 0)
(5.81017e-05 -0.000342118 0)
(0.000113301 -0.000480777 0)
(0.000184597 -0.000617186 0)
(0.000270671 -0.000749558 0)
(0.000370368 -0.000876308 0)
(0.000482533 -0.000996045 0)
(0.000605984 -0.00110757 0)
(0.000739525 -0.00120987 0)
(0.000881952 -0.0013021 0)
(0.00103205 -0.00138358 0)
(0.00118862 -0.00145379 0)
(0.00135043 -0.00151233 0)
(0.00151629 -0.00155895 0)
(0.00168498 -0.00159351 0)
(0.00185533 -0.00161599 0)
(0.00202618 -0.00162646 0)
(0.00219639 -0.00162508 0)
(0.00236486 -0.0016121 0)
(0.0025305 -0.00158783 0)
(0.00269229 -0.00155266 0)
(0.00284925 -0.00150704 0)
(0.00300042 -0.00145145 0)
(0.00314493 -0.00138645 0)
(0.00328193 -0.0013126 0)
(0.00341065 -0.00123052 0)
(0.00353037 -0.00114085 0)
(0.00364043 -0.00104427 0)
(0.00374022 -0.000941454 0)
(0.00382923 -0.000833111 0)
(0.00390698 -0.000719957 0)
(0.00397307 -0.000602717 0)
(0.00402716 -0.000482124 0)
(0.00406899 -0.000358913 0)
(0.00409836 -0.00023382 0)
(0.00411513 -0.000107583 0)
(0.00411923 1.90666e-05 0)
(0.00411066 0.0001454 0)
(0.0040895 0.000270696 0)
(0.00405586 0.00039424 0)
(0.00400994 0.000515329 0)
(0.00395201 0.000633269 0)
(0.00388238 0.000747379 0)
(0.00380143 0.000856992 0)
(0.00370962 0.000961455 0)
(0.00360744 0.00106013 0)
(0.00349546 0.0011524 0)
(0.00337428 0.00123767 0)
(0.00324459 0.00131537 0)
(0.0031071 0.00138493 0)
(0.00296259 0.00144584 0)
(0.00281187 0.00149759 0)
(0.00265583 0.00153974 0)
(0.00249535 0.00157184 0)
(0.0023314 0.00159353 0)
(0.00216495 0.00160446 0)
(0.00199703 0.00160436 0)
(0.00182869 0.00159299 0)
(0.00166101 0.0015702 0)
(0.00149507 0.00153591 0)
(0.00133201 0.00149012 0)
(0.00117296 0.00143291 0)
(0.00101905 0.00136449 0)
(0.000871457 0.00128517 0)
(0.000731332 0.00119538 0)
(0.000599845 0.00109571 0)
(0.000478164 0.000986869 0)
(0.000367462 0.00086976 0)
(0.000268912 0.000745451 0)
(0.000183675 0.000615196 0)
(0.000112926 0.000480449 0)
(5.80233e-05 0.000342866 0)
(2.07386e-05 0.000204337 0)
(1.53018e-06 6.70085e-05 0)
(1.70734e-06 -8.77246e-05 0)
(2.33119e-05 -0.000264795 0)
(6.53504e-05 -0.000441313 0)
(0.000127333 -0.000615038 0)
(0.000207267 -0.000783966 0)
(0.000303598 -0.00094631 0)
(0.000414961 -0.00110048 0)
(0.000539996 -0.00124507 0)
(0.00067732 -0.00137888 0)
(0.000825549 -0.00150088 0)
(0.000983301 -0.00161023 0)
(0.0011492 -0.00170624 0)
(0.00132188 -0.00178841 0)
(0.00149998 -0.00185635 0)
(0.00168216 -0.00190985 0)
(0.00186711 -0.00194879 0)
(0.00205353 -0.00197321 0)
(0.00224016 -0.00198322 0)
(0.00242579 -0.00197905 0)
(0.00260921 -0.00196102 0)
(0.00278929 -0.00192954 0)
(0.00296492 -0.00188508 0)
(0.00313508 -0.00182818 0)
(0.00329875 -0.00175943 0)
(0.00345502 -0.0016795 0)
(0.003603 -0.00158906 0)
(0.00374188 -0.00148887 0)
(0.00387091 -0.00137968 0)
(0.0039894 -0.00126229 0)
(0.00409675 -0.00113751 0)
(0.00419239 -0.00100619 0)
(0.00427585 -0.000869178 0)
(0.00434671 -0.000727328 0)
(0.00440463 -0.000581513 0)
(0.00444933 -0.000432604 0)
(0.00448061 -0.000281475 0)
(0.00449834 -0.000128998 0)
(0.00450245 2.39572e-05 0)
(0.00449293 0.000176528 0)
(0.00446987 0.000327859 0)
(0.0044334 0.000477104 0)
(0.00438373 0.000623427 0)
(0.00432112 0.000766007 0)
(0.00424591 0.000904036 0)
(0.00415851 0.00103672 0)
(0.00405937 0.00116329 0)
(0.00394902 0.00128298 0)
(0.00382805 0.00139506 0)
(0.00369709 0.00149882 0)
(0.00355686 0.00159358 0)
(0.00340811 0.00167867 0)
(0.00325164 0.00175348 0)
(0.00308832 0.0018174 0)
(0.00291907 0.00186988 0)
(0.00274483 0.00191041 0)
(0.00256663 0.00193853 0)
(0.00238549 0.00195383 0)
(0.00220251 0.00195595 0)
(0.00201882 0.0019446 0)
(0.00183556 0.00191957 0)
(0.00165394 0.00188073 0)
(0.00147515 0.00182803 0)
(0.00130046 0.00176152 0)
(0.00113111 0.00168138 0)
(0.000968403 0.00158789 0)
(0.000813629 0.00148145 0)
(0.000668111 0.00136263 0)
(0.000533181 0.00123214 0)
(0.000410188 0.00109085 0)
(0.000300489 0.000939812 0)
(0.00020544 0.000780257 0)
(0.000126416 0.000613606 0)
(6.50044e-05 0.00044148 0)
(2.32506e-05 0.000265718 0)
(1.71809e-06 8.84066e-05 0)
(1.9003e-06 -0.000111629 0)
(2.59075e-05 -0.000333561 0)
(7.25789e-05 -0.000551987 0)
(0.000141323 -0.000764656 0)
(0.00022987 -0.000969561 0)
(0.00033643 -0.00116491 0)
(0.00045943 -0.00134911 0)
(0.000597303 -0.00152077 0)
(0.000748467 -0.00167868 0)
(0.000911347 -0.00182184 0)
(0.00108438 -0.00194941 0)
(0.00126602 -0.00206074 0)
(0.00145473 -0.00215534 0)
(0.00164903 -0.0022329 0)
(0.00184743 -0.00229321 0)
(0.0020485 -0.00233626 0)
(0.00225083 -0.00236211 0)
(0.00245306 -0.00237098 0)
(0.00265388 -0.00236317 0)
(0.00285202 -0.0023391 0)
(0.00304626 -0.00229927 0)
(0.00323546 -0.00224425 0)
(0.0034185 -0.0021747 0)
(0.00359435 -0.00209134 0)
(0.00376203 -0.00199494 0)
(0.00392064 -0.00188632 0)
(0.00406933 -0.00176634 0)
(0.00420732 -0.00163591 0)
(0.00433392 -0.00149595 0)
(0.00444847 -0.00134743 0)
(0.00455044 -0.00119131 0)
(0.00463931 -0.00102859 0)
(0.00471467 -0.000860275 0)
(0.00477617 -0.000687368 0)
(0.00482353 -0.000510884 0)
(0.00485655 -0.00033184 0)
(0.00487509 -0.000151248 0)
(0.0048791 2.9883e-05 0)
(0.00486857 0.000210551 0)
(0.00484358 0.000389764 0)
(0.00480428 0.000566538 0)
(0.00475089 0.000739904 0)
(0.00468368 0.000908906 0)
(0.00460301 0.00107261 0)
(0.00450928 0.00123008 0)
(0.00440299 0.00138043 0)
(0.00428466 0.00152278 0)
(0.00415492 0.00165626 0)
(0.00401442 0.00178005 0)
(0.00386389 0.00189335 0)
(0.00370412 0.00199538 0)
(0.00353596 0.00208541 0)
(0.0033603 0.00216274 0)
(0.00317811 0.00222672 0)
(0.00299038 0.00227673 0)
(0.00279817 0.00231223 0)
(0.00260259 0.0023327 0)
(0.0024048 0.00233771 0)
(0.00220599 0.0023269 0)
(0.00200739 0.00229997 0)
(0.00181029 0.00225674 0)
(0.001616 0.00219708 0)
(0.00142588 0.002121 0)
(0.0012413 0.00202861 0)
(0.00106368 0.00192014 0)
(0.000894465 0.00179597 0)
(0.000735123 0.0016566 0)
(0.00058715 0.00150272 0)
(0.000452069 0.00133515 0)
(0.000331418 0.00115491 0)
(0.000226742 0.000963184 0)
(0.00013961 0.000761363 0)
(7.18281e-05 0.000551022 0)
(2.57045e-05 0.000333957 0)
(1.90154e-06 0.000112211 0)
(2.09774e-06 -0.000138066 0)
(2.85404e-05 -0.000409554 0)
(7.98937e-05 -0.000674183 0)
(0.000155458 -0.000929675 0)
(0.000252675 -0.00117401 0)
(0.000369518 -0.00140539 0)
(0.000504199 -0.00162224 0)
(0.000654942 -0.00182316 0)
(0.000819963 -0.00200697 0)
(0.00099749 -0.00217271 0)
(0.00118578 -0.00231957 0)
(0.0013831 -0.00244696 0)
(0.00158778 -0.00255444 0)
(0.00179816 -0.00264175 0)
(0.00201264 -0.00270879 0)
(0.00222965 -0.00275559 0)
(0.00244768 -0.00278234 0)
(0.00266528 -0.00278933 0)
(0.00288103 -0.00277697 0)
(0.00309359 -0.0027458 0)
(0.00330168 -0.00269643 0)
(0.00350409 -0.00262956 0)
(0.00369966 -0.00254597 0)
(0.00388731 -0.00244651 0)
(0.00406603 -0.00233208 0)
(0.00423488 -0.00220366 0)
(0.00439299 -0.00206223 0)
(0.00453956 -0.00190885 0)
(0.00467389 -0.0017446 0)
(0.00479531 -0.00157056 0)
(0.00490326 -0.00138786 0)
(0.00499723 -0.00119764 0)
(0.00507681 -0.00100105 0)
(0.00514165 -0.000799237 0)
(0.00519146 -0.000593369 0)
(0.00522604 -0.0003846 0)
(0.00524527 -0.000174089 0)
(0.00524907 3.70132e-05 0)
(0.00523747 0.000247564 0)
(0.00521055 0.000456429 0)
(0.00516845 0.000662488 0)
(0.0051114 0.000864633 0)
(0.0050397 0.00106177 0)
(0.00495369 0.00125284 0)
(0.00485382 0.00143677 0)
(0.00474056 0.00161253 0)
(0.00461448 0.00177913 0)
(0.0044762 0.00193556 0)
(0.00432641 0.00208089 0)
(0.00416586 0.00221417 0)
(0.00399537 0.00233454 0)
(0.00381581 0.00244112 0)
(0.0036281 0.00253311 0)
(0.00343326 0.00260974 0)
(0.00323232 0.00267029 0)
(0.0030264 0.0027141 0)
(0.00281667 0.00274057 0)
(0.00260432 0.00274917 0)
(0.00239065 0.00273942 0)
(0.00217696 0.00271097 0)
(0.00196462 0.00266351 0)
(0.00175506 0.00259686 0)
(0.00154972 0.00251094 0)
(0.00135011 0.00240578 0)
(0.00115778 0.00228156 0)
(0.000974303 0.00213857 0)
(0.000801311 0.00197726 0)
(0.00064046 0.00179826 0)
(0.000493441 0.00160232 0)
(0.000361976 0.00139043 0)
(0.000247793 0.0011637 0)
(0.000152653 0.000923486 0)
(7.85773e-05 0.000671315 0)
(2.81341e-05 0.000408945 0)
(2.08392e-06 0.000138384 0)
(2.30304e-06 -0.000167094 0)
(3.12428e-05 -0.000492904 0)
(8.73726e-05 -0.000808071 0)
(0.000169869 -0.00111028 0)
(0.000275872 -0.0013975 0)
(0.000403104 -0.00166792 0)
(0.000549552 -0.00191998 0)
(0.000713225 -0.00215231 0)
(0.000892129 -0.00236379 0)
(0.00108429 -0.00255347 0)
(0.00128778 -0.00272064 0)
(0.0015007 -0.00286475 0)
(0.0017212 -0.00298547 0)
(0.00194749 -0.00308263 0)
(0.00217782 -0.0031562 0)
(0.00241051 -0.00320636 0)
(0.00264394 -0.00323337 0)
(0.00287654 -0.00323767 0)
(0.00310684 -0.0032198 0)
(0.00333341 -0.00318042 0)
(0.00355491 -0.00312027 0)
(0.00377007 -0.00304021 0)
(0.0039777 -0.00294115 0)
(0.00417666 -0.00282409 0)
(0.00436593 -0.00269008 0)
(0.00454454 -0.00254024 0)
(0.0047116 -0.00237572 0)
(0.0048663 -0.00219771 0)
(0.00500791 -0.00200744 0)
(0.00513578 -0.00180617 0)
(0.00524934 -0.00159516 0)
(0.00534808 -0.00137571 0)
(0.00543157 -0.00114911 0)
(0.00549948 -0.000916657 0)
(0.00555152 -0.000679671 0)
(0.0055875 -0.000439454 0)
(0.00560728 -0.000197306 0)
(0.00561082 4.54763e-05 0)
(0.00559813 0.000287607 0)
(0.00556929 0.000527811 0)
(0.00552447 0.000764827 0)
(0.00546389 0.000997409 0)
(0.00538786 0.00122433 0)
(0.00529673 0.00144437 0)
(0.00519094 0.00165636 0)
(0.005071 0.00185911 0)
(0.00493747 0.0020515 0)
(0.00479099 0.0022324 0)
(0.00463226 0.00240073 0)
(0.00446206 0.00255544 0)
(0.00428121 0.0026955 0)
(0.00409063 0.00281995 0)
(0.00389127 0.00292784 0)
(0.00368416 0.00301829 0)
(0.0034704 0.00309045 0)
(0.00325114 0.00314355 0)
(0.0030276 0.00317686 0)
(0.00280106 0.00318974 0)
(0.00257286 0.00318163 0)
(0.00234439 0.00315203 0)
(0.00211711 0.00310055 0)
(0.00189254 0.0030269 0)
(0.00167223 0.0029309 0)
(0.00145783 0.00281249 0)
(0.00125099 0.00267176 0)
(0.00105345 0.0025089 0)
(0.00086697 0.0023243 0)
(0.000693381 0.00211847 0)
(0.000534545 0.00189213 0)
(0.000392362 0.00164616 0)
(0.000268747 0.00138164 0)
(0.000165652 0.00109985 0)
(8.53129e-05 0.00080228 0)
(3.05639e-05 0.000490639 0)
(2.26768e-06 0.000166917 0)
(2.51859e-06 -0.000198795 0)
(3.40353e-05 -0.000583801 0)
(9.50624e-05 -0.000953904 0)
(0.000184633 -0.00130675 0)
(0.00029956 -0.00164028 0)
(0.000437298 -0.00195271 0)
(0.000595598 -0.0022425 0)
(0.000772241 -0.00250833 0)
(0.000965016 -0.00274912 0)
(0.00117175 -0.00296402 0)
(0.00139031 -0.0031524 0)
(0.00161863 -0.00331381 0)
(0.0018547 -0.00344803 0)
(0.00209658 -0.003555 0)
(0.00234238 -0.00363484 0)
(0.00259032 -0.00368783 0)
(0.00283865 -0.00371441 0)
(0.00308574 -0.00371514 0)
(0.00333002 -0.00369072 0)
(0.00357 -0.00364195 0)
(0.00380429 -0.00356976 0)
(0.00403156 -0.00347513 0)
(0.00425059 -0.00335915 0)
(0.00446022 -0.00322298 0)
(0.00465939 -0.00306784 0)
(0.00484712 -0.00289499 0)
(0.00502252 -0.00270575 0)
(0.00518476 -0.00250148 0)
(0.00533312 -0.00228357 0)
(0.00546694 -0.00205341 0)
(0.00558565 -0.00181244 0)
(0.00568875 -0.00156211 0)
(0.00577581 -0.00130385 0)
(0.00584651 -0.00103913 0)
(0.00590055 -0.000769406 0)
(0.00593776 -0.000496123 0)
(0.00595801 -0.000220732 0)
(0.00596125 5.53268e-05 0)
(0.0059475 0.000330625 0)
(0.00591685 0.000603746 0)
(0.00586947 0.000873287 0)
(0.00580557 0.00113786 0)
(0.00572547 0.00139611 0)
(0.00562954 0.00164668 0)
(0.00551821 0.00188823 0)
(0.00539199 0.00211949 0)
(0.00525145 0.00233915 0)
(0.00509724 0.00254598 0)
(0.00493008 0.00273875 0)
(0.00475074 0.00291627 0)
(0.00456008 0.0030774 0)
(0.00435902 0.00322101 0)
(0.00414854 0.00334605 0)
(0.00392971 0.00345148 0)
(0.00370366 0.00353634 0)
(0.00347157 0.00359971 0)
(0.00323473 0.00364074 0)
(0.00299447 0.00365866 0)
(0.00275219 0.00365278 0)
(0.00250936 0.00362247 0)
(0.00226754 0.00356722 0)
(0.00202832 0.00348661 0)
(0.00179339 0.00338036 0)
(0.00156448 0.00324827 0)
(0.00134339 0.00309032 0)
(0.001132 0.00290661 0)
(0.000932224 0.0026974 0)
(0.000746049 0.00246312 0)
(0.000575511 0.00220438 0)
(0.000422692 0.00192198 0)
(0.000289696 0.00161692 0)
(0.00017867 0.00129042 0)
(9.20731e-05 0.000943905 0)
(3.30097e-05 0.000579051 0)
(2.45444e-06 0.00019782 0)
(2.74584e-06 -0.000233267 0)
(3.69259e-05 -0.000682467 0)
(0.000102975 -0.00111196 0)
(0.000199758 -0.00151936 0)
(0.000323731 -0.00190261 0)
(0.000472059 -0.00225995 0)
(0.00064224 -0.00258989 0)
(0.000831815 -0.00289117 0)
(0.00103835 -0.00316281 0)
(0.00125945 -0.00340407 0)
(0.00149281 -0.00361441 0)
(0.00173617 -0.00379355 0)
(0.00198736 -0.00394138 0)
(0.00224429 -0.004058 0)
(0.00250497 -0.00414369 0)
(0.00276748 -0.0041989 0)
(0.00302999 -0.00422423 0)
(0.00329078 -0.00422041 0)
(0.00354821 -0.00418833 0)
(0.00380075 -0.00412896 0)
(0.00404694 -0.00404339 0)