/*--------------------------------*- C++ -*----------------------------------*\
  =========                 |
  \\      /  F ield         | OpenFOAM: The Open Source CFD Toolbox
   \\    /   O peration     | Website:  https://openfoam.org
    \\  /    A nd           | Version:  12
     \\/     M anipulation  |
\*---------------------------------------------------------------------------*/
FoamFile
{
    format      ascii;
    class       volScalarField;
    location    "9.5";
    object      epsilon;
}
// * * * * * * * * * * * * * * * * * * * * * * * * * * * * * * * * * * * * * //

dimensions      [0 2 -3 0 0 0 0];

internalField   nonuniform List<scalar> 
5625
(
7.03705e-12
1.32886e-11
2.81701e-11
4.59374e-11
6.59556e-11
8.77458e-11
1.10958e-10
1.35325e-10
1.60624e-10
1.86666e-10
2.1328e-10
2.4031e-10
2.67608e-10
2.95037e-10
3.22462e-10
3.49758e-10
3.76801e-10
4.03474e-10
4.29664e-10
4.55259e-10
4.80156e-10
5.04253e-10
5.27453e-10
5.49664e-10
5.70797e-10
5.9077e-10
6.09504e-10
6.26927e-10
6.4297e-10
6.57572e-10
6.70674e-10
6.82226e-10
6.92182e-10
7.00503e-10
7.07155e-10
7.12111e-10
7.1535e-10
7.16857e-10
7.16626e-10
7.14654e-10
7.10941e-10
7.05501e-10
6.9835e-10
6.89513e-10
6.7902e-10
6.66907e-10
6.53218e-10
6.38002e-10
6.21315e-10
6.03218e-10
5.83779e-10
5.63072e-10
5.41177e-10
5.18179e-10
4.94169e-10
4.69244e-10
4.43504e-10
4.17059e-10
3.90019e-10
3.62504e-10
3.34635e-10
3.06544e-10
2.78364e-10
2.50237e-10
2.22314e-10
1.94752e-10
1.67723e-10
1.41412e-10
1.16026e-10
9.18041e-11
6.90372e-11
4.81001e-11
2.95031e-11
1.3919e-11
7.37082e-12
4.75747e-11
2.58807e-11
2.51901e-11
3.00902e-11
3.76289e-11
4.67505e-11
5.6948e-11
6.79297e-11
7.95035e-11
9.15288e-11
1.03894e-10
1.16506e-10
1.29283e-10
1.42148e-10
1.55035e-10
1.67876e-10
1.80613e-10
1.93185e-10
2.05538e-10
2.17618e-10
2.29374e-10
2.40757e-10
2.5172e-10
2.62219e-10
2.72212e-10
2.8166e-10
2.90523e-10
2.98769e-10
3.06363e-10
3.13277e-10
3.19483e-10
3.24956e-10
3.29675e-10
3.33621e-10
3.36778e-10
3.39132e-10
3.40673e-10
3.41396e-10
3.41294e-10
3.40369e-10
3.38619e-10
3.36052e-10
3.32674e-10
3.28498e-10
3.23538e-10
3.17811e-10
3.11337e-10
3.04141e-10
2.96248e-10
2.8769e-10
2.78497e-10
2.68705e-10
2.58354e-10
2.47483e-10
2.36137e-10
2.24363e-10
2.1221e-10
1.9973e-10
1.86979e-10
1.74015e-10
1.60898e-10
1.47695e-10
1.34474e-10
1.21308e-10
1.0828e-10
9.54763e-11
8.29993e-11
7.09685e-11
5.95346e-11
4.89025e-11
3.93817e-11
3.15066e-11
2.6386e-11
2.71152e-11
4.98422e-11
1.05745e-10
5.1833e-11
3.99742e-11
3.7743e-11
3.95703e-11
4.36374e-11
4.9125e-11
5.5588e-11
6.27523e-11
7.04332e-11
7.8497e-11
8.68405e-11
9.53801e-11
1.04045e-10
1.12774e-10
1.21512e-10
1.30208e-10
1.38817e-10
1.47295e-10
1.55602e-10
1.63699e-10
1.71549e-10
1.7912e-10
1.86377e-10
1.93292e-10
1.99834e-10
2.05978e-10
2.11697e-10
2.16969e-10
2.21773e-10
2.26088e-10
2.29897e-10
2.33184e-10
2.35936e-10
2.38142e-10
2.39791e-10
2.40876e-10
2.41393e-10
2.41337e-10
2.4071e-10
2.39509e-10
2.3774e-10
2.35408e-10
2.32522e-10
2.29091e-10
2.25127e-10
2.20645e-10
2.15663e-10
2.10199e-10
2.04275e-10
1.97914e-10
1.91142e-10
1.83986e-10
1.76478e-10
1.68649e-10
1.60535e-10
1.52172e-10
1.43601e-10
1.34864e-10
1.26006e-10
1.17077e-10
1.08131e-10
9.92262e-11
9.04287e-11
8.18143e-11
7.34727e-11
6.55137e-11
5.80798e-11
5.13664e-11
4.56623e-11
4.1436e-11
3.95475e-11
4.19041e-11
5.43439e-11
1.10861e-10
1.74776e-10
8.38464e-11
6.07965e-11
5.24138e-11
4.98513e-11
5.03579e-11
5.27523e-11
5.64165e-11
6.09817e-11
6.62064e-11
7.19209e-11
7.79989e-11
8.43421e-11
9.08712e-11
9.75198e-11
1.04231e-10
1.10955e-10
1.17646e-10
1.24264e-10
1.30771e-10
1.37132e-10
1.43316e-10
1.49292e-10
1.55032e-10
1.6051e-10
1.65702e-10
1.70583e-10
1.75134e-10
1.79333e-10
1.83164e-10
1.8661e-10
1.89656e-10
1.92289e-10
1.94497e-10
1.9627e-10
1.97601e-10
1.98483e-10
1.98912e-10
1.98884e-10
1.984e-10
1.97459e-10
1.96064e-10
1.9422e-10
1.91934e-10
1.89213e-10
1.86069e-10
1.82513e-10
1.7856e-10
1.74225e-10
1.69528e-10
1.64489e-10
1.59128e-10
1.53472e-10
1.47546e-10
1.41379e-10
1.35002e-10
1.28449e-10
1.21757e-10
1.14965e-10
1.08117e-10
1.01261e-10
9.44515e-11
8.7749e-11
8.12251e-11
7.49645e-11
6.90717e-11
6.36799e-11
5.89682e-11
5.51907e-11
5.27354e-11
5.22512e-11
5.49774e-11
6.38e-11
8.80018e-11
1.83427e-10
2.51436e-10
1.19751e-10
8.49411e-11
7.05688e-11
6.40469e-11
6.15405e-11
6.14474e-11
6.29532e-11
6.55853e-11
6.90406e-11
7.31106e-11
7.76434e-11
8.25231e-11
8.76578e-11
9.29726e-11
9.84043e-11
1.03899e-10
1.09408e-10
1.14892e-10
1.20311e-10
1.25632e-10
1.30823e-10
1.35856e-10
1.40702e-10
1.45338e-10
1.49741e-10
1.53889e-10
1.57761e-10
1.61342e-10
1.64612e-10
1.67559e-10
1.70167e-10
1.72425e-10
1.74322e-10
1.7585e-10
1.77001e-10
1.77769e-10
1.7815e-10
1.78141e-10
1.77742e-10
1.76952e-10
1.75774e-10
1.74213e-10
1.72274e-10
1.69965e-10
1.67295e-10
1.64276e-10
1.6092e-10
1.57244e-10
1.53263e-10
1.48997e-10
1.44467e-10
1.39696e-10
1.3471e-10
1.29537e-10
1.24207e-10
1.18753e-10
1.13213e-10
1.07627e-10
1.0204e-10
9.65043e-11
9.10771e-11
8.5826e-11
8.08313e-11
7.61901e-11
7.20255e-11
6.84981e-11
6.58273e-11
6.4331e-11
6.45057e-11
6.72057e-11
7.41135e-11
8.92569e-11
1.25861e-10
2.64256e-10
3.33628e-10
1.5839e-10
1.11255e-10
9.08434e-11
8.0517e-11
7.52492e-11
7.29692e-11
7.26437e-11
7.3683e-11
7.57179e-11
7.84979e-11
8.18433e-11
8.56194e-11
8.97209e-11
9.40631e-11
9.85758e-11
1.032e-10
1.07884e-10
1.12583e-10
1.17258e-10
1.21873e-10
1.26395e-10
1.30795e-10
1.35047e-10
1.39125e-10
1.43007e-10
1.46672e-10
1.50101e-10
1.53276e-10
1.56181e-10
1.58803e-10
1.61127e-10
1.63142e-10
1.64838e-10
1.66207e-10
1.67241e-10
1.67935e-10
1.68284e-10
1.68286e-10
1.67942e-10
1.67248e-10
1.6621e-10
1.6483e-10
1.63115e-10
1.61072e-10
1.5871e-10
1.5604e-10
1.53074e-10
1.49829e-10
1.46319e-10
1.42566e-10
1.38588e-10
1.3441e-10
1.30058e-10
1.2556e-10
1.20947e-10
1.16255e-10
1.11521e-10
1.06789e-10
1.02108e-10
9.75311e-11
9.31241e-11
8.89622e-11
8.51363e-11
8.17579e-11
7.89692e-11
7.69586e-11
7.59886e-11
7.64476e-11
7.8954e-11
8.45942e-11
9.55449e-11
1.17094e-10
1.66751e-10
3.51242e-10
4.19775e-10
1.98961e-10
1.39051e-10
1.1251e-10
9.84361e-11
9.0539e-11
8.62453e-11
8.42836e-11
8.39387e-11
8.4767e-11
8.64739e-11
8.88501e-11
9.17404e-11
9.50253e-11
9.86097e-11
1.02416e-10
1.06378e-10
1.10441e-10
1.14556e-10
1.18682e-10
1.2278e-10
1.26816e-10
1.30762e-10
1.34587e-10
1.38269e-10
1.41782e-10
1.45107e-10
1.48224e-10
1.51115e-10
1.53765e-10
1.56159e-10
1.58284e-10
1.60128e-10
1.61683e-10
1.62939e-10
1.63889e-10
1.64528e-10
1.64853e-10
1.64859e-10
1.64549e-10
1.63919e-10
1.62974e-10
1.61717e-10
1.60154e-10
1.58293e-10
1.56142e-10
1.53713e-10
1.5102e-10
1.48075e-10
1.44898e-10
1.41508e-10
1.37925e-10
1.34174e-10
1.30282e-10
1.26277e-10
1.22194e-10
1.1807e-10
1.13944e-10
1.09865e-10
1.05884e-10
1.02062e-10
9.84684e-11
9.5187e-11
9.23188e-11
8.99906e-11
8.83657e-11
8.76634e-11
8.81936e-11
9.04212e-11
9.50987e-11
1.03563e-10
1.18524e-10
1.46611e-10
2.09863e-10
4.42799e-10
5.08588e-10
2.40831e-10
1.67833e-10
1.35089e-10
1.17296e-10
1.06851e-10
1.00656e-10
9.71889e-11
9.56008e-11
9.53705e-11
9.61536e-11
9.77107e-11
9.98648e-11
1.02481e-10
1.05453e-10
1.08695e-10
1.12135e-10
1.15714e-10
1.19378e-10
1.23082e-10
1.26788e-10
1.30458e-10
1.34061e-10
1.37569e-10
1.40955e-10
1.44196e-10
1.47269e-10
1.50156e-10
1.52838e-10
1.55299e-10
1.57525e-10
1.59503e-10
1.61221e-10
1.6267e-10
1.63841e-10
1.64727e-10
1.65322e-10
1.65624e-10
1.65629e-10
1.65337e-10
1.64748e-10
1.63864e-10
1.6269e-10
1.61232e-10
1.59497e-10
1.57495e-10
1.55238e-10
1.52738e-10
1.50011e-10
1.47076e-10
1.43952e-10
1.40662e-10
1.37231e-10
1.33687e-10
1.30062e-10
1.26391e-10
1.22713e-10
1.19071e-10
1.15514e-10
1.12101e-10
1.08895e-10
1.05975e-10
1.03432e-10
1.0138e-10
9.99597e-11
9.93582e-11
9.98272e-11
1.01727e-10
1.05607e-10
1.12358e-10
1.23586e-10
1.42558e-10
1.77301e-10
2.54552e-10
5.3762e-10
5.98972e-10
2.83468e-10
1.97204e-10
1.58223e-10
1.36738e-10
1.23807e-10
1.15793e-10
1.10917e-10
1.08191e-10
1.07011e-10
1.06983e-10
1.07833e-10
1.09362e-10
1.11419e-10
1.13887e-10
1.1667e-10
1.19691e-10
1.22884e-10
1.26192e-10
1.29568e-10
1.32969e-10
1.36357e-10
1.39699e-10
1.42965e-10
1.46127e-10
1.4916e-10
1.52043e-10
1.54756e-10
1.57279e-10
1.59598e-10
1.61696e-10
1.63561e-10
1.65181e-10
1.66547e-10
1.6765e-10
1.68482e-10
1.69039e-10
1.69317e-10
1.69314e-10
1.69029e-10
1.68462e-10
1.67616e-10
1.66496e-10
1.65109e-10
1.63461e-10
1.61564e-10
1.59428e-10
1.57069e-10
1.54503e-10
1.51747e-10
1.48824e-10
1.45756e-10
1.42571e-10
1.39297e-10
1.35969e-10
1.32623e-10
1.293e-10
1.26048e-10
1.2292e-10
1.19977e-10
1.1729e-10
1.14942e-10
1.13037e-10
1.11697e-10
1.11083e-10
1.11404e-10
1.12947e-10
1.16126e-10
1.21575e-10
1.30336e-10
1.44287e-10
1.67271e-10
2.0875e-10
3.00265e-10
6.34565e-10
6.89976e-10
3.26418e-10
2.26832e-10
1.81623e-10
1.56485e-10
1.41126e-10
1.31364e-10
1.25157e-10
1.21376e-10
1.19333e-10
1.18581e-10
1.18813e-10
1.19804e-10
1.21389e-10
1.23437e-10
1.25844e-10
1.28525e-10
1.31409e-10
1.34436e-10
1.37554e-10
1.40718e-10
1.43887e-10
1.47028e-10
1.50107e-10
1.53098e-10
1.55973e-10
1.58711e-10
1.6129e-10
1.63692e-10
1.659e-10
1.67898e-10
1.69675e-10
1.71217e-10
1.72515e-10
1.7356e-10
1.74346e-10
1.74867e-10
1.75119e-10
1.75101e-10
1.74813e-10
1.74254e-10
1.73428e-10
1.7234e-10
1.70996e-10
1.69405e-10
1.67578e-10
1.65528e-10
1.63268e-10
1.60816e-10
1.58192e-10
1.55417e-10
1.52517e-10
1.4952e-10
1.46457e-10
1.43362e-10
1.40276e-10
1.37242e-10
1.34311e-10
1.31539e-10
1.28992e-10
1.26747e-10
1.24896e-10
1.23549e-10
1.22844e-10
1.22958e-10
1.24124e-10
1.26666e-10
1.31055e-10
1.38011e-10
1.48728e-10
1.65366e-10
1.92351e-10
2.40597e-10
3.46507e-10
7.32599e-10
7.8077e-10
3.69283e-10
2.56435e-10
2.05051e-10
1.76315e-10
1.58588e-10
1.47142e-10
1.39673e-10
1.34907e-10
1.32074e-10
1.30672e-10
1.30358e-10
1.30884e-10
1.32067e-10
1.33764e-10
1.35861e-10
1.38267e-10
1.40904e-10
1.43708e-10
1.46624e-10
1.49604e-10
1.52606e-10
1.55592e-10
1.5853e-10
1.6139e-10
1.64145e-10
1.66772e-10
1.69248e-10
1.71556e-10
1.73677e-10
1.75597e-10
1.77301e-10
1.78779e-10
1.80019e-10
1.81014e-10
1.81757e-10
1.82242e-10
1.82466e-10
1.82427e-10
1.82126e-10
1.81562e-10
1.8074e-10
1.79664e-10
1.78343e-10
1.76784e-10
1.75e-10
1.73003e-10
1.70809e-10
1.68436e-10
1.65905e-10
1.63239e-10
1.60463e-10
1.57609e-10
1.54707e-10
1.51797e-10
1.48919e-10
1.46119e-10
1.43453e-10
1.40979e-10
1.3877e-10
1.36907e-10
1.3549e-10
1.34639e-10
1.34505e-10
1.35282e-10
1.37231e-10
1.40713e-10
1.46252e-10
1.54661e-10
1.67286e-10
1.86568e-10
2.17522e-10
2.72514e-10
3.92818e-10
8.30758e-10
8.70632e-10
4.11721e-10
2.85768e-10
2.28302e-10
1.96043e-10
1.76014e-10
1.62949e-10
1.54282e-10
1.48595e-10
1.45034e-10
1.43045e-10
1.42247e-10
1.42369e-10
1.43209e-10
1.44612e-10
1.46455e-10
1.48638e-10
1.5108e-10
1.5371e-10
1.56471e-10
1.5931e-10
1.62185e-10
1.65055e-10
1.67887e-10
1.70648e-10
1.73313e-10
1.75855e-10
1.78253e-10
1.80488e-10
1.82541e-10
1.84397e-10
1.86042e-10
1.87465e-10
1.88655e-10
1.89603e-10
1.90304e-10
1.90752e-10
1.90943e-10
1.90877e-10
1.90554e-10
1.89973e-10
1.89141e-10
1.88061e-10
1.86743e-10
1.85195e-10
1.8343e-10
1.81462e-10
1.79306e-10
1.76982e-10
1.74512e-10
1.7192e-10
1.69233e-10
1.66483e-10
1.63705e-10
1.60937e-10
1.58223e-10
1.55614e-10
1.53165e-10
1.50942e-10
1.4902e-10
1.47488e-10
1.46453e-10
1.46045e-10
1.46429e-10
1.47817e-10
1.50496e-10
1.54863e-10
1.615e-10
1.71309e-10
1.85791e-10
2.07666e-10
2.4253e-10
3.04195e-10
4.38764e-10
9.28132e-10
9.58947e-10
4.5344e-10
3.14626e-10
2.51208e-10
2.15517e-10
1.93261e-10
1.78643e-10
1.68839e-10
1.6229e-10
1.58059e-10
1.55537e-10
1.54309e-10
1.54079e-10
1.54627e-10
1.55785e-10
1.57421e-10
1.59427e-10
1.61715e-10
1.64212e-10
1.66855e-10
1.6959e-10
1.72371e-10
1.75156e-10
1.77909e-10
1.80599e-10
1.83196e-10
1.85675e-10
1.88014e-10
1.90191e-10
1.92189e-10
1.93993e-10
1.95588e-10
1.96962e-10
1.98106e-10
1.9901e-10
1.99669e-10
2.00076e-10
2.0023e-10
2.0013e-10
1.99775e-10
1.99167e-10
1.98311e-10
1.97213e-10
1.95881e-10
1.94326e-10
1.92559e-10
1.90597e-10
1.88455e-10
1.86155e-10
1.83718e-10
1.81171e-10
1.78543e-10
1.75865e-10
1.73175e-10
1.70514e-10
1.67929e-10
1.6547e-10
1.632e-10
1.61186e-10
1.5951e-10
1.58265e-10
1.57568e-10
1.57557e-10
1.58411e-10
1.60363e-10
1.63723e-10
1.68926e-10
1.7661e-10
1.87767e-10
2.04047e-10
2.28447e-10
2.67137e-10
3.35347e-10
4.83931e-10
1.02385e-09
1.0452e-09
4.94199e-10
3.4284e-10
2.7363e-10
2.34613e-10
2.10212e-10
1.94109e-10
1.83229e-10
1.75875e-10
1.71026e-10
1.68021e-10
1.66411e-10
1.65875e-10
1.66175e-10
1.67129e-10
1.68598e-10
1.70464e-10
1.72636e-10
1.75033e-10
1.7759e-10
1.8025e-10
1.82964e-10
1.85689e-10
1.88388e-10
1.91026e-10
1.93574e-10
1.96006e-10
1.98298e-10
2.0043e-10
2.02384e-10
2.04143e-10
2.05693e-10
2.07022e-10
2.08121e-10
2.0898e-10
2.09594e-10
2.09958e-10
2.10069e-10
2.09927e-10
2.09532e-10
2.08885e-10
2.07993e-10
2.06862e-10
2.05501e-10
2.0392e-10
2.02134e-10
2.00158e-10
1.98009e-10
1.95709e-10
1.93282e-10
1.90755e-10
1.88158e-10
1.85524e-10
1.82894e-10
1.80309e-10
1.77819e-10
1.75479e-10
1.73352e-10
1.71512e-10
1.70044e-10
1.69048e-10
1.68648e-10
1.68994e-10
1.70277e-10
1.72748e-10
1.76743e-10
1.82733e-10
1.91413e-10
2.0386e-10
2.21871e-10
2.48714e-10
2.91117e-10
3.65691e-10
5.27916e-10
1.11706e-09
1.12901e-09
5.33808e-10
3.70278e-10
2.95462e-10
2.53236e-10
2.26777e-10
2.09261e-10
1.97365e-10
1.89259e-10
1.83842e-10
1.804e-10
1.78451e-10
1.7765e-10
1.7774e-10
1.78527e-10
1.79862e-10
1.81622e-10
1.83706e-10
1.86031e-10
1.88528e-10
1.91137e-10
1.93807e-10
1.96492e-10
1.99153e-10
2.01755e-10
2.04268e-10
2.06664e-10
2.08921e-10
2.11015e-10
2.1293e-10
2.14648e-10
2.16156e-10
2.17441e-10
2.18494e-10
2.19306e-10
2.19871e-10
2.20186e-10
2.20246e-10
2.20054e-10
2.19608e-10
2.18912e-10
2.17971e-10
2.16793e-10
2.15388e-10
2.13767e-10
2.11943e-10
2.09935e-10
2.07759e-10
2.0544e-10
2.03001e-10
2.0047e-10
1.9788e-10
1.95267e-10
1.92669e-10
1.90134e-10
1.87711e-10
1.8546e-10
1.83446e-10
1.81747e-10
1.80453e-10
1.79672e-10
1.79533e-10
1.80196e-10
1.81869e-10
1.84817e-10
1.89402e-10
1.96131e-10
2.0575e-10
2.19424e-10
2.39089e-10
2.68276e-10
3.14249e-10
3.94954e-10
5.7033e-10
1.20693e-09
1.21008e-09
5.72136e-10
3.96847e-10
3.16626e-10
2.71319e-10
2.42893e-10
2.24035e-10
2.11184e-10
2.02379e-10
1.96439e-10
1.92604e-10
1.90354e-10
1.89323e-10
1.89237e-10
1.89889e-10
1.9112e-10
1.92799e-10
1.9482e-10
1.97097e-10
1.99555e-10
2.02132e-10
2.04774e-10
2.07433e-10
2.10069e-10
2.12647e-10
2.15134e-10
2.17503e-10
2.19729e-10
2.2179e-10
2.23668e-10
2.25347e-10
2.26811e-10
2.2805e-10
2.29053e-10
2.29813e-10
2.30323e-10
2.3058e-10
2.30582e-10
2.3033e-10
2.29822e-10
2.29064e-10
2.28062e-10
2.26824e-10
2.2536e-10
2.23682e-10
2.21806e-10
2.19747e-10
2.17528e-10
2.15169e-10
2.12698e-10
2.10144e-10
2.0754e-10
2.04923e-10
2.02336e-10
1.99825e-10
1.97444e-10
1.95254e-10
1.93325e-10
1.91739e-10
1.90589e-10
1.89989e-10
1.90078e-10
1.91023e-10
1.93046e-10
1.9643e-10
2.01559e-10
2.08975e-10
2.19475e-10
2.34305e-10
2.55537e-10
2.8695e-10
3.36321e-10
4.2287e-10
6.10787e-10
1.29266e-09
1.28825e-09
6.09106e-10
4.22495e-10
3.37081e-10
2.88823e-10
2.58523e-10
2.38395e-10
2.24647e-10
2.15192e-10
2.08774e-10
2.04584e-10
2.02069e-10
2.0084e-10
2.00608e-10
2.01151e-10
2.02302e-10
2.03923e-10
2.05902e-10
2.08148e-10
2.10583e-10
2.13142e-10
2.15768e-10
2.18413e-10
2.21034e-10
2.23593e-10
2.2606e-10
2.28404e-10
2.30601e-10
2.32629e-10
2.34469e-10
2.36105e-10
2.37522e-10
2.38709e-10
2.39656e-10
2.40356e-10
2.40802e-10
2.40992e-10
2.40924e-10
2.406e-10
2.40018e-10
2.39186e-10
2.38109e-10
2.36796e-10
2.35258e-10
2.33509e-10
2.31562e-10
2.29438e-10
2.27156e-10
2.24741e-10
2.2222e-10
2.19623e-10
2.16985e-10
2.14345e-10
2.11746e-10
2.09237e-10
2.06875e-10
2.04723e-10
2.02853e-10
2.01351e-10
2.00317e-10
1.99869e-10
2.00152e-10
2.01344e-10
2.0368e-10
2.07456e-10
2.13082e-10
2.2113e-10
2.32448e-10
2.48355e-10
2.71053e-10
3.04556e-10
3.57125e-10
4.49176e-10
6.48912e-10
1.37345e-09
1.3635e-09
6.44704e-10
4.47209e-10
3.56815e-10
3.05738e-10
2.73656e-10
2.52327e-10
2.37738e-10
2.27682e-10
2.20827e-10
2.16316e-10
2.13569e-10
2.1217e-10
2.11816e-10
2.12273e-10
2.13365e-10
2.14946e-10
2.16899e-10
2.19128e-10
2.21552e-10
2.24103e-10
2.26721e-10
2.29357e-10
2.31966e-10
2.3451e-10
2.36957e-10
2.39275e-10
2.41441e-10
2.43432e-10
2.45229e-10
2.46816e-10
2.48178e-10
2.49304e-10
2.50184e-10
2.50813e-10
2.51183e-10
2.51294e-10
2.51144e-10
2.50733e-10
2.50064e-10
2.49142e-10
2.47975e-10
2.46572e-10
2.44945e-10
2.43107e-10
2.41075e-10
2.38868e-10
2.36507e-10
2.34018e-10
2.31429e-10
2.28772e-10
2.26081e-10
2.23398e-10
2.20767e-10
2.18241e-10
2.15875e-10
2.13738e-10
2.11903e-10
2.10461e-10
2.09515e-10
2.09189e-10
2.09634e-10
2.1104e-10
2.13648e-10
2.17774e-10
2.23846e-10
2.32468e-10
2.44533e-10
2.61431e-10
2.85483e-10
3.2092e-10
3.76454e-10
4.73617e-10
6.84332e-10
1.44851e-09
1.43592e-09
6.78977e-10
4.71023e-10
3.75854e-10
3.22083e-10
2.88307e-10
2.65844e-10
2.50468e-10
2.39853e-10
2.32597e-10
2.278e-10
2.24847e-10
2.23303e-10
2.22849e-10
2.2324e-10
2.24288e-10
2.25843e-10
2.27782e-10
2.30004e-10
2.32424e-10
2.34972e-10
2.37587e-10
2.40216e-10
2.42813e-10
2.4534e-10
2.47762e-10
2.5005e-10
2.52178e-10
2.54124e-10
2.55868e-10
2.57394e-10
2.58689e-10
2.59741e-10
2.60542e-10
2.61084e-10
2.61364e-10
2.61379e-10
2.61131e-10
2.60617e-10
2.59843e-10
2.58816e-10
2.57542e-10
2.56032e-10
2.54298e-10
2.52355e-10
2.5022e-10
2.47913e-10
2.45457e-10
2.42877e-10
2.40203e-10
2.37467e-10
2.34706e-10
2.31962e-10
2.29281e-10
2.26716e-10
2.24328e-10
2.22183e-10
2.20362e-10
2.18955e-10
2.1807e-10
2.17838e-10
2.18413e-10
2.19996e-10
2.22838e-10
2.27268e-10
2.33733e-10
2.42867e-10
2.55602e-10
2.73394e-10
2.98674e-10
3.35872e-10
3.9411e-10
4.95938e-10
7.16682e-10
1.51707e-09
1.50575e-09
7.12036e-10
4.94013e-10
3.94258e-10
3.37909e-10
3.02519e-10
2.78982e-10
2.62867e-10
2.51733e-10
2.4411e-10
2.39054e-10
2.3592e-10
2.34253e-10
2.33716e-10
2.34056e-10
2.35073e-10
2.36613e-10
2.38545e-10
2.40766e-10
2.43187e-10
2.45734e-10
2.48344e-10
2.50963e-10
2.53545e-10
2.56048e-10
2.58439e-10
2.60686e-10
2.62765e-10
2.64652e-10
2.66329e-10
2.67779e-10
2.6899e-10
2.69951e-10
2.70654e-10
2.71092e-10
2.71262e-10
2.71163e-10
2.70796e-10
2.7016e-10
2.69262e-10
2.68108e-10
2.66708e-10
2.65072e-10
2.63212e-10
2.61146e-10
2.5889e-10
2.56465e-10
2.53896e-10
2.51207e-10
2.4843e-10
2.45599e-10
2.4275e-10
2.39927e-10
2.37178e-10
2.34557e-10
2.32125e-10
2.29953e-10
2.28122e-10
2.26726e-10
2.25878e-10
2.2571e-10
2.26384e-10
2.28108e-10
2.31142e-10
2.35828e-10
2.42631e-10
2.52208e-10
2.6553e-10
2.84112e-10
3.10481e-10
3.49245e-10
4.09896e-10
5.15893e-10
7.45603e-10
1.57837e-09
1.57337e-09
7.44059e-10
5.16301e-10
4.12123e-10
3.53296e-10
3.16361e-10
2.91804e-10
2.74991e-10
2.63372e-10
2.55411e-10
2.5012e-10
2.46825e-10
2.45052e-10
2.44448e-10
2.44748e-10
2.45745e-10
2.47276e-10
2.49208e-10
2.5143e-10
2.53851e-10
2.56395e-10
2.58996e-10
2.61599e-10
2.64156e-10
2.66625e-10
2.68971e-10
2.71163e-10
2.73176e-10
2.74987e-10
2.76578e-10
2.77933e-10
2.79039e-10
2.79887e-10
2.80468e-10
2.80779e-10
2.80815e-10
2.80579e-10
2.80068e-10
2.79287e-10
2.78241e-10
2.76939e-10
2.7539e-10
2.73605e-10
2.71599e-10
2.69388e-10
2.66991e-10
2.64429e-10
2.61727e-10
2.58912e-10
2.56014e-10
2.53069e-10
2.50115e-10
2.47195e-10
2.4436e-10
2.41663e-10
2.39169e-10
2.36949e-10
2.35087e-10
2.33679e-10
2.3284e-10
2.32708e-10
2.33449e-10
2.35276e-10
2.38459e-10
2.43351e-10
2.50431e-10
2.6038e-10
2.74199e-10
2.93455e-10
3.20761e-10
3.60879e-10
4.23622e-10
5.3324e-10
7.70745e-10
1.63166e-09
1.63928e-09
7.75286e-10
5.38053e-10
4.29581e-10
3.68354e-10
3.29931e-10
3.04396e-10
2.86919e-10
2.74843e-10
2.66567e-10
2.6106e-10
2.57623e-10
2.55757e-10
2.55097e-10
2.55367e-10
2.56349e-10
2.57876e-10
2.59808e-10
2.62031e-10
2.6445e-10
2.66985e-10
2.6957e-10
2.72146e-10
2.74665e-10
2.77084e-10
2.79368e-10
2.81486e-10
2.83413e-10
2.85125e-10
2.86605e-10
2.87839e-10
2.88814e-10
2.8952e-10
2.89953e-10
2.90107e-10
2.89983e-10
2.89579e-10
2.88896e-10
2.87942e-10
2.86721e-10
2.85244e-10
2.83519e-10
2.81561e-10
2.79384e-10
2.77005e-10
2.74444e-10
2.71724e-10
2.68868e-10
2.65905e-10
2.62868e-10
2.5979e-10
2.56712e-10
2.53678e-10
2.50737e-10
2.47947e-10
2.45371e-10
2.43083e-10
2.41167e-10
2.39723e-10
2.38868e-10
2.38742e-10
2.39516e-10
2.41408e-10
2.44695e-10
2.49739e-10
2.57034e-10
2.67275e-10
2.81495e-10
3.01301e-10
3.29378e-10
3.70619e-10
4.35104e-10
5.47746e-10
7.91768e-10
1.67623e-09
1.70413e-09
8.06022e-10
5.59481e-10
4.46795e-10
3.83223e-10
3.4335e-10
3.16867e-10
2.98751e-10
2.86239e-10
2.77666e-10
2.71959e-10
2.68391e-10
2.66443e-10
2.65737e-10
2.65982e-10
2.66955e-10
2.6848e-10
2.70411e-10
2.72631e-10
2.75042e-10
2.7756e-10
2.80116e-10
2.82651e-10
2.85115e-10
2.87466e-10
2.89666e-10
2.91686e-10
2.93499e-10
2.95085e-10
2.96425e-10
2.97506e-10
2.98317e-10
2.9885e-10
2.991e-10
2.99064e-10
2.98744e-10
2.98137e-10
2.9725e-10
2.96089e-10
2.94661e-10
2.92976e-10
2.91046e-10
2.88885e-10
2.86509e-10
2.83935e-10
2.81185e-10
2.78281e-10
2.75249e-10
2.72117e-10
2.68918e-10
2.65687e-10
2.62465e-10
2.59297e-10
2.56232e-10
2.53329e-10
2.50651e-10
2.48273e-10
2.46282e-10
2.44778e-10
2.43879e-10
2.43729e-10
2.44501e-10
2.46418e-10
2.49762e-10
2.54903e-10
2.62343e-10
2.72795e-10
2.87311e-10
3.07533e-10
3.36203e-10
3.78317e-10
4.44167e-10
5.59188e-10
8.0835e-10
1.71139e-09
1.7687e-09
8.36633e-10
5.80834e-10
4.63966e-10
3.9807e-10
3.56766e-10
3.2935e-10
3.1061e-10
2.97674e-10
2.88816e-10
2.8292e-10
2.7923e-10
2.77209e-10
2.76461e-10
2.76687e-10
2.77652e-10
2.79175e-10
2.81104e-10
2.83316e-10
2.85709e-10
2.88199e-10
2.90712e-10
2.93189e-10
2.95578e-10
2.97836e-10
2.99926e-10
3.01818e-10
3.03487e-10
3.04912e-10
3.06076e-10
3.06967e-10
3.07575e-10
3.07895e-10
3.07922e-10
3.07657e-10
3.07098e-10
3.0625e-10
3.05119e-10
3.03712e-10
3.02039e-10
3.0011e-10
2.9794e-10
2.95542e-10
2.92933e-10
2.90134e-10
2.87165e-10
2.84049e-10
2.80814e-10
2.77488e-10
2.74104e-10
2.70698e-10
2.6731e-10
2.63986e-10
2.60777e-10
2.57739e-10
2.54938e-10
2.52449e-10
2.50359e-10
2.48769e-10
2.47799e-10
2.47593e-10
2.48327e-10
2.50227e-10
2.53579e-10
2.58757e-10
2.66271e-10
2.76845e-10
2.91547e-10
3.12043e-10
3.41115e-10
3.83835e-10
4.50646e-10
5.67357e-10
8.20185e-10
1.73648e-09
1.83388e-09
8.67541e-10
6.02404e-10
4.81322e-10
4.13088e-10
3.70347e-10
3.41998e-10
3.22635e-10
3.09281e-10
3.00142e-10
2.94063e-10
2.90258e-10
2.88169e-10
2.87386e-10
2.87595e-10
2.88555e-10
2.90074e-10
2.91997e-10
2.94194e-10
2.96561e-10
2.99008e-10
3.01462e-10
3.03859e-10
3.06149e-10
3.08286e-10
3.10235e-10
3.11965e-10
3.13452e-10
3.14676e-10
3.15622e-10
3.16279e-10
3.1664e-10
3.167e-10
3.16458e-10
3.15914e-10
3.15071e-10
3.13936e-10
3.12514e-10
3.10817e-10
3.08854e-10
3.06639e-10
3.04186e-10
3.01512e-10
2.98634e-10
2.95573e-10
2.92351e-10
2.88992e-10
2.85523e-10
2.81974e-10
2.78378e-10
2.74771e-10
2.71194e-10
2.67691e-10
2.64313e-10
2.61119e-10
2.58173e-10
2.55549e-10
2.53335e-10
2.51632e-10
2.50561e-10
2.50267e-10
2.50926e-10
2.52765e-10
2.56072e-10
2.61225e-10
2.68739e-10
2.79343e-10
2.94113e-10
3.14732e-10
3.44006e-10
3.87049e-10
4.54393e-10
5.72063e-10
8.26996e-10
1.75093e-09
1.90068e-09
8.99218e-10
6.24515e-10
4.99118e-10
4.28492e-10
3.84282e-10
3.54981e-10
3.34986e-10
3.21209e-10
3.11789e-10
3.05529e-10
3.01613e-10
2.9946e-10
2.98645e-10
2.98842e-10
2.99797e-10
3.01313e-10
3.03226e-10
3.05402e-10
3.0773e-10
3.1012e-10
3.12495e-10
3.1479e-10
3.16951e-10
3.18936e-10
3.20707e-10
3.22235e-10
3.23496e-10
3.24474e-10
3.25153e-10
3.25526e-10
3.25586e-10
3.25334e-10
3.24768e-10
3.23891e-10
3.2271e-10
3.21232e-10
3.19467e-10
3.17427e-10
3.15124e-10
3.12574e-10
3.09792e-10
3.06796e-10
3.03605e-10
3.00242e-10
2.96728e-10
2.93089e-10
2.89352e-10
2.85548e-10
2.81709e-10
2.77872e-10
2.74077e-10
2.70369e-10
2.66798e-10
2.63422e-10
2.60305e-10
2.57522e-10
2.55157e-10
2.53314e-10
2.52111e-10
2.51694e-10
2.52238e-10
2.5397e-10
2.57179e-10
2.62242e-10
2.69677e-10
2.80213e-10
2.9493e-10
3.15514e-10
3.44777e-10
3.87847e-10
4.55275e-10
5.7314e-10
8.2854e-10
1.75422e-09
1.97018e-09
9.3218e-10
6.47521e-10
5.17632e-10
4.44515e-10
3.98776e-10
3.68486e-10
3.47835e-10
3.33621e-10
3.23915e-10
3.17473e-10
3.13447e-10
3.11236e-10
3.10394e-10
3.10583e-10
3.11537e-10
3.1305e-10
3.1495e-10
3.17097e-10
3.19377e-10
3.21693e-10
3.23967e-10
3.26132e-10
3.28135e-10
3.2993e-10
3.31481e-10
3.32761e-10
3.33747e-10
3.34424e-10
3.34781e-10
3.34811e-10
3.34513e-10
3.33885e-10
3.32932e-10
3.3166e-10
3.30079e-10
3.28198e-10
3.26029e-10
3.23588e-10
3.20888e-10
3.17946e-10
3.14781e-10
3.11412e-10
3.0786e-10
3.04147e-10
3.00298e-10
2.96337e-10
2.92293e-10
2.88196e-10
2.84079e-10
2.79979e-10
2.75935e-10
2.71992e-10
2.682e-10
2.64614e-10
2.61299e-10
2.58327e-10
2.55783e-10
2.53769e-10
2.52401e-10
2.51825e-10
2.52215e-10
2.53795e-10
2.56853e-10
2.61764e-10
2.69042e-10
2.79412e-10
2.93952e-10
3.14339e-10
3.43374e-10
3.86161e-10
4.53208e-10
5.70471e-10
8.24647e-10
1.74598e-09
2.04356e-09
9.66976e-10
6.718e-10
5.3716e-10
4.61407e-10
4.14048e-10
3.82711e-10
3.61367e-10
3.46694e-10
3.3669e-10
3.30063e-10
3.25931e-10
3.23667e-10
3.22806e-10
3.22994e-10
3.23954e-10
3.25467e-10
3.27353e-10
3.29466e-10
3.31685e-10
3.33911e-10
3.36061e-10
3.38066e-10
3.39873e-10
3.41436e-10
3.4272e-10
3.43699e-10
3.44353e-10
3.44669e-10
3.44639e-10
3.4426e-10
3.43532e-10
3.4246e-10
3.4105e-10
3.39314e-10
3.37262e-10
3.34908e-10
3.32268e-10
3.29358e-10
3.26197e-10
3.22802e-10
3.19194e-10
3.15395e-10
3.11426e-10
3.07312e-10
3.03076e-10
2.98747e-10
2.94351e-10
2.89919e-10
2.85485e-10
2.81084e-10
2.76756e-10
2.72544e-10
2.68498e-10
2.64673e-10
2.61132e-10
2.57947e-10
2.55199e-10
2.52987e-10
2.51425e-10
2.50656e-10
2.50851e-10
2.52227e-10
2.55072e-10
2.59756e-10
2.66786e-10
2.76883e-10
2.91109e-10
3.11126e-10
3.39703e-10
3.81887e-10
4.48067e-10
5.63903e-10
8.15091e-10
1.72573e-09
2.12204e-09
1.00418e-09
6.97741e-10
5.58008e-10
4.79422e-10
4.30322e-10
3.97859e-10
3.75773e-10
3.60613e-10
3.50297e-10
3.43482e-10
3.39249e-10
3.36941e-10
3.36073e-10
3.36272e-10
3.37248e-10
3.38767e-10
3.40642e-10
3.42716e-10
3.44864e-10
3.4698e-10
3.48979e-10
3.50791e-10
3.5236e-10
3.53642e-10
3.54604e-10
3.55221e-10
3.55477e-10
3.55362e-10
3.54871e-10
3.54006e-10
3.52771e-10
3.51176e-10
3.49231e-10
3.4695e-10
3.4435e-10
3.41446e-10
3.3826e-10
3.34808e-10
3.31114e-10
3.27197e-10
3.23081e-10
3.18788e-10
3.14342e-10
3.09768e-10
3.05092e-10
3.00341e-10
2.95544e-10
2.90731e-10
2.85936e-10
2.81194e-10
2.76545e-10
2.72033e-10
2.67703e-10
2.63607e-10
2.59806e-10
2.56368e-10
2.53374e-10
2.5092e-10
2.4912e-10
2.4811e-10
2.4806e-10
2.49181e-10
2.51755e-10
2.56144e-10
2.62847e-10
2.72567e-10
2.86351e-10
3.05827e-10
3.33717e-10
3.74974e-10
4.39795e-10
5.53361e-10
7.99762e-10
1.69324e-09
2.20686e-09
1.04437e-09
7.25742e-10
5.80484e-10
4.98821e-10
4.47826e-10
4.14139e-10
3.9125e-10
3.75567e-10
3.64925e-10
3.57921e-10
3.53595e-10
3.51259e-10
3.50403e-10
3.50632e-10
3.51639e-10
3.53176e-10
3.55043e-10
3.57076e-10
3.59141e-10
3.61126e-10
3.62944e-10
3.64522e-10
3.65804e-10
3.66749e-10
3.67323e-10
3.67507e-10
3.67288e-10
3.6666e-10
3.65624e-10
3.64187e-10
3.62357e-10
3.60149e-10
3.5758e-10
3.54668e-10
3.51432e-10
3.47895e-10
3.44078e-10
3.40006e-10
3.35701e-10
3.31188e-10
3.26492e-10
3.21637e-10
3.16648e-10
3.11553e-10
3.06378e-10
3.0115e-10
2.95899e-10
2.90656e-10
2.85455e-10
2.8033e-10
2.75316e-10
2.70455e-10
2.65793e-10
2.61382e-10
2.57281e-10
2.53555e-10
2.50284e-10
2.47557e-10
2.45483e-10
2.44197e-10
2.4386e-10
2.44679e-10
2.46924e-10
2.50949e-10
2.57239e-10
2.6648e-10
2.79688e-10
2.98453e-10
3.25423e-10
3.65426e-10
4.28393e-10
5.38845e-10
7.78656e-10
1.64848e-09
2.29923e-09
1.08812e-09
7.56195e-10
6.04894e-10
5.19857e-10
4.66783e-10
4.31756e-10
4.07992e-10
3.9175e-10
3.80767e-10
3.73578e-10
3.69176e-10
3.66837e-10
3.66019e-10
3.66304e-10
3.67365e-10
3.68936e-10
3.70804e-10
3.72792e-10
3.74759e-10
3.76588e-10
3.78186e-10
3.79482e-10
3.80418e-10
3.80954e-10
3.81064e-10
3.80731e-10
3.79947e-10
3.78711e-10
3.77033e-10
3.74923e-10
3.72398e-10
3.69479e-10
3.66186e-10
3.62545e-10
3.5858e-10
3.54317e-10
3.49782e-10
3.45004e-10
3.40007e-10
3.3482e-10
3.29468e-10
3.2398e-10
3.18381e-10
3.127e-10
3.06964e-10
3.01201e-10
2.95442e-10
2.89717e-10
2.84056e-10
2.78493e-10
2.73067e-10
2.67816e-10
2.62786e-10
2.58025e-10
2.53588e-10
2.4954e-10
2.45954e-10
2.42917e-10
2.40534e-10
2.3893e-10
2.38262e-10
2.38729e-10
2.40588e-10
2.44182e-10
2.49977e-10
2.58636e-10
2.7114e-10
2.89023e-10
3.14847e-10
3.53274e-10
4.13897e-10
5.20398e-10
7.51835e-10
1.5916e-09
2.40036e-09
1.136e-09
7.89475e-10
6.31527e-10
5.42771e-10
4.87406e-10
4.50906e-10
4.26191e-10
4.09351e-10
3.9802e-10
3.90659e-10
3.86207e-10
3.83899e-10
3.83158e-10
3.83534e-10
3.84677e-10
3.86302e-10
3.88178e-10
3.90117e-10
3.91966e-10
3.93604e-10
3.94934e-10
3.95885e-10
3.96398e-10
3.96442e-10
3.95993e-10
3.9504e-10
3.93582e-10
3.91629e-10
3.89194e-10
3.86297e-10
3.82964e-10
3.7922e-10
3.75096e-10
3.70619e-10
3.65823e-10
3.60736e-10
3.55391e-10
3.49817e-10
3.44044e-10
3.38103e-10
3.32021e-10
3.25827e-10
3.19551e-10
3.1322e-10
3.06862e-10
3.00508e-10
2.94184e-10
2.87921e-10
2.81751e-10
2.75708e-10
2.69827e-10
2.64146e-10
2.58707e-10
2.53557e-10
2.48749e-10
2.44342e-10
2.40407e-10
2.37024e-10
2.34293e-10
2.32333e-10
2.31293e-10
2.3136e-10
2.32779e-10
2.35877e-10
2.411e-10
2.49079e-10
2.60755e-10
2.77596e-10
3.02054e-10
3.38593e-10
3.96397e-10
4.98135e-10
7.19463e-10
1.52294e-09
2.51135e-09
1.18851e-09
8.25929e-10
6.60648e-10
5.67784e-10
5.0989e-10
4.71772e-10
4.46026e-10
4.28555e-10
4.16877e-10
4.09368e-10
4.04907e-10
4.0268e-10
4.02063e-10
4.02575e-10
4.03835e-10
4.05534e-10
4.07424e-10
4.093e-10
4.11001e-10
4.12399e-10
4.13395e-10
4.13912e-10
4.1391e-10
4.13354e-10
4.12227e-10
4.10528e-10
4.08267e-10
4.05462e-10
4.02137e-10
3.98323e-10
3.94051e-10
3.89359e-10
3.84282e-10
3.78857e-10
3.7312e-10
3.67108e-10
3.60856e-10
3.54398e-10
3.47766e-10
3.40993e-10
3.34108e-10
3.27143e-10
3.20125e-10
3.13085e-10
3.06051e-10
2.99051e-10
2.92114e-10
2.85269e-10
2.78548e-10
2.71983e-10
2.65608e-10
2.59458e-10
2.53575e-10
2.48002e-10
2.42788e-10
2.37989e-10
2.33671e-10
2.29911e-10
2.26799e-10
2.24447e-10
2.22996e-10
2.22621e-10
2.23552e-10
2.26096e-10
2.30674e-10