/*--------------------------------*- C++ -*----------------------------------*\
  =========                 |
  \\      /  F ield         | OpenFOAM: The Open Source CFD Toolbox
   \\    /   O peration     | Website:  https://openfoam.org
    \\  /    A nd           | Version:  12
     \\/     M anipulation  |
\*---------------------------------------------------------------------------*/
FoamFile
{
    format      ascii;
    class       volScalarField;
    location    "9.5";
    object      k;
}
// * * * * * * * * * * * * * * * * * * * * * * * * * * * * * * * * * * * * * //

dimensions      [0 2 -2 0 0 0 0];

internalField   nonuniform List<scalar> 
5625
(
3.10198e-15
2.34307e-14
4.96703e-14
8.0998e-14
1.16295e-13
1.54716e-13
1.95645e-13
2.38608e-13
2.83216e-13
3.29134e-13
3.76061e-13
4.23721e-13
4.71854e-13
5.20216e-13
5.68574e-13
6.16702e-13
6.64386e-13
7.11416e-13
7.57594e-13
8.02725e-13
8.46624e-13
8.89112e-13
9.30019e-13
9.69181e-13
1.00644e-12
1.04166e-12
1.07469e-12
1.10541e-12
1.1337e-12
1.15945e-12
1.18255e-12
1.20292e-12
1.22047e-12
1.23515e-12
1.24687e-12
1.25561e-12
1.26132e-12
1.26398e-12
1.26357e-12
1.2601e-12
1.25355e-12
1.24396e-12
1.23135e-12
1.21577e-12
1.19726e-12
1.17591e-12
1.15177e-12
1.12494e-12
1.09552e-12
1.06361e-12
1.02933e-12
9.92823e-13
9.54217e-13
9.13667e-13
8.71332e-13
8.27382e-13
7.81998e-13
7.35368e-13
6.87691e-13
6.39175e-13
5.90037e-13
5.40506e-13
4.90818e-13
4.41224e-13
3.91989e-13
3.43392e-13
2.95734e-13
2.49341e-13
2.0458e-13
1.61871e-13
1.21728e-13
8.48113e-14
5.20207e-14
2.45424e-14
3.2491e-15
2.09712e-14
1.86667e-13
4.25486e-13
7.11166e-13
1.03137e-12
1.3787e-12
1.74797e-12
2.13515e-12
2.53688e-12
2.95022e-12
3.37253e-12
3.80133e-12
4.23433e-12
4.66934e-12
5.10426e-12
5.5371e-12
5.96592e-12
6.38885e-12
6.8041e-12
7.20993e-12
7.60468e-12
7.98673e-12
8.35457e-12
8.70672e-12
9.04179e-12
9.35848e-12
9.65552e-12
9.93178e-12
1.01862e-11
1.04177e-11
1.06255e-11
1.08087e-11
1.09666e-11
1.10986e-11
1.12041e-11
1.12828e-11
1.13342e-11
1.13582e-11
1.13545e-11
1.13233e-11
1.12644e-11
1.11782e-11
1.10648e-11
1.09247e-11
1.07584e-11
1.05664e-11
1.03494e-11
1.01081e-11
9.84359e-12
9.55668e-12
9.2485e-12
8.92021e-12
8.57307e-12
8.20844e-12
7.82775e-12
7.43253e-12
7.0244e-12
6.60505e-12
6.17626e-12
5.7399e-12
5.29792e-12
4.85236e-12
4.40536e-12
3.95914e-12
3.51608e-12
3.07866e-12
2.64955e-12
2.23166e-12
1.82818e-12
1.44277e-12
1.07978e-12
7.44802e-13
4.45712e-13
1.95564e-13
2.19707e-14
4.66131e-14
4.18033e-13
9.5909e-13
1.61083e-12
2.3443e-12
3.1417e-12
3.9905e-12
4.88103e-12
5.80533e-12
6.75651e-12
7.72836e-12
8.7152e-12
9.7117e-12
1.07128e-11
1.17138e-11
1.27099e-11
1.36967e-11
1.46701e-11
1.56257e-11
1.65597e-11
1.74682e-11
1.83475e-11
1.91941e-11
2.00046e-11
2.07758e-11
2.15048e-11
2.21886e-11
2.28246e-11
2.34103e-11
2.39434e-11
2.44219e-11
2.48439e-11
2.52077e-11
2.55118e-11
2.57551e-11
2.59366e-11
2.60554e-11
2.6111e-11
2.61031e-11
2.60318e-11
2.58969e-11
2.56989e-11
2.54386e-11
2.51166e-11
2.47343e-11
2.42927e-11
2.37937e-11
2.32388e-11
2.26302e-11
2.19701e-11
2.1261e-11
2.05055e-11
1.97066e-11
1.88674e-11
1.79911e-11
1.70813e-11
1.61417e-11
1.51762e-11
1.4189e-11
1.31842e-11
1.21665e-11
1.11404e-11
1.0111e-11
9.08338e-12
8.06298e-12
7.0556e-12
6.06742e-12
5.10522e-12
4.1765e-12
3.28995e-12
2.45602e-12
1.68816e-12
1.00536e-12
4.38252e-13
4.88681e-14
7.70424e-14
6.92065e-13
1.59114e-12
2.67788e-12
3.90432e-12
5.24039e-12
6.66466e-12
8.16045e-12
9.71403e-12
1.13135e-11
1.29483e-11
1.46087e-11
1.62856e-11
1.79705e-11
1.96552e-11
2.1332e-11
2.29932e-11
2.46318e-11
2.62407e-11
2.78133e-11
2.9343e-11
3.08236e-11
3.22493e-11
3.36144e-11
3.49134e-11
3.61412e-11
3.72932e-11
3.83647e-11
3.93516e-11
4.02501e-11
4.10567e-11
4.17682e-11
4.23817e-11
4.2895e-11
4.33058e-11
4.36124e-11
4.38137e-11
4.39086e-11
4.38965e-11
4.37777e-11
4.35517e-11
4.32196e-11
4.27823e-11
4.22413e-11
4.15984e-11
4.08559e-11
4.00163e-11
3.90827e-11
3.80584e-11
3.69473e-11
3.57536e-11
3.44816e-11
3.31363e-11
3.1723e-11
3.02472e-11
2.87149e-11
2.71322e-11
2.55059e-11
2.38428e-11
2.21501e-11
2.04356e-11
1.87071e-11
1.69729e-11
1.52419e-11
1.35233e-11
1.1827e-11
1.01635e-11
8.54442e-12
6.9828e-12
5.49356e-12
4.09475e-12
2.80943e-12
1.66968e-12
7.26316e-13
8.08559e-14
1.10834e-13
9.96217e-13
2.29253e-12
3.86229e-12
5.63692e-12
7.57307e-12
9.63952e-12
1.18118e-11
1.40697e-11
1.63957e-11
1.87741e-11
2.11905e-11
2.36316e-11
2.60848e-11
2.85383e-11
3.09805e-11
3.34005e-11
3.57878e-11
3.8132e-11
4.04235e-11
4.26529e-11
4.48109e-11
4.68891e-11
4.88791e-11
5.07731e-11
5.25636e-11
5.42436e-11
5.58066e-11
5.72465e-11
5.85577e-11
5.97351e-11
6.07739e-11
6.16703e-11
6.24204e-11
6.30214e-11
6.34707e-11
6.37664e-11
6.3907e-11
6.38919e-11
6.37211e-11
6.33941e-11
6.29122e-11
6.2277e-11
6.14904e-11
6.05552e-11
5.94746e-11
5.82523e-11
5.68928e-11
5.5401e-11
5.37823e-11
5.20429e-11
5.01893e-11
4.82286e-11
4.61684e-11
4.4017e-11
4.1783e-11
3.94755e-11
3.71041e-11
3.46791e-11
3.22111e-11
2.97112e-11
2.7191e-11
2.4663e-11
2.21399e-11
1.96354e-11
1.71641e-11
1.47416e-11
1.23852e-11
1.01141e-11
7.95023e-12
5.92026e-12
4.05778e-12
2.40911e-12
1.04701e-12
1.16486e-13
1.47065e-13
1.32225e-12
3.04427e-12
5.13171e-12
7.49416e-12
1.00743e-11
1.28306e-11
1.57304e-11
1.87466e-11
2.18553e-11
2.50355e-11
2.82679e-11
3.15343e-11
3.48179e-11
3.81025e-11
4.13727e-11
4.46138e-11
4.78115e-11
5.09521e-11
5.40225e-11
5.701e-11
5.99025e-11
6.26883e-11
6.53563e-11
6.78959e-11
7.02973e-11
7.25509e-11
7.4648e-11
7.65804e-11
7.83406e-11
7.99216e-11
8.13173e-11
8.25221e-11
8.35312e-11
8.43404e-11
8.49465e-11
8.53467e-11
8.55392e-11
8.55228e-11
8.52979e-11
8.48634e-11
8.42211e-11
8.33731e-11
8.23221e-11
8.10716e-11
7.96258e-11
7.79899e-11
7.61697e-11
7.41717e-11
7.20033e-11
6.96727e-11
6.71887e-11
6.45607e-11
6.17991e-11
5.89148e-11
5.59196e-11
5.28256e-11
4.9646e-11
4.63944e-11
4.30851e-11
3.97333e-11
3.63547e-11
3.2966e-11
2.95845e-11
2.62289e-11
2.29189e-11
1.96757e-11
1.65226e-11
1.34855e-11
1.05943e-11
7.88442e-12
5.40072e-12
3.20457e-12
1.39204e-12
1.5483e-13
1.85039e-13
1.66392e-12
3.83199e-12
6.4618e-12
9.44021e-12
1.26954e-11
1.61752e-11
1.98385e-11
2.36509e-11
2.75822e-11
3.16056e-11
3.56965e-11
3.9832e-11
4.39903e-11
4.8151e-11
5.22944e-11
5.64018e-11
6.04549e-11
6.44365e-11
6.83298e-11
7.21185e-11
7.57874e-11
7.93216e-11
8.2707e-11
8.59303e-11
8.89786e-11
9.184e-11
9.45034e-11
9.69584e-11
9.91952e-11
1.01205e-10
1.02981e-10
1.04514e-10
1.05799e-10
1.06832e-10
1.07606e-10
1.0812e-10
1.0837e-10
1.08355e-10
1.08075e-10
1.0753e-10
1.0672e-10
1.0565e-10
1.04321e-10
1.02739e-10
1.00909e-10
9.88372e-11
9.6531e-11
9.39989e-11
9.125e-11
8.82947e-11
8.51443e-11
8.18107e-11
7.83072e-11
7.46476e-11
7.08468e-11
6.69205e-11
6.28855e-11
5.8759e-11
5.45595e-11
5.03063e-11
4.60197e-11
4.17207e-11
3.7432e-11
3.31771e-11
2.89814e-11
2.4872e-11
2.08786e-11
1.70344e-11
1.33769e-11
9.95131e-12
6.81386e-12
4.04165e-12
1.75518e-12
1.95188e-13
2.24189e-13
2.01615e-12
4.64396e-12
7.83276e-12
1.1446e-11
1.5397e-11
1.96228e-11
2.40735e-11
2.87073e-11
3.34878e-11
3.83821e-11
4.33602e-11
4.83939e-11
5.3457e-11
5.85242e-11
6.35717e-11
6.85762e-11
7.35158e-11
7.83691e-11
8.31157e-11
8.77358e-11
9.22106e-11
9.6522e-11
1.00653e-10
1.04587e-10
1.08308e-10
1.11802e-10
1.15055e-10
1.18054e-10
1.20788e-10
1.23246e-10
1.25418e-10
1.27296e-10
1.28871e-10
1.30137e-10
1.3109e-10
1.31724e-10
1.32037e-10
1.32027e-10
1.31694e-10
1.31036e-10
1.30056e-10
1.28757e-10
1.27143e-10
1.25219e-10
1.22992e-10
1.2047e-10
1.17661e-10
1.14575e-10
1.11225e-10
1.07621e-10
1.03779e-10
9.97131e-11
9.54389e-11
9.09738e-11
8.6336e-11
8.15448e-11
7.66207e-11
7.1585e-11
6.64604e-11
6.12706e-11
5.60404e-11
5.07962e-11
4.55653e-11
4.0377e-11
3.52623e-11
3.02546e-11
2.53902e-11
2.07095e-11
1.62584e-11
1.20915e-11
8.27712e-12
4.90846e-12
2.13123e-12
2.36986e-13
2.64031e-13
2.37458e-12
5.4702e-12
9.22772e-12
1.34868e-11
1.81457e-11
2.31304e-11
2.83824e-11
3.38525e-11
3.94974e-11
4.52787e-11
5.11606e-11
5.711e-11
6.30955e-11
6.90874e-11
7.50572e-11
8.09776e-11
8.68224e-11
9.25663e-11
9.8185e-11
1.03655e-10
1.08954e-10
1.14061e-10
1.18955e-10
1.23616e-10
1.28027e-10
1.3217e-10
1.36028e-10
1.39587e-10
1.42832e-10
1.45751e-10
1.48332e-10
1.50564e-10
1.52439e-10
1.53949e-10
1.55087e-10
1.55849e-10
1.5623e-10
1.56228e-10
1.55844e-10
1.55074e-10
1.53923e-10
1.52393e-10
1.5049e-10
1.48219e-10
1.45588e-10
1.42606e-10
1.39284e-10
1.35634e-10
1.31668e-10
1.27403e-10
1.22853e-10
1.18037e-10
1.12974e-10
1.07685e-10
1.02189e-10
9.65123e-11
9.06772e-11
8.471e-11
7.86375e-11
7.24882e-11
6.62916e-11
6.00792e-11
5.38837e-11
4.77399e-11
4.16847e-11
3.57579e-11
3.00025e-11
2.44664e-11
1.92039e-11
1.42793e-11
9.77295e-12
5.7946e-12
2.51569e-12
2.7972e-13
3.04146e-13
2.73547e-12
6.30203e-12
1.0632e-11
1.55411e-11
2.09125e-11
2.66611e-11
3.27196e-11
3.90313e-11
4.55467e-11
5.2221e-11
5.90131e-11
6.58849e-11
7.27999e-11
7.97238e-11
8.66235e-11
9.34676e-11
1.00226e-10
1.06868e-10
1.13367e-10
1.19696e-10
1.25828e-10
1.31739e-10
1.37404e-10
1.42802e-10
1.47911e-10
1.52711e-10
1.57182e-10
1.61308e-10
1.65072e-10
1.6846e-10
1.71456e-10
1.74051e-10
1.76232e-10
1.77991e-10
1.79321e-10
1.80214e-10
1.80667e-10
1.80677e-10
1.80245e-10
1.79367e-10
1.78045e-10
1.76286e-10
1.74093e-10
1.71474e-10
1.68437e-10
1.64993e-10
1.61155e-10
1.56934e-10
1.52349e-10
1.47414e-10
1.4215e-10
1.36577e-10
1.30716e-10
1.24592e-10
1.1823e-10
1.11656e-10
1.04899e-10
9.79885e-11
9.09565e-11
8.38358e-11
7.6661e-11
6.94685e-11
6.22967e-11
5.5186e-11
4.81793e-11
4.13227e-11
3.46663e-11
2.82651e-11
2.21821e-11
1.64913e-11
1.12854e-11
6.69064e-12
2.90446e-12
3.22934e-13
3.44169e-13
3.0955e-12
7.13187e-12
1.20329e-11
1.75903e-11
2.36721e-11
3.01824e-11
3.70451e-11
4.4196e-11
5.15792e-11
5.9144e-11
6.6844e-11
7.46356e-11
8.24778e-11
9.03314e-11
9.81592e-11
1.05925e-10
1.13595e-10
1.21135e-10
1.28513e-10
1.357e-10
1.42664e-10
1.49378e-10
1.55816e-10
1.6195e-10
1.67758e-10
1.73216e-10
1.78302e-10
1.82997e-10
1.87282e-10
1.91139e-10
1.94555e-10
1.97513e-10
2.00004e-10
2.02015e-10
2.03539e-10
2.04568e-10
2.05097e-10
2.05122e-10
2.04646e-10
2.03661e-10
2.02174e-10
2.00187e-10
1.97708e-10
1.94743e-10
1.91303e-10
1.874e-10
1.83046e-10
1.78258e-10
1.73053e-10
1.67451e-10
1.61473e-10
1.55142e-10
1.48483e-10
1.41524e-10
1.34294e-10
1.26822e-10
1.19142e-10
1.11287e-10
1.03294e-10
9.51997e-11
8.70449e-11
7.88707e-11
7.07209e-11
6.26417e-11
5.46821e-11
4.68945e-11
3.93357e-11
3.20684e-11
2.51639e-11
1.87061e-11
1.27998e-11
7.58779e-12
3.29373e-12
3.66203e-13
3.8378e-13
3.45184e-12
7.95312e-12
1.34191e-11
1.96179e-11
2.64026e-11
3.36662e-11
4.13241e-11
4.93049e-11
5.75461e-11
6.59914e-11
7.45888e-11
8.32899e-11
9.20487e-11
1.00822e-10
1.09567e-10
1.18244e-10
1.26815e-10
1.35243e-10
1.43491e-10
1.51526e-10
1.59314e-10
1.66823e-10
1.74025e-10
1.80889e-10
1.87388e-10
1.93498e-10
1.99194e-10
2.04453e-10
2.09255e-10
2.1358e-10
2.17411e-10
2.20733e-10
2.23531e-10
2.25795e-10
2.27514e-10
2.2868e-10
2.29286e-10
2.2933e-10
2.28812e-10
2.27726e-10
2.26076e-10
2.23868e-10
2.21108e-10
2.17804e-10
2.13967e-10
2.0961e-10
2.04749e-10
1.994e-10
1.93583e-10
1.8732e-10
1.80636e-10
1.73555e-10
1.66106e-10
1.5832e-10
1.50229e-10
1.41867e-10
1.33271e-10
1.24479e-10
1.15532e-10
1.06473e-10
9.73461e-11
8.81979e-11
7.90779e-11
7.00378e-11
6.11327e-11
5.24214e-11
4.39675e-11
3.58411e-11
2.81217e-11
2.0903e-11
1.43019e-11
8.47775e-12
3.67987e-12
4.09127e-13
4.2271e-13
3.80202e-12
8.76016e-12
1.47813e-11
2.16102e-11
2.90851e-11
3.70885e-11
4.5527e-11
5.43224e-11
6.34056e-11
7.27147e-11
8.21925e-11
9.17855e-11
1.01443e-10
1.11117e-10
1.20762e-10
1.30333e-10
1.39788e-10
1.49085e-10
1.58186e-10
1.67051e-10
1.75646e-10
1.83936e-10
1.91885e-10
1.99464e-10
2.06643e-10
2.13392e-10
2.19685e-10
2.25497e-10
2.30806e-10
2.3559e-10
2.3983e-10
2.43508e-10
2.4661e-10
2.49123e-10
2.51034e-10
2.52336e-10
2.5302e-10
2.53084e-10
2.52527e-10
2.51344e-10
2.49537e-10
2.47114e-10
2.4408e-10
2.40445e-10
2.36221e-10
2.31422e-10
2.26064e-10
2.20166e-10
2.13751e-10
2.06841e-10
1.99463e-10
1.91647e-10
1.83423e-10
1.74825e-10
1.65889e-10
1.56653e-10
1.47158e-10
1.37446e-10
1.27563e-10
1.17555e-10
1.07472e-10
9.73663e-11
8.72925e-11
7.73079e-11
6.74734e-11
5.78541e-11
4.85203e-11
3.95493e-11
3.1029e-11
2.30624e-11
1.57785e-11
9.35252e-12
4.05943e-12
4.51318e-13
4.60733e-13
4.14404e-12
9.54833e-12
1.61115e-11
2.35555e-11
3.1704e-11
4.04292e-11
4.96292e-11
5.92188e-11
6.91228e-11
7.92736e-11
8.9609e-11
1.00071e-10
1.10603e-10
1.21154e-10
1.31674e-10
1.42114e-10
1.52427e-10
1.62569e-10
1.72498e-10
1.82171e-10
1.9155e-10
2.00595e-10
2.09271e-10
2.17544e-10
2.2538e-10
2.32748e-10
2.39621e-10
2.45969e-10
2.5177e-10
2.56998e-10
2.61634e-10
2.65659e-10
2.69055e-10
2.71808e-10
2.73907e-10
2.7534e-10
2.76101e-10
2.76184e-10
2.75591e-10
2.74313e-10
2.72355e-10
2.69724e-10
2.66426e-10
2.62471e-10
2.57871e-10
2.52643e-10
2.46803e-10
2.40374e-10
2.33377e-10
2.25839e-10
2.17789e-10
2.09258e-10
2.00281e-10
1.90894e-10
1.81137e-10
1.7105e-10
1.6068e-10
1.50073e-10
1.39277e-10
1.28346e-10
1.17333e-10
1.06295e-10
9.52923e-11
8.43879e-11
7.36483e-11
6.31448e-11
5.2954e-11
4.31606e-11
3.38602e-11
2.51653e-11
1.72163e-11
1.02044e-11
4.42905e-12
4.92405e-13
4.97675e-13
4.47631e-12
1.0314e-11
1.74037e-11
2.54448e-11
3.42472e-11
4.36727e-11
5.36113e-11
6.39708e-11
7.46701e-11
8.56361e-11
9.68014e-11
1.08103e-10
1.19482e-10
1.3088e-10
1.42244e-10
1.53522e-10
1.64664e-10
1.7562e-10
1.86346e-10
1.96796e-10
2.06927e-10
2.16699e-10
2.26073e-10
2.3501e-10
2.43477e-10
2.51439e-10
2.58866e-10
2.65728e-10
2.71998e-10
2.77651e-10
2.82665e-10
2.87019e-10
2.90695e-10
2.93677e-10
2.95953e-10
2.97511e-10
2.98343e-10
2.98443e-10
2.97813e-10
2.96444e-10
2.9434e-10
2.91508e-10
2.87954e-10
2.83691e-10
2.78731e-10
2.7309e-10
2.66787e-10
2.59846e-10
2.5229e-10
2.44148e-10
2.35451e-10
2.26233e-10
2.16531e-10
2.06384e-10
1.95836e-10
1.84931e-10
1.73718e-10
1.62247e-10
1.50573e-10
1.38751e-10
1.26841e-10
1.14905e-10
1.03007e-10
9.12153e-11
7.9603e-11
6.82467e-11
5.72295e-11
4.66429e-11
3.65903e-11
2.71931e-11
1.86028e-11
1.10258e-11
4.78545e-12
5.32022e-13
5.33411e-13
4.79774e-12
1.10546e-11
1.86533e-11
2.72717e-11
3.6706e-11
4.68077e-11
5.74592e-11
6.85614e-11
8.00273e-11
9.17785e-11
1.03743e-10
1.15852e-10
1.28043e-10
1.40255e-10
1.52429e-10
1.64509e-10
1.76443e-10
1.88177e-10
1.99663e-10
2.10854e-10
2.21702e-10
2.32164e-10
2.42199e-10
2.51767e-10
2.60831e-10
2.69354e-10
2.77303e-10
2.84648e-10
2.9136e-10
2.97411e-10
3.02779e-10
3.07441e-10
3.11377e-10
3.14572e-10
3.17011e-10
3.18682e-10
3.19577e-10
3.19688e-10
3.19019e-10
3.17559e-10
3.15312e-10
3.12285e-10
3.08487e-10
3.03928e-10
2.98622e-10
2.92587e-10
2.85842e-10
2.78413e-10
2.70324e-10
2.61606e-10
2.52293e-10
2.4242e-10
2.32027e-10
2.21157e-10
2.09855e-10
1.9817e-10
1.86154e-10
1.73861e-10
1.61349e-10
1.48678e-10
1.35913e-10
1.23119e-10
1.10367e-10
9.77291e-11
8.5284e-11
7.3114e-11
6.13084e-11
4.99651e-11
3.91947e-11
2.91275e-11
1.99254e-11
1.18093e-11
5.12542e-12
5.69813e-13
5.67871e-13
5.10767e-12
1.17687e-11
1.9858e-11
2.90326e-11
3.90752e-11
4.98278e-11
6.11649e-11
7.29806e-11
8.51824e-11
9.76864e-11
1.10416e-10
1.23298e-10
1.36265e-10
1.49252e-10
1.62197e-10
1.75041e-10
1.87725e-10
2.00197e-10
2.12402e-10
2.2429e-10
2.35813e-10
2.46924e-10
2.57579e-10
2.67736e-10
2.77355e-10
2.864e-10
2.94834e-10
3.02626e-10
3.09744e-10
3.16161e-10
3.21852e-10
3.26793e-10
3.30965e-10
3.34349e-10
3.36932e-10
3.387e-10
3.39644e-10
3.39758e-10
3.39044e-10
3.3749e-10
3.35102e-10
3.31887e-10
3.27852e-10
3.2301e-10
3.17375e-10
3.10965e-10
3.03802e-10
2.95911e-10
2.87319e-10
2.78058e-10
2.68164e-10
2.57674e-10
2.4663e-10
2.35078e-10
2.23066e-10
2.10646e-10
1.97873e-10
1.84806e-10
1.71504e-10
1.58034e-10
1.44463e-10
1.30861e-10
1.17304e-10
1.03869e-10
9.06388e-11
7.77019e-11
6.5153e-11
5.30963e-11
4.16494e-11
3.09505e-11
2.11718e-11
1.25477e-11
5.44579e-12
6.05426e-13
6.0104e-13
5.40598e-12
1.24559e-11
2.10172e-11
3.07266e-11
4.13538e-11
5.27314e-11
6.4726e-11
7.72254e-11
9.01313e-11
1.03355e-10
1.16814e-10
1.30432e-10
1.44136e-10
1.57859e-10
1.71533e-10
1.85097e-10
1.98489e-10
2.11652e-10
2.2453e-10
2.37069e-10
2.49219e-10
2.60931e-10
2.72158e-10
2.82857e-10
2.92986e-10
3.02505e-10
3.11379e-10
3.19573e-10
3.27056e-10
3.33799e-10
3.39775e-10
3.44961e-10
3.49336e-10
3.52881e-10
3.55582e-10
3.57425e-10
3.58401e-10
3.58503e-10
3.57735e-10
3.56082e-10
3.53552e-10
3.50151e-10
3.45888e-10
3.40774e-10
3.34827e-10
3.28063e-10
3.20506e-10
3.12182e-10
3.03119e-10
2.93351e-10
2.82914e-10
2.71849e-10
2.602e-10
2.48015e-10
2.35343e-10
2.2224e-10
2.08765e-10
1.94977e-10
1.80943e-10
1.6673e-10
1.5241e-10
1.38057e-10
1.23752e-10
1.09575e-10
9.56156e-11
8.19658e-11
6.87259e-11
5.60061e-11
4.39304e-11
3.26446e-11
2.233e-11
1.32338e-11
5.74346e-12
6.38513e-13
6.32964e-13
5.69307e-12
1.31172e-11
2.21324e-11
3.23559e-11
4.35446e-11
5.55217e-11
6.81465e-11
8.13002e-11
9.48788e-11
1.08788e-10
1.22941e-10
1.37258e-10
1.5166e-10
1.66077e-10
1.80437e-10
1.94676e-10
2.08728e-10
2.22534e-10
2.36034e-10
2.49173e-10
2.61898e-10
2.74158e-10
2.85903e-10
2.9709e-10
3.07674e-10
3.17616e-10
3.26877e-10
3.35423e-10
3.43221e-10
3.50241e-10
3.56458e-10
3.61846e-10
3.66384e-10
3.70055e-10
3.72842e-10
3.74732e-10
3.75716e-10
3.75787e-10
3.7495e-10
3.73188e-10
3.70511e-10
3.66925e-10
3.62439e-10
3.57065e-10
3.50821e-10
3.43724e-10
3.35799e-10
3.27071e-10
3.17572e-10
3.07336e-10
2.96401e-10
2.84808e-10
2.72604e-10
2.59837e-10
2.46562e-10
2.32835e-10
2.18717e-10
2.04272e-10
1.89567e-10
1.74675e-10
1.59671e-10
1.44633e-10
1.29644e-10
1.1479e-10
1.00163e-10
8.58619e-11
7.19906e-11
5.86648e-11
4.60144e-11
3.41922e-11
2.3388e-11
1.38605e-11
6.01534e-12
6.68735e-13
6.63746e-13
5.96988e-12
1.37547e-11
2.32073e-11
3.39256e-11
4.56545e-11
5.82076e-11
7.14367e-11
8.52169e-11
9.9438e-11
1.14001e-10
1.28814e-10
1.43791e-10
1.58852e-10
1.73921e-10
1.88923e-10
2.03789e-10
2.18453e-10
2.32851e-10
2.4692e-10
2.60604e-10
2.73847e-10
2.86595e-10
2.988e-10
3.10414e-10
3.21394e-10
3.31697e-10
3.41286e-10
3.50124e-10
3.5818e-10
3.65423e-10
3.71827e-10
3.77367e-10
3.82022e-10
3.85773e-10
3.88607e-10
3.90509e-10
3.91471e-10
3.91486e-10
3.9056e-10
3.88674e-10
3.85841e-10
3.82067e-10
3.7736e-10
3.71735e-10
3.65208e-10
3.57799e-10
3.49531e-10
3.40432e-10
3.30534e-10
3.19871e-10
3.08483e-10
2.96413e-10
2.83708e-10
2.7042e-10
2.56602e-10
2.42315e-10
2.27621e-10
2.12587e-10
1.97283e-10
1.81784e-10
1.66168e-10
1.50516e-10
1.34915e-10
1.19455e-10
1.04232e-10
8.93473e-11
7.49109e-11
6.10428e-11
4.78783e-11
3.55762e-11
2.4334e-11
1.44209e-11
6.25843e-12
6.95755e-13
6.93551e-13
6.23788e-12
1.43718e-11
2.42475e-11
3.54442e-11
4.76945e-11
6.08029e-11
7.46136e-11
8.89951e-11
1.03831e-10
1.19018e-10
1.34458e-10
1.50061e-10
1.65742e-10
1.81421e-10
1.97021e-10
2.12468e-10
2.27693e-10
2.42628e-10
2.57211e-10
2.71381e-10
2.8508e-10
2.98255e-10
3.10854e-10
3.22829e-10
3.34137e-10
3.44734e-10
3.54583e-10
3.63647e-10
3.71895e-10
3.79296e-10
3.85825e-10
3.91458e-10
3.96173e-10
3.99954e-10
4.02787e-10
4.04658e-10
4.0556e-10
4.05487e-10
4.04445e-10
4.02416e-10
3.99413e-10
3.95443e-10
3.90516e-10
3.84645e-10
3.77848e-10
3.70145e-10
3.6156e-10
3.52122e-10
3.41862e-10
3.30816e-10
3.19025e-10
3.06532e-10
2.93385e-10
2.79638e-10
2.65345e-10
2.50568e-10
2.35372e-10
2.19824e-10
2.03998e-10
1.8797e-10
1.71821e-10
1.55635e-10
1.39501e-10
1.23514e-10
1.07772e-10
9.23797e-11
7.74515e-11
6.31114e-11
4.94995e-11
3.67798e-11
2.51567e-11
1.49081e-11
6.46978e-12
7.19246e-13
7.22605e-13
6.49912e-12
1.49732e-11
2.5261e-11
3.69231e-11
4.968e-11
6.33269e-11
7.77004e-11
9.2662e-11
1.0809e-10
1.23873e-10
1.39911e-10
1.56107e-10
1.72373e-10
1.88623e-10
2.04776e-10
2.20757e-10
2.36491e-10
2.5191e-10
2.66948e-10
2.81541e-10
2.95632e-10
3.09165e-10
3.22088e-10
3.34352e-10
3.45914e-10
3.5673e-10
3.66763e-10
3.75978e-10
3.84343e-10
3.9183e-10
3.98413e-10
4.0407e-10
4.08781e-10
4.12531e-10
4.15306e-10
4.17095e-10
4.17891e-10
4.17692e-10
4.16499e-10
4.14301e-10
4.11109e-10
4.06931e-10
4.01779e-10
3.95665e-10
3.88608e-10
3.80629e-10
3.71752e-10
3.62006e-10
3.51423e-10
3.4004e-10
3.27897e-10
3.15038e-10
3.01512e-10
2.87373e-10
2.72677e-10
2.57486e-10
2.41866e-10
2.25886e-10
2.09621e-10
1.9315e-10
1.76554e-10
1.59921e-10
1.43341e-10
1.26912e-10
1.10735e-10
9.49182e-11
7.95781e-11
6.48427e-11
5.08561e-11
3.77869e-11
2.58449e-11
1.53156e-11
6.64654e-12
7.38893e-13
7.51192e-13
6.75614e-12
1.55649e-11
2.62576e-11
3.83767e-11
5.16302e-11
6.5804e-11
8.07266e-11
9.62523e-11
1.12253e-10
1.28612e-10
1.45222e-10
1.61983e-10
1.788e-10
1.95583e-10
2.12249e-10
2.28717e-10
2.4491e-10
2.60757e-10
2.76188e-10
2.91141e-10
3.05555e-10
3.19373e-10
3.32544e-10
3.45019e-10
3.56753e-10
3.67705e-10
3.77839e-10
3.8712e-10
3.95519e-10
4.03009e-10
4.09566e-10
4.1517e-10
4.19803e-10
4.23451e-10
4.26104e-10
4.27751e-10
4.28388e-10
4.28014e-10
4.2663e-10
4.24229e-10
4.20823e-10
4.1642e-10
4.11033e-10
4.04675e-10
3.97366e-10
3.89125e-10
3.7998e-10
3.69958e-10
3.59091e-10
3.47417e-10
3.34975e-10
3.2181e-10
3.07971e-10
2.93512e-10
2.78489e-10
2.62964e-10
2.47005e-10
2.30681e-10
2.14068e-10
1.97244e-10
1.80295e-10
1.63308e-10
1.46376e-10
1.29597e-10
1.13076e-10
9.69235e-11
8.12578e-11
6.621e-11
5.19272e-11
3.85818e-11
2.6388e-11
1.56372e-11
6.78598e-12
7.5439e-13
7.79654e-13
7.01202e-12
1.61537e-11
2.72493e-11
3.98223e-11
5.35684e-11
6.82635e-11
8.37277e-11
9.98078e-11
1.16369e-10
1.33287e-10
1.5045e-10
1.67751e-10
1.8509e-10
2.02374e-10
2.19513e-10
2.36423e-10
2.53025e-10
2.69243e-10
2.85007e-10
3.00252e-10
3.14916e-10
3.28942e-10
3.42279e-10
3.54879e-10
3.66698e-10
3.77696e-10
3.87838e-10
3.97093e-10
4.05433e-10
4.12834e-10
4.19275e-10
4.24738e-10
4.29209e-10
4.32677e-10
4.35132e-10
4.36568e-10
4.36983e-10
4.36381e-10
4.34757e-10
4.32113e-10
4.28461e-10
4.23811e-10
4.18174e-10
4.11567e-10
4.04009e-10
3.95521e-10
3.86129e-10
3.75861e-10
3.64749e-10
3.52831e-10
3.40145e-10
3.26736e-10
3.12653e-10
2.97948e-10
2.82678e-10
2.66906e-10
2.50696e-10
2.34121e-10
2.17255e-10
2.00178e-10
1.82974e-10
1.65733e-10
1.48548e-10
1.31519e-10
1.14752e-10
9.83586e-11
8.24596e-11
6.7188e-11
5.26931e-11
3.915e-11
2.67761e-11
1.58668e-11
6.88554e-12
7.65453e-13
8.08386e-13
7.27033e-12
1.67481e-11
2.82497e-11
4.128e-11
5.55214e-11
7.07393e-11
8.67448e-11
1.03377e-10
1.20492e-10
1.37961e-10
1.55663e-10
1.73486e-10
1.91324e-10
2.09078e-10
2.26654e-10
2.43963e-10
2.60923e-10
2.77457e-10
2.9349e-10
3.08957e-10
3.23796e-10
3.37949e-10
3.51365e-10
3.63998e-10
3.75805e-10
3.86751e-10
3.96801e-10
4.05928e-10
4.14107e-10
4.21317e-10
4.27542e-10
4.32768e-10
4.36984e-10
4.40181e-10
4.42355e-10
4.43503e-10
4.43625e-10
4.42731e-10
4.40812e-10
4.37879e-10
4.33943e-10
4.29016e-10
4.23112e-10
4.16247e-10
4.0844e-10
3.99714e-10
3.90095e-10
3.7961e-10
3.68292e-10
3.56177e-10
3.43302e-10
3.29713e-10
3.15456e-10
3.00584e-10
2.85151e-10
2.6922e-10
2.52855e-10
2.36126e-10
2.19108e-10
2.0188e-10
1.84527e-10
1.67138e-10
1.49806e-10
1.32632e-10
1.15722e-10
9.91891e-11
8.31549e-11
6.77534e-11
5.31357e-11
3.94781e-11
2.69999e-11
1.59991e-11
6.94287e-12
7.71823e-13
8.37831e-13
7.53502e-12
1.7357e-11
2.92744e-11
4.27723e-11
5.75191e-11
7.32692e-11
8.9824e-11
1.07013e-10
1.24685e-10
1.42703e-10
1.60937e-10
1.7927e-10
1.97588e-10
2.15787e-10
2.33767e-10
2.51436e-10
2.68706e-10
2.85498e-10
3.01736e-10
3.17353e-10
3.32286e-10
3.46479e-10
3.59881e-10
3.72449e-10
3.84142e-10
3.94927e-10
4.04776e-10
4.13663e-10
4.2157e-10
4.28479e-10
4.34379e-10
4.3926e-10
4.43117e-10
4.45946e-10
4.47747e-10
4.48521e-10
4.48274e-10
4.47013e-10
4.44738e-10
4.41463e-10
4.372e-10
4.31963e-10
4.25767e-10
4.18631e-10
4.10573e-10
4.01617e-10
3.91788e-10
3.81115e-10
3.69628e-10
3.57362e-10
3.44356e-10
3.30651e-10
3.16293e-10
3.01333e-10
2.85825e-10
2.69827e-10
2.53404e-10
2.36624e-10
2.1956e-10
2.0229e-10
1.84898e-10
1.67471e-10
1.50104e-10
1.32895e-10
1.15951e-10
9.93847e-11
8.33181e-11
6.78858e-11
5.32387e-11
3.9554e-11
2.70514e-11
1.60294e-11
6.95593e-12
7.73271e-13
8.68469e-13
7.81045e-12
1.79905e-11
3.03402e-11
4.43235e-11
5.95943e-11
7.58947e-11
9.30154e-11
1.10776e-10
1.29016e-10
1.47588e-10
1.66356e-10
1.85193e-10
2.03979e-10
2.22602e-10
2.40957e-10
2.58947e-10
2.7648e-10
2.93473e-10
3.0985e-10
3.25541e-10
3.40484e-10
3.54624e-10
3.67913e-10
3.80309e-10
3.91777e-10
4.02287e-10
4.11815e-10
4.20342e-10
4.27854e-10
4.34342e-10
4.39798e-10
4.4422e-10
4.47607e-10
4.49962e-10
4.51288e-10
4.51594e-10
4.50892e-10
4.49186e-10
4.46488e-10
4.42813e-10
4.38175e-10
4.3259e-10
4.26076e-10
4.18652e-10
4.10341e-10
4.01163e-10
3.91145e-10
3.80314e-10
3.68699e-10
3.56334e-10
3.43255e-10
3.29502e-10
3.1512e-10
3.00155e-10
2.8466e-10
2.68692e-10
2.52312e-10
2.35585e-10
2.18582e-10
2.01381e-10
1.84062e-10
1.66711e-10
1.49421e-10
1.32289e-10
1.15422e-10
9.89305e-11
8.29366e-11
6.75741e-11
5.29934e-11
3.9371e-11
2.69256e-11
1.59545e-11
6.92332e-12
7.6964e-13
9.00817e-13
8.10124e-12
1.86593e-11
3.1465e-11
4.59599e-11
6.17819e-11
7.86599e-11
9.63725e-11
1.14728e-10
1.33556e-10
1.52698e-10
1.72008e-10
1.9135e-10
2.10597e-10
2.29629e-10
2.48333e-10
2.66607e-10
2.84356e-10
3.01493e-10
3.17939e-10
3.33624e-10
3.48488e-10
3.62476e-10
3.75545e-10
3.87655e-10
3.98777e-10
4.08886e-10
4.17965e-10
4.26002e-10
4.3299e-10
4.38926e-10
4.43811e-10
4.47648e-10
4.50444e-10
4.52208e-10
4.52954e-10
4.52696e-10
4.51446e-10
4.49217e-10
4.46026e-10
4.41891e-10
4.3683e-10
4.30862e-10
4.24005e-10
4.1628e-10
4.07707e-10
3.98311e-10
3.88115e-10
3.77148e-10
3.65438e-10
3.53016e-10
3.39918e-10
3.26181e-10
3.11845e-10
2.96957e-10
2.81565e-10
2.65722e-10
2.49486e-10
2.3292e-10
2.16092e-10
1.99075e-10
1.81946e-10
1.64791e-10
1.47698e-10
1.30764e-10
1.14091e-10
9.779e-11
8.19805e-11
6.67948e-11
5.23819e-11
3.89162e-11
2.66142e-11
1.57698e-11
6.84306e-12
7.60715e-13
9.35411e-13
8.41224e-12
1.93744e-11
3.26674e-11
4.77086e-11
6.41182e-11
8.16105e-11
9.99507e-11
1.18935e-10
1.38379e-10
1.58114e-10
1.77983e-10
1.9784e-10
2.17546e-10
2.36974e-10
2.56004e-10
2.74528e-10
2.92444e-10
3.09663e-10
3.26105e-10
3.417e-10
3.56388e-10
3.70118e-10
3.8285e-10
3.9455e-10
4.05196e-10
4.1477e-10
4.23262e-10
4.30669e-10
4.36992e-10
4.42238e-10
4.46414e-10
4.49532e-10
4.51612e-10
4.52671e-10
4.52727e-10
4.51798e-10
4.49906e-10
4.47069e-10
4.43311e-10
4.38651e-10
4.3311e-10
4.26711e-10
4.19475e-10
4.11423e-10
4.02579e-10
3.92966e-10
3.82609e-10
3.71533e-10
3.59765e-10
3.47336e-10
3.34277e-10
3.20623e-10
3.06412e-10
2.91686e-10
2.76489e-10
2.60871e-10
2.44886e-10
2.28592e-10
2.12054e-10
1.9534e-10
1.78524e-10
1.61687e-10
1.44914e-10
1.28299e-10
1.11942e-10
9.59486e-11
8.04378e-11
6.55384e-11
5.13968e-11
3.81843e-11
2.61135e-11
1.5473e-11
6.71422e-12
7.4639e-13
9.72798e-13
8.74834e-12
2.01472e-11
3.39666e-11
4.95973e-11
6.66402e-11
8.47932e-11
1.03806e-10
1.23461e-10
1.4356e-10
1.6392e-10
1.84372e-10
2.04758e-10
2.24927e-10
2.44743e-10
2.64077e-10
2.82813e-10
3.00846e-10
3.18082e-10
3.34441e-10
3.49853e-10
3.64259e-10
3.77615e-10
3.89883e-10
4.01039e-10
4.11067e-10
4.19959e-10
4.27716e-10
4.34343e-10
4.39852e-10
4.44257e-10
4.47582e-10
4.4985e-10
4.51084e-10
4.51312e-10
4.50561e-10
4.48857e-10
4.46227e-10
4.42698e-10
4.38296e-10
4.33047e-10
4.26977e-10
4.20108e-10
4.12466e-10
4.04074e-10
3.94955e-10
3.85133e-10
3.74631e-10
3.63474e-10
3.51688e-10
3.393e-10
3.26339e-10
3.12837e-10
2.98827e-10
2.84348e-10
2.69439e-10
2.54146e-10
2.38517e-10
2.22606e-10
2.06472e-10
1.90179e-10
1.73797e-10
1.574e-10
1.4107e-10
1.24897e-10
1.08974e-10
9.34074e-11
7.83091e-11
6.38054e-11
5.00384e-11
3.71754e-11
2.54236e-11
1.50641e-11
6.53677e-12
7.26662e-13
1.01352e-12
9.11444e-12
2.09888e-11
3.53813e-11
5.16533e-11
6.93844e-11
8.82538e-11
1.07995e-10
1.28372e-10
1.49172e-10
1.70198e-10
1.91264e-10
2.12197e-10
2.32837e-10
2.53032e-10
2.72647e-10
2.91557e-10
3.09651e-10
3.26833e-10
3.4302e-10
3.58145e-10
3.72153e-10
3.85003e-10
3.96668e-10
4.07131e-10
4.16387e-10
4.24439e-10
4.31299e-10
4.36985e-10
4.41519e-10
4.44934e-10
4.47263e-10
4.48533e-10
4.48789e-10
4.48063e-10
4.4639e-10
4.43807e-10
4.40348e-10
4.36046e-10
4.30932e-10
4.25038e-10
4.18392e-10
4.11022e-10
4.02952e-10
3.94209e-10
3.84816e-10
3.74795e-10
3.64171e-10
3.52967e-10
3.41205e-10
3.2891e-10
3.16109e-10
3.02828e-10
2.89099e-10
2.74952e-10
2.60424e-10
2.45555e-10
2.30388e-10
2.14971e-10
1.99356e-10
1.83602e-10
1.67773e-10
1.51938e-10
1.36174e-10
1.20563e-10
1.05196e-10
9.01717e-11
7.55993e-11
6.15996e-11
4.83101e-11
3.58921e-11
2.45463e-11
1.45444e-11
6.31121e-12
7.01588e-13
1.0581e-12
9.5152e-12
2.19102e-11
3.69297e-11
5.39031e-11
7.23858e-11
9.20367e-11
1.12569e-10
1.3373e-10
1.55286e-10
1.77023e-10
1.98739e-10
2.20244e-10
2.41361e-10
2.61928e-10
2.81797e-10
3.00835e-10
3.18926e-10
3.35969e-10
3.51884e-10
3.66603e-10
3.80079e-10
3.92279e-10
4.03184e-10
4.12789e-10
4.21103e-10
4.28142e-10
4.33932e-10
4.38503e-10
4.41901e-10
4.44166e-10
4.45336e-10
4.45473e-10
4.44617e-10
4.42815e-10
4.40112e-10
4.36553e-10
4.3218e-10
4.27033e-10
4.21148e-10
4.14562e-10
4.07306e-10
3.99411e-10
3.90902e-10
3.81808e-10
3.7215e-10
3.61953e-10
3.51238e-10
3.40025e-10
3.28336e-10
3.16192e-10
3.03616e-10
2.90631e-10
2.77261e-10
2.63535e-10
2.49482e-10
2.35137e-10
2.20536e-10
2.05722e-10
1.90739e-10
1.75641e-10
1.60483e-10
1.45329e-10
1.30249e-10
1.1532e-10
1.00625e-10
8.62587e-11
7.2323e-11
5.89335e-11
4.62215e-11
3.43418e-11
2.34867e-11
1.39168e-11
6.03892e-12
6.7132e-13
1.10702e-12
9.95494e-12
2.29211e-11
3.86285e-11
5.63709e-11
7.5677e-11
9.61821e-11
1.17578e-10
1.3959e-10
1.61964e-10
1.84464e-10
2.06869e-10
2.28968e-10
2.5057e-10
2.71496e-10
2.91585e-10
3.10695e-10
3.28704e-10
3.4551e-10
3.61032e-10
3.75208e-10
3.87999e-10
3.99381e-10
4.09349e-10
4.17913e-10
4.25097e-10
4.30934e-10
4.35465e-10
4.38746e-10
4.40831e-10
4.41768e-10
4.41643e-10
4.40501e-10
4.38404e-10
4.35411e-10
4.31576e-10
4.26955e-10
4.21596e-10
4.15546e-10
4.08847e-10
4.01538e-10
3.93653e-10
3.85225e-10
3.76283e-10
3.66852e-10
3.56956e-10
3.46615e-10
3.35851e-10
3.24681e-10
3.13124e-10
3.01197e-10
2.88918e-10
2.76305e-10
2.63381e-10
2.50165e-10
2.36682e-10
2.2296e-10
2.09029e-10
1.94924e-10
1.80683e-10
1.66352e-10
1.5198e-10
1.37623e-10
1.23343e-10
1.09209e-10
9.52992e-11
8.16998e-11