/*--------------------------------*- C++ -*----------------------------------*\
  =========                 |
  \\      /  F ield         | OpenFOAM: The Open Source CFD Toolbox
   \\    /   O peration     | Website:  https://openfoam.org
    \\  /    A nd           | Version:  12
     \\/     M anipulation  |
\*---------------------------------------------------------------------------*/
FoamFile
{
    format      ascii;
    class       surfaceScalarField;
    location    "9.5";
    object      phi;
}
// * * * * * * * * * * * * * * * * * * * * * * * * * * * * * * * * * * * * * //

dimensions      [0 3 -1 0 0 0 0];

internalField   nonuniform List<scalar> 
11100
(
-3.16672e-11
3.16703e-11
-7.99109e-11
4.82435e-11
-1.15508e-10
3.55973e-11
-1.21105e-10
5.59677e-12
-8.71315e-11
-3.39738e-11
-8.6579e-12
-7.84739e-11
1.15987e-10
-1.24645e-10
2.86307e-10
-1.7032e-10
5.00349e-10
-2.14043e-10
7.552e-10
-2.54851e-10
1.04732e-09
-2.92119e-10
1.37277e-09
-3.25452e-10
1.72738e-09
-3.54614e-10
2.10686e-09
-3.7948e-10
2.50687e-09
-4.00009e-10
2.92309e-09
-4.16217e-10
3.35125e-09
-4.28163e-10
3.78719e-09
-4.35942e-10
4.22687e-09
-4.39675e-10
4.66637e-09
-4.39504e-10
5.10196e-09
-4.35588e-10
5.53006e-09
-4.28101e-10
5.94729e-09
-4.17229e-10
6.35045e-09
-4.03167e-10
6.73657e-09
-3.8612e-10
7.10287e-09
-3.66298e-10
7.44679e-09
-3.43919e-10
7.76599e-09
-3.19202e-10
8.05836e-09
-2.92373e-10
8.32202e-09
-2.63656e-10
8.5553e-09
-2.33281e-10
8.75677e-09
-2.01475e-10
8.92524e-09
-1.68467e-10
9.05972e-09
-1.34483e-10
9.15947e-09
-9.97501e-11
9.22396e-09
-6.44912e-11
9.25289e-09
-2.89283e-11
9.24616e-09
6.71955e-12
9.20393e-09
4.22364e-11
9.12651e-09
7.74102e-11
9.01448e-09
1.1203e-10
8.86859e-09
1.4589e-10
8.6898e-09
1.78787e-10
8.47928e-09
2.1052e-10
8.23839e-09
2.40892e-10
7.96868e-09
2.6971e-10
7.6719e-09
2.96782e-10
7.34997e-09
3.21919e-10
7.00504e-09
3.44936e-10
6.63939e-09
3.65649e-10
6.25551e-09
3.83876e-10
5.85607e-09
3.99441e-10
5.4439e-09
4.12166e-10
5.02202e-09
4.2188e-10
4.59361e-09
4.28412e-10
4.16201e-09
4.31598e-10
3.73073e-09
4.3128e-10
3.30342e-09
4.27305e-10
2.88389e-09
4.19532e-10
2.47606e-09
4.07833e-10
2.08396e-09
3.92099e-10
1.71171e-09
3.72247e-10
1.36348e-09
3.4823e-10
1.04343e-09
3.20056e-10
7.55622e-10
2.87804e-10
5.0396e-10
2.51663e-10
2.91983e-10
2.11977e-10
1.2267e-10
1.69315e-10
-1.91668e-12
1.24585e-10
-8.11229e-11
7.92079e-11
-1.16379e-10
3.52551e-11
-1.12381e-10
-3.99566e-12
-7.83093e-11
-3.40717e-11
-3.12163e-11
-4.70927e-11
-3.12163e-11
-1.58842e-11
4.75545e-11
-1.5988e-11
4.83472e-11
3.59521e-11
-1.63428e-11
1.64178e-10
-1.22629e-10
3.84381e-10
-2.54177e-10
7.05235e-10
-3.99328e-10
1.13023e-09
-5.49642e-10
1.6589e-09
-6.98987e-10
2.28779e-09
-8.42933e-10
3.01124e-09
-9.78307e-10
3.82198e-09
-1.10285e-09
4.71153e-09
-1.215e-09
5.67062e-09
-1.3137e-09
6.68939e-09
-1.39826e-09
7.7577e-09
-1.46832e-09
8.8652e-09
-1.52372e-09
1.00015e-08
-1.5645e-09
1.11564e-08
-1.59085e-09
1.23198e-08
-1.60306e-09
1.34819e-08
-1.60154e-09
1.4633e-08
-1.58675e-09
1.57642e-08
-1.55925e-09
1.68666e-08
-1.51965e-09
1.7932e-08
-1.46858e-09
1.89527e-08
-1.40676e-09
1.99212e-08
-1.33489e-09
2.08311e-08
-1.25373e-09
2.16759e-08
-1.16406e-09
2.24502e-08
-1.06668e-09
2.31489e-08
-9.6238e-10
2.37676e-08
-8.51986e-10
2.43025e-08
-7.36318e-10
2.47502e-08
-6.16199e-10
2.51082e-08
-4.92455e-10
2.53743e-08
-3.65909e-10
2.55472e-08
-2.37379e-10
2.5626e-08
-1.07677e-10
2.56103e-08
2.23934e-11
2.55005e-08
1.52036e-10
2.52975e-08
2.80466e-10
2.50026e-08
4.06909e-10
2.46179e-08
5.30601e-10
2.41459e-08
6.50791e-10
2.35896e-08
7.6674e-10
2.29528e-08
8.7772e-10
2.22395e-08
9.83017e-10
2.14543e-08
1.08193e-09
2.06025e-08
1.17377e-09
1.96896e-08
1.25786e-09
1.87217e-08
1.33354e-09
1.77054e-08
1.40016e-09
1.66477e-08
1.45709e-09
1.55562e-08
1.50373e-09
1.44386e-08
1.53948e-09
1.33032e-08
1.56377e-09
1.21587e-08
1.57607e-09
1.10141e-08
1.57589e-09
9.87869e-09
1.56276e-09
8.76192e-09
1.53629e-09
7.67359e-09
1.49616e-09
6.62354e-09
1.44215e-09
5.62165e-09
1.37414e-09
4.67769e-09
1.29218e-09
3.8012e-09
1.19655e-09
3.00123e-09
1.08777e-09
2.28614e-09
9.66754e-10
1.6632e-09
8.34917e-10
1.13817e-09
6.94341e-10
7.14726e-10
5.48033e-10
3.93679e-10
4.00254e-10
1.71955e-10
2.56979e-10
4.14494e-11
1.26508e-10
-1.29975e-11
2.03751e-11
-1.49536e-11
-4.51367e-11
-4.61698e-11
2.54052e-11
2.21492e-11
1.31838e-10
-5.80852e-11
3.43939e-10
-2.28444e-10
6.80005e-10
-4.58694e-10
1.15226e-09
-7.26429e-10
1.76752e-09
-1.01459e-09
2.52792e-09
-1.31004e-09
3.43162e-09
-1.60269e-09
4.47352e-09
-1.88484e-09
5.64587e-09
-2.15065e-09
6.9388e-09
-2.39578e-09
8.34082e-09
-2.61703e-09
9.83921e-09
-2.81209e-09
1.14204e-08
-2.97941e-09
1.30701e-08
-3.118e-09
1.47737e-08
-3.22735e-09
1.65165e-08
-3.30732e-09
1.82838e-08
-3.35812e-09
2.00609e-08
-3.38019e-09
2.18336e-08
-3.37423e-09
2.35879e-08
-3.34108e-09
2.53105e-08
-3.28179e-09
2.69883e-08
-3.19751e-09
2.86093e-08
-3.08952e-09
3.01617e-08
-2.95918e-09
3.16348e-08
-2.80797e-09
3.30184e-08
-2.63739e-09
3.43034e-08
-2.44904e-09
3.54812e-08
-2.24452e-09
3.65444e-08
-2.0255e-09
3.74861e-08
-1.79367e-09
3.83005e-08
-1.55073e-09
3.89827e-08
-1.29839e-09
3.95286e-08
-1.03837e-09
3.99351e-08
-7.72401e-10
4.01999e-08
-5.02187e-10
4.03216e-08
-2.29436e-10
4.02999e-08
4.41602e-11
4.0135e-08
3.16928e-10
3.98282e-08
5.8721e-10
3.93818e-08
8.53374e-10
3.87986e-08
1.11381e-09
3.80824e-08
1.36693e-09
3.7238e-08
1.61117e-09
3.62707e-08
1.845e-09
3.51868e-08
2.06693e-09
3.39933e-08
2.27547e-09
3.26979e-08
2.46918e-09
3.13091e-08
2.64666e-09
2.9836e-08
2.80654e-09
2.82887e-08
2.94749e-09
2.66776e-08
3.06822e-09
2.50138e-08
3.1675e-09
2.33091e-08
3.24415e-09
2.15759e-08
3.29706e-09
1.98267e-08
3.3252e-09
1.8075e-08
3.32764e-09
1.63342e-08
3.30357e-09
1.46181e-08
3.25231e-09
1.29409e-08
3.17337e-09
1.13166e-08
3.06647e-09
9.75913e-09
2.93161e-09
8.28219e-09
2.76912e-09
6.89898e-09
2.57976e-09
5.62188e-09
2.36487e-09
4.4622e-09
2.12643e-09
3.42975e-09
1.86736e-09
2.5324e-09
1.5917e-09
1.77549e-09
1.30494e-09
1.16128e-09
1.01447e-09
6.88153e-10
7.30101e-10
3.49961e-10
4.64701e-10
1.35221e-10
2.35114e-10
2.64879e-11
6.3597e-11
-1.96818e-11
7.22444e-11
-5.00952e-11
3.00617e-10
-2.86457e-10
6.95885e-10
-6.23712e-10
1.2664e-09
-1.02921e-09
2.01721e-09
-1.47724e-09
2.94988e-09
-1.94725e-09
4.0625e-09
-2.42266e-09
5.34998e-09
-2.89017e-09
6.80437e-09
-3.33922e-09
8.41523e-09
-3.76151e-09
1.017e-08
-4.15058e-09
1.20545e-08
-4.50152e-09
1.40531e-08
-4.81068e-09
1.61492e-08
-5.07547e-09
1.83253e-08
-5.29414e-09
2.05637e-08
-5.46572e-09
2.28462e-08
-5.58982e-09
2.51546e-08
-5.66657e-09
2.7471e-08
-5.69658e-09
2.97776e-08
-5.68081e-09
3.20571e-08
-5.62055e-09
3.42926e-08
-5.51737e-09
3.64682e-08
-5.37308e-09
3.85684e-08
-5.18971e-09
4.05787e-08
-4.96944e-09
4.24853e-08
-4.71461e-09
4.42756e-08
-4.42768e-09
4.59378e-08
-4.11124e-09
4.74612e-08
-3.76792e-09
4.88361e-08
-3.40046e-09
5.00541e-08
-3.01162e-09
5.11076e-08
-2.60421e-09
5.19903e-08
-2.18109e-09
5.2697e-08
-1.74509e-09
5.32237e-08
-1.29908e-09
5.35674e-08
-8.45903e-10
5.37264e-08
-3.88411e-10
5.36999e-08
7.05753e-11
5.34886e-08
5.28258e-10
5.3094e-08
9.81869e-10
5.25187e-08
1.42867e-09
5.17665e-08
1.86598e-09
5.08423e-08
2.29112e-09
4.9752e-08
2.7015e-09
4.85024e-08
3.09455e-09
4.71016e-08
3.46777e-09
4.55584e-08
3.8187e-09
4.38826e-08
4.14494e-09
4.20851e-08
4.44418e-09
4.01775e-08
4.71415e-09
3.81723e-08
4.95267e-09
3.60829e-08
5.15764e-09
3.39233e-08
5.32708e-09
3.17084e-08
5.45909e-09
2.94535e-08
5.55193e-09
2.71747e-08
5.604e-09
2.48885e-08
5.61388e-09
2.26117e-08
5.58036e-09
2.03615e-08
5.5025e-09
1.81552e-08
5.37966e-09
1.60101e-08
5.21157e-09
1.39433e-08
4.99841e-09
1.19715e-08
4.74091e-09
1.01108e-08
4.44047e-09
8.37639e-09
4.09931e-09
6.78218e-09
3.72064e-09
5.34063e-09
3.30892e-09
4.06223e-09
2.8701e-09
2.95519e-09
2.41198e-09
2.02503e-09
1.94463e-09
1.27423e-09
1.4809e-09
7.02008e-10
1.03693e-09
3.04183e-10
6.3294e-10
7.34104e-11
2.9437e-10
5.37286e-11
1.17464e-10
-1.67559e-10
4.6719e-10
-6.36184e-10
1.04758e-09
-1.2041e-09
1.8568e-09
-1.83843e-09
2.89166e-09
-2.5121e-09
4.14698e-09
-3.20258e-09
5.61539e-09
-3.89107e-09
7.28721e-09
-4.562e-09
9.15058e-09
-5.20259e-09
1.11916e-08
-5.80252e-09
1.33946e-08
-6.35356e-09
1.57423e-08
-6.84924e-09
1.82163e-08
-7.28467e-09
2.07971e-08
-7.65626e-09
2.34645e-08
-7.96155e-09
2.61978e-08
-8.19906e-09
2.89762e-08
-8.36818e-09
3.17786e-08
-8.46899e-09
3.45843e-08
-8.50223e-09
3.73726e-08
-8.46919e-09
4.01237e-08
-8.37163e-09
4.28181e-08
-8.21174e-09
4.54371e-08
-7.99204e-09
4.79628e-08
-7.7154e-09
5.03783e-08
-7.38493e-09
5.26676e-08
-7.00399e-09
5.48161e-08
-6.5761e-09
5.68098e-08
-6.10499e-09
5.86364e-08
-5.59449e-09
6.02845e-08
-5.04855e-09
6.17441e-08
-4.47121e-09
6.30064e-08
-3.86656e-09
6.40641e-08
-3.23876e-09
6.4911e-08
-2.59197e-09
6.55423e-08
-1.9304e-09
6.59546e-08
-1.25821e-09
6.61458e-08
-5.79588e-10
6.61151e-08
1.01314e-10
6.5863e-08
7.80377e-10
6.53913e-08
1.45352e-09
6.47032e-08
2.11673e-09
6.38032e-08
2.76602e-09
6.26968e-08
3.39748e-09
6.13911e-08
4.00727e-09
5.9894e-08
4.59163e-09
5.82149e-08
5.14686e-09
5.63642e-08
5.66937e-09
5.43535e-08
6.15565e-09
5.21954e-08
6.60229e-09
4.99036e-08
7.00602e-09
4.74926e-08
7.36367e-09
4.4978e-08
7.67221e-09
4.23763e-08
7.92878e-09
3.97047e-08
8.13071e-09
3.69811e-08
8.27552e-09
3.42242e-08
8.36097e-09
3.14529e-08
8.38512e-09
2.86869e-08
8.34634e-09
2.59461e-08
8.24339e-09
2.32503e-08
8.07547e-09
2.06195e-08
7.84232e-09
1.80736e-08
7.54433e-09
1.56319e-08
7.18261e-09
1.33132e-08
6.75917e-09
1.11354e-08
6.27707e-09
9.11543e-09
5.74063e-09
7.26871e-09
5.15565e-09
5.60914e-09
4.52966e-09
4.14881e-09
3.87231e-09
2.8978e-09
3.19564e-09
1.86412e-09
2.51457e-09
1.05377e-09
1.84727e-09
4.70983e-10
1.21573e-09
1.18755e-10
6.46598e-10
1.72484e-10
1.59369e-10
-3.26928e-10
6.24311e-10
-1.10113e-09
1.38326e-09
-1.96305e-09
2.42532e-09
-2.88049e-09
3.73929e-09
-3.82607e-09
5.31303e-09
-4.77631e-09
7.13308e-09
-5.71113e-09
9.18452e-09
-6.61343e-09
1.14509e-08
-7.46893e-09
1.39141e-08
-8.26578e-09
1.65549e-08
-8.99437e-09
1.93527e-08
-9.64704e-09
2.22859e-08
-1.02179e-08
2.53321e-08
-1.07024e-08
2.84683e-08
-1.10978e-08
3.16712e-08
-1.14019e-08
3.49172e-08
-1.16142e-08
3.81829e-08
-1.17347e-08
4.1445e-08
-1.17643e-08
4.46807e-08
-1.17048e-08
4.78675e-08
-1.15585e-08
5.0984e-08
-1.13282e-08
5.40093e-08
-1.10173e-08
5.69234e-08
-1.06295e-08
5.97076e-08
-1.01691e-08
6.23441e-08
-9.64047e-09
6.48163e-08
-9.04835e-09
6.71091e-08
-8.39773e-09
6.92083e-08
-7.69376e-09
7.11015e-08
-6.94175e-09
7.27775e-08
-6.14715e-09
7.42264e-08
-5.3155e-09
7.544e-08
-4.45238e-09
7.64115e-08
-3.56345e-09
7.71355e-08
-2.65438e-09
7.76081e-08
-1.73085e-09
7.78271e-08
-7.98523e-10
7.77914e-08
1.36967e-10
7.75018e-08
1.07002e-09
7.69602e-08
1.9951e-09
7.61702e-08
2.90673e-09
7.51367e-08
3.79951e-09
7.38661e-08
4.66811e-09
7.2366e-08
5.50732e-09
7.06456e-08
6.31201e-09
6.87153e-08
7.07719e-09
6.65867e-08
7.79797e-09
6.42727e-08
8.46961e-09
6.17875e-08
9.0875e-09
5.91463e-08
9.64722e-09
5.63655e-08
1.01445e-08
5.34624e-08
1.05753e-08
5.04553e-08
1.09358e-08
4.73635e-08
1.12225e-08
4.42071e-08
1.1432e-08
4.10066e-08
1.15614e-08
3.77835e-08
1.16082e-08
3.45595e-08
1.15703e-08
3.13568e-08
1.14461e-08
2.81977e-08
1.12345e-08
2.51047e-08
1.09353e-08
2.21e-08
1.0549e-08
1.92058e-08
1.00769e-08
1.64434e-08
9.52149e-09
1.38339e-08
8.88657e-09
1.13973e-08
8.17726e-09
9.15261e-09
7.40036e-09
7.11768e-09
6.5646e-09
5.30914e-09
5.68085e-09
3.74232e-09
4.76246e-09
2.43132e-09
3.82558e-09
1.38916e-09
2.88943e-09
6.28228e-10
1.97667e-09
1.60785e-10
1.11404e-09
3.33269e-10
1.98069e-10
-5.24997e-10
7.71331e-10
-1.67439e-09
1.70029e-09
-2.892e-09
2.96631e-09
-4.14652e-09
4.5509e-09
-5.41066e-09
6.43521e-09
-6.66062e-09
8.59967e-09
-7.87558e-09
1.10238e-08
-9.03758e-09
1.36862e-08
-1.01313e-08
1.65643e-08
-1.11439e-08
1.96347e-08
-1.20648e-08
2.28732e-08
-1.28855e-08
2.62548e-08
-1.35994e-08
2.97539e-08
-1.42015e-08
3.33446e-08
-1.46885e-08
3.70009e-08
-1.50582e-08
4.06967e-08
-1.531e-08
4.44061e-08
-1.54441e-08
4.81035e-08
-1.54618e-08
5.1764e-08
-1.53653e-08
5.53631e-08
-1.51576e-08
5.88772e-08
-1.48424e-08
6.22838e-08
-1.44239e-08
6.55612e-08
-1.3907e-08
6.8689e-08
-1.32969e-08
7.16479e-08
-1.25993e-08
7.44199e-08
-1.18204e-08
7.69886e-08
-1.09664e-08
7.93388e-08
-1.0044e-08
8.14569e-08
-9.05984e-09
8.33308e-08
-8.02102e-09
8.49498e-08
-6.93458e-09
8.63052e-08
-5.80771e-09
8.73894e-08
-4.64765e-09
8.81967e-08
-3.46167e-09
8.87229e-08
-2.25708e-09
8.89655e-08
-1.04115e-09
8.89236e-08
1.78875e-10
8.85978e-08
1.3958e-09
8.79904e-08
2.60248e-09
8.71053e-08
3.79189e-09
8.59477e-08
4.95707e-09
8.45247e-08
6.09116e-09
8.28445e-08
7.18747e-09
8.09171e-08
8.23939e-09
7.87538e-08
9.2405e-09
7.63673e-08
1.01845e-08
7.37715e-08
1.10654e-08
7.09819e-08
1.18771e-08
6.8015e-08
1.26141e-08
6.48886e-08
1.32709e-08
6.16216e-08
1.38424e-08
5.82339e-08
1.43236e-08
5.47463e-08
1.471e-08
5.11808e-08
1.49975e-08
4.75599e-08
1.51823e-08
4.39069e-08
1.52613e-08
4.02456e-08
1.52317e-08
3.66003e-08
1.50914e-08
3.29956e-08
1.48392e-08
2.94563e-08
1.44746e-08
2.60073e-08
1.3998e-08
2.26733e-08
1.34109e-08
1.94788e-08
1.2716e-08
1.64479e-08
1.19175e-08
1.3604e-08
1.10211e-08
1.09702e-08
1.00342e-08
8.56867e-09
8.96614e-09
6.42086e-09
7.82866e-09
4.54754e-09
6.63578e-09
2.96892e-09
5.40421e-09
1.70478e-09
4.15356e-09
7.74901e-10
2.90655e-09
1.99505e-10
1.68944e-09
5.32774e-10
2.34289e-10
-7.59286e-10
9.10143e-10
-2.35024e-09
2.00157e-09
-3.98343e-09
3.48329e-09
-5.62823e-09
5.33023e-09
-7.25761e-09
7.51725e-09
-8.84763e-09
1.00188e-08
-1.03771e-08
1.28089e-08
-1.18277e-08
1.5861e-08
-1.31834e-08
1.91478e-08
-1.44307e-08
2.26416e-08
-1.55586e-08
2.63142e-08
-1.65581e-08
3.01369e-08
-1.74221e-08
3.40808e-08
-1.81455e-08
3.81171e-08
-1.87247e-08
4.22167e-08
-1.91579e-08
4.6351e-08
-1.94443e-08
5.04917e-08
-1.95847e-08
5.46109e-08
-1.9581e-08
5.86816e-08
-1.9436e-08
6.26775e-08
-1.91535e-08
6.65732e-08
-1.8738e-08
7.03443e-08
-1.81951e-08
7.39679e-08
-1.75305e-08
7.74219e-08
-1.67509e-08
8.06859e-08
-1.58634e-08
8.37409e-08
-1.48753e-08
8.65691e-08
-1.37946e-08
8.91545e-08
-1.26294e-08
9.14827e-08
-1.13881e-08
9.35409e-08
-1.00792e-08
9.53178e-08
-8.71149e-09
9.6804e-08
-7.29389e-09
9.79916e-08
-5.8353e-09
9.88747e-08
-4.34473e-09
9.94488e-08
-2.83118e-09
9.97113e-08
-1.30363e-09
9.96612e-08
2.28943e-10
9.92993e-08
1.75766e-09
9.86281e-08
3.27369e-09
9.76517e-08
4.76833e-09
9.63758e-08
6.23298e-09
9.48078e-08
7.65917e-09
9.29566e-08
9.03859e-09
9.08329e-08
1.03631e-08
8.84487e-08
1.16247e-08
8.58174e-08
1.28158e-08
8.29541e-08
1.39286e-08
7.98752e-08
1.4956e-08
7.65984e-08
1.5891e-08
7.31425e-08
1.67268e-08
6.95279e-08
1.7457e-08
6.57759e-08
1.80756e-08
6.19088e-08
1.85771e-08
5.79501e-08
1.89562e-08
5.3924e-08
1.92084e-08
4.98557e-08
1.93296e-08
4.57709e-08
1.93165e-08
4.1696e-08
1.91663e-08
3.76578e-08
1.88774e-08
3.36836e-08
1.84488e-08
2.98008e-08
1.78808e-08
2.6037e-08
1.71747e-08
2.24197e-08
1.63333e-08
1.89764e-08
1.53608e-08
1.57344e-08
1.42631e-08
1.27206e-08
1.30479e-08
9.96187e-09
1.17249e-08
7.48455e-09
1.0306e-08
5.31485e-09
8.80548e-09
3.47881e-09
7.24025e-09
2.00253e-09
5.62984e-09
9.12409e-10
3.99667e-09
2.35503e-10
2.36634e-09
7.68276e-10
2.68895e-10
-1.02818e-09
1.04344e-09
-3.12478e-09
2.29201e-09
-5.232e-09
3.98338e-09
-7.3196e-09
6.08647e-09
-9.3607e-09
8.57018e-09
-1.13313e-08
1.14032e-08
-1.32102e-08
1.45542e-08
-1.49786e-08
1.79912e-08
-1.66204e-08
2.16822e-08
-1.81218e-08
2.55951e-08
-1.94715e-08
2.96973e-08
-2.06603e-08
3.39564e-08
-2.16813e-08
3.83401e-08
-2.25292e-08
4.28162e-08
-2.32008e-08
4.73527e-08
-2.36944e-08
5.19183e-08
-2.40099e-08
5.64822e-08
-2.41486e-08
6.10144e-08
-2.41132e-08
6.54856e-08
-2.39072e-08
6.98678e-08
-2.35356e-08
7.41338e-08
-2.30041e-08
7.82578e-08
-2.23191e-08
8.22154e-08
-2.1488e-08
8.59833e-08
-2.05188e-08
8.954e-08
-1.942e-08
9.28653e-08
-1.82007e-08
9.59408e-08
-1.68701e-08
9.87497e-08
-1.54383e-08
1.01277e-07
-1.39151e-08
1.03509e-07
-1.23111e-08
1.05434e-07
-1.06365e-08
1.07042e-07
-8.90223e-09
1.08326e-07
-7.11885e-09
1.09278e-07
-5.2972e-09
1.09895e-07
-3.44808e-09
1.10174e-07
-1.58227e-09
1.10113e-07
2.89474e-10
1.09714e-07
2.15649e-09
1.0898e-07
4.00819e-09
1.07914e-07
5.83412e-09
1.06523e-07
7.62396e-09
1.04815e-07
9.36755e-09
1.02798e-07
1.10549e-08
1.00485e-07
1.26763e-08
9.78877e-08
1.4222e-08
9.50206e-08
1.56829e-08
9.18993e-08
1.70499e-08
8.85411e-08
1.83141e-08
8.49649e-08
1.94673e-08
8.11905e-08
2.05012e-08
7.72393e-08
2.14081e-08
7.3134e-08
2.21809e-08
6.88982e-08
2.28128e-08
6.4557e-08
2.32974e-08
6.01362e-08
2.36292e-08
5.56626e-08
2.38032e-08
5.11639e-08
2.38151e-08
4.66686e-08
2.36616e-08
4.22057e-08
2.33402e-08
3.7805e-08
2.28495e-08
3.34965e-08
2.21893e-08
2.93107e-08
2.13605e-08
2.52785e-08
2.03656e-08
2.14307e-08
1.92086e-08
1.77985e-08
1.78953e-08
1.44131e-08
1.64333e-08
1.13058e-08
1.48322e-08
8.50795e-09
1.31039e-08
6.05091e-09
1.12625e-08
3.96635e-09
9.32481e-09
2.28621e-09
7.30998e-09
1.0429e-09
5.23998e-09
2.69493e-10
3.13975e-09
1.03777e-09
3.02709e-10
-1.33089e-09
1.17392e-09
-3.996e-09
2.57679e-09
-6.63487e-09
4.47451e-09
-9.21732e-09
6.83028e-09
-1.17165e-08
9.60727e-09
-1.41083e-08
1.27686e-08
-1.63715e-08
1.62773e-08
-1.84873e-08
2.00964e-08
-2.04395e-08
2.4189e-08
-2.22144e-08
2.85182e-08
-2.38007e-08
3.30474e-08
-2.51894e-08
3.774e-08
-2.63739e-08
4.256e-08
-2.73492e-08
4.7472e-08
-2.81127e-08
5.24409e-08
-2.86633e-08
5.74326e-08
-2.90016e-08
6.24139e-08
-2.91299e-08
6.73524e-08
-2.90516e-08
7.22168e-08
-2.87717e-08
7.69772e-08
-2.82961e-08
8.1605e-08
-2.76318e-08
8.60727e-08
-2.67868e-08
9.03547e-08
-2.577e-08
9.44266e-08
-2.45908e-08
9.82659e-08
-2.32593e-08
1.01852e-07
-2.17863e-08
1.05164e-07
-2.01829e-08
1.08187e-07
-1.84608e-08
1.10903e-07
-1.66317e-08
1.133e-07
-1.47078e-08
1.15365e-07
-1.27015e-08
1.17088e-07
-1.06252e-08
1.18461e-07
-8.49167e-09
1.19477e-07
-6.31341e-09
1.20132e-07
-4.10312e-09
1.20423e-07
-1.87347e-09
1.2035e-07
3.62963e-10
1.19913e-07
2.59366e-09
1.19115e-07
4.80623e-09
1.1796e-07
6.9884e-09
1.16456e-07
9.12809e-09
1.1461e-07
1.12134e-08
1.12433e-07
1.32325e-08
1.09935e-07
1.51741e-08
1.0713e-07
1.70268e-08
1.04033e-07
1.87798e-08
1.00661e-07
2.04223e-08
9.70309e-08
2.19442e-08
9.31629e-08
2.33353e-08
8.90779e-08
2.45862e-08
8.47982e-08
2.56878e-08
8.03477e-08
2.66314e-08
7.57514e-08
2.74091e-08
7.10357e-08
2.80132e-08
6.62278e-08
2.8437e-08
6.13565e-08
2.86745e-08
5.64513e-08
2.87204e-08
5.15426e-08
2.85703e-08
4.66619e-08
2.8221e-08
4.18413e-08
2.76702e-08
3.71136e-08
2.69169e-08
3.25125e-08
2.59616e-08
2.80718e-08
2.48062e-08
2.38263e-08
2.34542e-08
1.98108e-08
2.19108e-08
1.60609e-08
2.01832e-08
1.26122e-08
1.82808e-08
9.50105e-09
1.6215e-08
6.76389e-09
1.39997e-08
4.43771e-09
1.1651e-08
2.55994e-09
9.18774e-09
1.16856e-09
6.63136e-09
3.02143e-10
4.00617e-09
1.33991e-09
3.36444e-10
-1.66733e-09
1.30403e-09
-4.96358e-09
2.86067e-09
-8.19152e-09
4.96406e-09
-1.13207e-08
7.57172e-09
-1.43241e-08
1.06411e-08
-1.71777e-08
1.41298e-08
-1.98602e-08
1.79954e-08
-2.23529e-08
2.21956e-08
-2.46397e-08
2.66885e-08
-2.67073e-08
3.14326e-08
-2.85448e-08
3.63867e-08
-3.01436e-08
4.15105e-08
-3.14976e-08
4.67641e-08
-3.26028e-08
5.21085e-08
-3.34572e-08
5.75058e-08
-3.40606e-08
6.29189e-08
-3.44147e-08
6.83119e-08
-3.4523e-08
7.36504e-08
-3.43901e-08
7.89011e-08
-3.40224e-08
8.40322e-08
-3.34272e-08
8.90135e-08
-3.26131e-08
9.38163e-08
-3.15896e-08
9.84136e-08
-3.03673e-08
1.0278e-07
-2.89573e-08
1.06893e-07
-2.73716e-08
1.10729e-07
-2.56227e-08
1.1427e-07
-2.37236e-08
1.17497e-07
-2.16877e-08
1.20394e-07
-1.95289e-08
1.22947e-07
-1.72611e-08
1.25144e-07
-1.48986e-08
1.26975e-07
-1.24559e-08
1.28431e-07
-9.94753e-09
1.29505e-07
-7.38799e-09
1.30194e-07
-4.79188e-09
1.30494e-07
-2.17377e-09
1.30406e-07
4.51847e-10
1.29929e-07
3.07059e-09
1.29067e-07
5.6682e-09
1.27825e-07
8.23057e-09
1.26209e-07
1.07438e-08
1.24228e-07
1.31941e-08
1.21893e-07
1.55681e-08
1.19214e-07
1.78524e-08
1.16207e-07
2.00342e-08
1.12886e-07
2.21008e-08
1.09268e-07
2.40399e-08
1.05373e-07
2.58396e-08
1.0122e-07
2.74883e-08
9.68311e-08
2.89749e-08
9.22301e-08
3.02888e-08
8.74417e-08
3.14199e-08
8.2492e-08
3.23587e-08
7.74088e-08
3.30964e-08
7.22209e-08
3.36249e-08
6.69587e-08
3.39368e-08
6.16535e-08
3.40256e-08
5.63378e-08
3.38859e-08
5.10455e-08
3.35133e-08
4.5811e-08
3.29046e-08
4.06702e-08
3.20578e-08
3.56594e-08
3.09724e-08
3.08162e-08
2.96495e-08
2.61786e-08
2.80917e-08
2.17856e-08
2.63037e-08
1.76768e-08
2.4292e-08
1.38925e-08
2.20651e-08
1.04736e-08
1.9634e-08
7.4616e-09
1.70117e-08
4.89865e-09
1.42139e-08
2.82744e-09
1.12589e-08
1.29129e-09
8.16752e-09
3.34019e-10
4.96344e-09
1.67393e-09
3.70675e-10
-2.03801e-09
1.43572e-09
-6.02862e-09
3.14753e-09
-9.90333e-09
5.45806e-09
-1.36312e-08
8.31901e-09
-1.71851e-08
1.16821e-08
-2.05408e-08
1.5499e-08
-2.36772e-08
1.97219e-08
-2.65758e-08
2.43033e-08
-2.9221e-08
2.9196e-08
-3.16e-08
3.43538e-08
-3.37026e-08
3.97311e-08
-3.5521e-08
4.52834e-08
-3.70499e-08
5.0967e-08
-3.82865e-08
5.67396e-08
-3.92297e-08
6.256e-08
-3.98809e-08
6.83883e-08
-4.02431e-08
7.41863e-08
-4.0321e-08
7.99172e-08
-4.0121e-08
8.55457e-08
-3.96509e-08
9.10384e-08
-3.89199e-08
9.63637e-08
-3.79383e-08
1.01492e-07
-3.67175e-08
1.06394e-07
-3.52697e-08
1.11045e-07
-3.36081e-08
1.1542e-07
-3.17465e-08
1.19496e-07
-2.96995e-08
1.23255e-07
-2.7482e-08
1.26676e-07
-2.51094e-08
1.29745e-07
-2.25974e-08
1.32446e-07
-1.99622e-08
1.34767e-07
-1.722e-08
1.36699e-07
-1.43871e-08
1.38231e-07
-1.14802e-08
1.39359e-07
-8.51567e-09
1.40077e-07
-5.51012e-09
1.40383e-07
-2.48003e-09
1.40277e-07
5.58196e-10
1.39759e-07
3.58825e-09
1.38834e-07
6.59399e-09
1.37505e-07
9.55944e-09
1.3578e-07
1.24688e-08
1.33667e-07
1.53066e-08
1.31178e-07
1.80574e-08
1.28324e-07
2.07063e-08
1.25119e-07
2.32386e-08
1.21581e-07
2.56398e-08
1.17725e-07
2.78959e-08
1.13571e-07
2.99932e-08
1.09141e-07
3.19186e-08
1.04456e-07
3.36594e-08
9.95418e-08
3.52031e-08
9.44234e-08
3.65383e-08
8.91284e-08
3.76538e-08
8.36856e-08
3.85392e-08
7.81254e-08
3.9185e-08
7.24798e-08
3.95824e-08
6.67819e-08
3.97235e-08
6.10663e-08
3.96015e-08
5.5369e-08
3.92106e-08
4.97272e-08
3.85464e-08
4.41793e-08
3.76057e-08
3.87648e-08
3.63869e-08
3.35245e-08
3.48897e-08
2.85002e-08
3.3116e-08
2.37347e-08
3.10692e-08
1.92719e-08
2.87549e-08
1.51563e-08
2.61807e-08
1.14337e-08
2.33566e-08
8.1505e-09
2.02949e-08
5.35387e-09
1.70106e-08
3.09174e-09
1.35211e-08
1.41262e-09
9.84664e-09
3.65565e-10
6.01049e-09
2.0395e-09
4.05829e-10
-2.44384e-09
1.57044e-09
-7.19324e-09
3.44019e-09
-1.17731e-08
5.96083e-09
-1.61519e-08
9.07794e-09
-2.03022e-08
1.27371e-08
-2.42e-08
1.68842e-08
-2.78242e-08
2.14655e-08
-3.11571e-08
2.6428e-08
-3.41835e-08
3.17196e-08
-3.68916e-08
3.7289e-08
-3.9272e-08
4.30863e-08
-4.13183e-08
4.90627e-08
-4.30263e-08
5.51708e-08
-4.43945e-08
6.13647e-08
-4.54237e-08
6.76003e-08
-4.61165e-08
7.38349e-08
-4.64777e-08
8.00279e-08
-4.65139e-08
8.61402e-08
-4.62334e-08
9.2135e-08
-4.56457e-08
9.79772e-08
-4.47621e-08
1.03634e-07
-4.35948e-08
1.09074e-07
-4.21573e-08
1.14268e-07
-4.04639e-08
1.1919e-07
-3.85298e-08
1.23814e-07
-3.6371e-08
1.28119e-07
-3.4004e-08
1.32082e-07
-3.14459e-08
1.35687e-07
-2.87141e-08
1.38916e-07
-2.58265e-08
1.41755e-07
-2.28013e-08
1.44192e-07
-1.96567e-08
1.46216e-07
-1.64111e-08
1.47819e-07
-1.30831e-08
1.48994e-07
-9.69117e-09
1.49738e-07
-6.25385e-09
1.50048e-07
-2.78957e-09
1.49923e-07
6.83323e-10
1.49364e-07
4.14662e-09
1.48376e-07
7.58227e-09
1.46963e-07
1.09724e-08
1.45132e-07
1.42994e-08
1.42893e-07
1.75459e-08
1.40256e-07
2.06947e-08
1.37233e-07
2.37289e-08
1.3384e-07
2.66321e-08
1.30091e-07
2.93881e-08
1.26006e-07
3.1981e-08
1.21604e-07
3.43954e-08
1.16907e-07
3.66163e-08
1.11937e-07
3.86293e-08
1.06719e-07
4.04203e-08
1.01282e-07
4.19761e-08
9.56517e-08
4.32837e-08
8.98596e-08
4.43313e-08
8.39373e-08
4.51074e-08
7.79179e-08
4.56017e-08
7.18366e-08
4.58048e-08
6.573e-08
4.57081e-08
5.96361e-08
4.53045e-08
5.35948e-08
4.45878e-08
4.76471e-08
4.35534e-08
4.18356e-08
4.21983e-08
3.62045e-08
4.05209e-08
3.0799e-08
3.85215e-08
2.5666e-08
3.62022e-08
2.08534e-08
3.35675e-08
1.64104e-08
3.06237e-08
1.23872e-08
2.73797e-08
8.83528e-09
2.38468e-08
5.80684e-09
2.0039e-08
3.35504e-09
1.59729e-08
1.53367e-09
1.1668e-08
3.97105e-10
7.14706e-09
2.4366e-09
4.42185e-10
-2.88602e-09
1.70909e-09
-8.46015e-09
3.74026e-09
-1.38042e-08
6.4747e-09
-1.88863e-08
9.85129e-09
-2.36788e-08
1.38091e-08
-2.81578e-08
1.82879e-08
-3.23029e-08
2.32278e-08
-3.6097e-08
2.85703e-08
-3.95261e-08
3.42579e-08
-4.25792e-08
4.02346e-08
-4.52487e-08
4.64457e-08
-4.75293e-08
5.28383e-08
-4.94189e-08
5.93613e-08
-5.09176e-08
6.59656e-08
-5.2028e-08
7.2604e-08
-5.27548e-08
7.92312e-08
-5.31049e-08
8.58043e-08
-5.3087e-08
9.22824e-08
-5.27115e-08
9.86269e-08
-5.19902e-08
1.04801e-07
-5.09366e-08
1.10772e-07
-4.95652e-08
1.16506e-07
-4.78916e-08
1.21975e-07
-4.59325e-08
1.2715e-07
-4.37053e-08
1.32007e-07
-4.12283e-08
1.36523e-07
-3.85201e-08
1.40678e-07
-3.56e-08
1.44451e-07
-3.24878e-08
1.47828e-07
-2.92032e-08
1.50793e-07
-2.57667e-08
1.53335e-07
-2.21985e-08
1.55443e-07
-1.85192e-08
1.5711e-07
-1.47493e-08
1.58328e-07
-1.09092e-08
1.59093e-07
-7.01952e-09
1.59404e-07
-3.1006e-09
1.5926e-07
8.27283e-10
1.58663e-07
4.74403e-09
1.57615e-07
8.62969e-09
1.56123e-07
1.24645e-08
1.54194e-07
1.62291e-08
1.51835e-07
1.99041e-08
1.4906e-07
2.34705e-08
1.45879e-07
2.69097e-08
1.42307e-07
3.02034e-08
1.38362e-07
3.33334e-08
1.34061e-07
3.62821e-08
1.29424e-07
3.90322e-08
1.24473e-07
4.15671e-08
1.19233e-07
4.38702e-08
1.13727e-07
4.59258e-08
1.07985e-07
4.77186e-08
1.02034e-07
4.92341e-08
9.5907e-08
5.04584e-08
8.96362e-08
5.13782e-08
8.32565e-08
5.19815e-08
7.68045e-08
5.22567e-08
7.03188e-08
5.21938e-08
6.38397e-08
5.17836e-08
5.74092e-08
5.10182e-08
5.10713e-08
4.98914e-08
4.48715e-08
4.83981e-08
3.88572e-08
4.65352e-08
3.30773e-08
4.43013e-08
2.75825e-08
4.16971e-08
2.24249e-08
3.87251e-08
1.76582e-08
3.53904e-08
1.33373e-08
3.17006e-08
9.51866e-09
2.76655e-08
6.25964e-09
2.3298e-08
3.61871e-09
1.86138e-08
1.65516e-09
1.36316e-08
4.28852e-10
8.37337e-09
2.86545e-09
4.79857e-10
-3.36588e-09
1.85194e-09
-9.83223e-09
4.04806e-09
-1.60004e-08
6.99967e-09
-2.18379e-08
1.06384e-08
-2.73175e-08
1.48963e-08
-3.24158e-08
1.97065e-08
-3.71131e-08
2.50029e-08
-4.13935e-08
3.07212e-08
-4.52443e-08
3.67984e-08
-4.86564e-08
4.31734e-08
-5.16237e-08
4.97873e-08
-5.41432e-08
5.65829e-08
-5.62146e-08
6.35057e-08
-5.78404e-08
7.05031e-08
-5.90254e-08
7.75253e-08
-5.9777e-08
8.45247e-08
-6.01043e-08
9.14562e-08
-6.00185e-08
9.82773e-08
-5.95326e-08
1.04948e-07
-5.8661e-08
1.11431e-07
-5.74195e-08
1.17691e-07
-5.58253e-08
1.23696e-07
-5.38964e-08
1.29415e-07
-5.16519e-08
1.34822e-07
-4.91118e-08
1.3989e-07
-4.62965e-08
1.44597e-07
-4.32271e-08
1.48922e-07
-3.99252e-08
1.52847e-07
-3.64127e-08
1.56355e-07
-3.27116e-08
1.59433e-07
-2.88445e-08
1.62068e-07
-2.48337e-08
1.64251e-07
-2.07017e-08
1.65973e-07
-1.64712e-08
1.67228e-07
-1.21646e-08
1.68013e-07
-7.80433e-09
1.68325e-07
-3.41266e-09
1.68164e-07
9.8824e-10
1.67532e-07
5.37639e-09
1.66432e-07
9.73e-09
1.64869e-07
1.40275e-08
1.6285e-07
1.82476e-08
1.60385e-07
2.23691e-08
1.57484e-07
2.63712e-08
1.54161e-07
3.02335e-08
1.50428e-07
3.39357e-08
1.46304e-07
3.74579e-08
1.41805e-07
4.07805e-08
1.36953e-07
4.38845e-08
1.31769e-07
4.6751e-08
1.26278e-07
4.93617e-08
1.20504e-07
5.1699e-08
1.14477e-07
5.37456e-08
1.08227e-07
5.54848e-08
1.01784e-07
5.69007e-08
9.51844e-08
5.79783e-08
8.84628e-08
5.87031e-08
8.16578e-08
5.90617e-08
7.48097e-08
5.90419e-08
6.79607e-08
5.86325e-08
6.11554e-08
5.78235e-08
5.44403e-08
5.66065e-08
4.78638e-08
5.49746e-08
4.14765e-08
5.29225e-08
3.53311e-08
5.04468e-08
2.94819e-08
4.75462e-08
2.39854e-08
4.42216e-08
1.88996e-08
4.04762e-08
1.42845e-08
3.63157e-08
1.02014e-08
3.17486e-08
6.71297e-09
2.67864e-08
3.88332e-09
2.14435e-08
1.77739e-09
1.57375e-08
4.60908e-10
9.68985e-09
3.32636e-09
5.18785e-10
-3.88467e-09
1.99857e-09
-1.1312e-08
4.36236e-09
-1.83642e-08
7.53321e-09
-2.50088e-08
1.14347e-08
-3.1219e-08
1.59915e-08
-3.69725e-08
2.11293e-08
-4.2251e-08
2.67759e-08
-4.704e-08
3.28606e-08
-5.1329e-08
3.9315e-08
-5.51109e-08
4.60732e-08
-5.83819e-08
5.30716e-08
-6.11416e-08
6.02493e-08
-6.33923e-08
6.75483e-08
-6.51393e-08
7.49131e-08
-6.63902e-08
8.22913e-08
-6.71552e-08
8.96333e-08
-6.74463e-08
9.68924e-08
-6.72777e-08
1.04025e-07
-6.6665e-08
1.10989e-07
-6.56257e-08
1.17748e-07
-6.41783e-08
1.24266e-07
-6.23427e-08
1.30509e-07
-6.01398e-08
1.36448e-07
-5.75912e-08
1.42056e-07
-5.47194e-08
1.47307e-07
-5.15474e-08
1.52178e-07
-4.80986e-08
1.5665e-07
-4.43971e-08
1.60704e-07
-4.04668e-08
1.64325e-07
-3.63323e-08
1.67499e-07
-3.20179e-08
1.70213e-07
-2.75483e-08
1.72459e-07
-2.29479e-08
1.74229e-07
-1.82412e-08
1.75517e-07
-1.34527e-08
1.7632e-07
-8.60668e-09
1.76634e-07
-3.72721e-09
1.76461e-07
1.16171e-09
1.75801e-07
6.0363e-09
1.74658e-07
1.0873e-08
1.73037e-07
1.56484e-08
1.70945e-07
2.03394e-08
1.68391e-07
2.49231e-08
1.65386e-07
2.93769e-08
1.61941e-07
3.36785e-08
1.58071e-07
3.78057e-08
1.53792e-07
4.17368e-08
1.49122e-07
4.54503e-08
1.44081e-07
4.8925e-08
1.38692e-07
5.21404e-08
1.32978e-07
5.50759e-08
1.26965e-07
5.77119e-08
1.20682e-07
6.00288e-08
1.14158e-07
6.2008e-08
1.07428e-07
6.36313e-08
1.00525e-07
6.48813e-08
9.34866e-08
6.57413e-08
8.63527e-08
6.61957e-08
7.91648e-08
6.62298e-08
7.19673e-08
6.583e-08
6.48067e-08
6.49841e-08
5.77321e-08
6.36812e-08
5.07948e-08
6.19118e-08
4.40487e-08
5.96686e-08
3.75498e-08
5.69457e-08
3.13565e-08
5.37396e-08
2.55293e-08
5.00488e-08
2.01311e-08
4.58744e-08
1.52265e-08
4.12203e-08
1.08821e-08
3.6093e-08
7.16622e-09
3.05023e-08
4.14863e-09
2.4461e-08
1.90033e-09
1.79858e-08
4.93274e-10
1.10969e-08
3.81964e-09
5.58712e-10
-4.44338e-09
2.14779e-09
-1.29011e-08
4.68028e-09
-2.08966e-08
8.06982e-09
-2.83983e-08
1.22312e-08
-3.53804e-08
1.70809e-08
-4.18222e-08
2.25373e-08
-4.77073e-08
2.8521e-08
-5.30237e-08
3.49554e-08
-5.77634e-08
4.17665e-08
-6.1922e-08
4.88834e-08
-6.54988e-08
5.62384e-08
-6.84965e-08
6.37669e-08
-7.09208e-08
7.14076e-08
-7.278e-08
7.91027e-08
-7.40853e-08