/*--------------------------------*- C++ -*----------------------------------*\
  =========                 |
  \\      /  F ield         | OpenFOAM: The Open Source CFD Toolbox
   \\    /   O peration     | Website:  https://openfoam.org
    \\  /    A nd           | Version:  12
     \\/     M anipulation  |
\*---------------------------------------------------------------------------*/
FoamFile
{
    format      ascii;
    class       surfaceScalarField;
    location    "1.3";
    object      phi;
}
// * * * * * * * * * * * * * * * * * * * * * * * * * * * * * * * * * * * * * //

dimensions      [0 3 -1 0 0 0 0];

internalField   nonuniform List<scalar> 
1740
(
4.89146e-09
-4.8914e-09
3.44618e-09
1.44528e-09
-9.24537e-09
1.26916e-08
-3.31627e-08
2.39174e-08
-6.64242e-08
3.32615e-08
-1.0649e-07
4.00659e-08
-1.50655e-07
4.41644e-08
-1.96291e-07
4.56363e-08
-2.40979e-07
4.46879e-08
-2.82568e-07
4.15893e-08
-3.19211e-07
3.66427e-08
-3.49377e-07
3.01658e-08
-3.7186e-07
2.24834e-08
-3.85784e-07
1.39241e-08
-3.90608e-07
4.8234e-09
-3.86121e-07
-4.48698e-09
-3.7246e-07
-1.36606e-08
-3.50112e-07
-2.23483e-08
-3.19918e-07
-3.01933e-08
-2.83083e-07
-3.6835e-08
-2.41169e-07
-4.19147e-08
-1.96084e-07
-4.50849e-08
-1.5006e-07
-4.60241e-08
-1.05601e-07
-4.44584e-08
-6.54041e-08
-4.01974e-08
-3.22064e-08
-3.31976e-08
-8.52829e-09
-2.36782e-08
3.83143e-09
-1.23597e-08
4.99255e-09
-1.16112e-09
4.99255e-09
-1.13413e-09
-3.75728e-09
-2.05031e-08
2.08142e-08
-6.50075e-08
5.7196e-08
-1.34349e-07
9.32586e-08
-2.24718e-07
1.23631e-07
-3.30612e-07
1.4596e-07
-4.45856e-07
1.59409e-07
-5.64224e-07
1.64003e-07
-6.79804e-07
1.60268e-07
-7.87235e-07
1.4902e-07
-8.81834e-07
1.31242e-07
-9.59685e-07
1.08017e-07
-1.01768e-06
8.04796e-08
-1.05356e-06
4.98005e-08
-1.06591e-06
1.71797e-08
-1.05423e-06
-1.6172e-08
-1.01887e-06
-4.90151e-08
-9.61131e-07
-8.00919e-08
-8.83193e-07
-1.08132e-07
-7.88163e-07
-1.31865e-07
-6.80027e-07
-1.5005e-07
-5.63597e-07
-1.61515e-07
-4.44404e-07
-1.65217e-07
-3.28535e-07
-1.60327e-07
-2.22362e-07
-1.46371e-07
-1.32126e-07
-1.23434e-07
-6.3293e-08
-9.25111e-08
-1.95121e-08
-5.61406e-08
-8.18091e-10
-1.98552e-08
4.17445e-09
-1.21015e-08
8.34421e-09
-5.66675e-08
6.53802e-08
-1.36969e-07
1.37497e-07
-2.51054e-07
2.07344e-07
-3.93429e-07
2.66006e-07
-5.56533e-07
3.09063e-07
-7.31827e-07
3.34703e-07
-9.10571e-07
3.42748e-07
-1.08436e-06
3.34053e-07
-1.24546e-06
3.10123e-07
-1.38708e-06
2.72864e-07
-1.50349e-06
2.24431e-07
-1.59014e-06
1.67127e-07
-1.64369e-06
1.03353e-07
-1.66209e-06
3.55764e-08
-1.64457e-06
-3.36883e-08
-1.59171e-06
-1.01881e-07
-1.50539e-06
-1.66408e-07
-1.38886e-06
-2.24662e-07
-1.24667e-06
-2.74056e-07
-1.08463e-06
-3.12089e-07
-9.09712e-07
-3.36435e-07
-7.29855e-07
-3.45073e-07
-5.53704e-07
-3.36479e-07
-3.90191e-07
-3.09884e-07
-2.47956e-07
-2.65668e-07
-1.34527e-07
-2.0594e-07
-5.52067e-08
-1.35461e-07
-1.16049e-08
-6.3457e-08
-7.43045e-09
-2.37087e-08
3.20529e-08
-9.51377e-08
1.36809e-07
-2.12512e-07
2.54872e-07
-3.70917e-07
3.65748e-07
-5.62675e-07
4.57765e-07
-7.7826e-07
5.24647e-07
-1.00719e-06
5.63634e-07
-1.23879e-06
5.74351e-07
-1.46278e-06
5.5804e-07
-1.66967e-06
5.17013e-07
-1.85109e-06
4.54281e-07
-1.99996e-06
3.73297e-07
-2.11063e-06
2.77801e-07
-2.17898e-06
1.71708e-07
-2.20247e-06
5.90605e-08
-2.18014e-06
-5.60136e-08
-2.11271e-06
-1.69314e-07
-2.00253e-06
-2.76591e-07
-1.8536e-06
-3.73586e-07
-1.67157e-06
-4.56094e-07
-1.46358e-06
-5.20073e-07
-1.23822e-06
-5.61794e-07
-1.00523e-06
-5.78067e-07
-7.75174e-07
-5.66535e-07
-5.58975e-07
-5.26083e-07
-3.67258e-07
-4.57385e-07
-2.09545e-07
-3.63653e-07
-9.33105e-08
-2.51695e-07
-2.30678e-08
-1.337e-07
-3.04982e-08
-3.4726e-08
6.67789e-08
-1.32631e-07
2.34714e-07
-2.86867e-07
4.09108e-07
-4.88931e-07
5.67812e-07
-7.28484e-07
6.97319e-07
-9.93847e-07
7.9001e-07
-1.27267e-06
8.42458e-07
-1.5526e-06
8.54277e-07
-1.82181e-06
8.27251e-07
-2.06945e-06
7.6466e-07
-2.28597e-06
6.70792e-07
-2.46326e-06
5.50596e-07
-2.59491e-06
4.09447e-07
-2.6762e-06
2.52994e-07
-2.70421e-06
8.70714e-08
-2.67786e-06
-8.23558e-08
-2.59796e-06
-2.4922e-07
-2.46716e-06
-4.0739e-07
-2.29002e-06
-5.50724e-07
-2.07295e-06
-6.73169e-07
-1.8241e-06
-7.68917e-07
-1.55327e-06
-8.32625e-07
-1.2716e-06
-8.59735e-07
-9.91255e-07
-8.46881e-07
-7.24906e-07
-7.92433e-07
-4.85117e-07
-6.97175e-07
-2.83613e-07
-5.65157e-07
-1.30546e-07
-4.04762e-07
-3.39669e-08
-2.30279e-07
-6.44651e-08
-4.49898e-08
1.11769e-07
-1.68426e-07
3.58151e-07
-3.5879e-07
5.99472e-07
-6.03795e-07
8.12817e-07
-8.90121e-07
9.83644e-07
-1.20371e-06
1.10359e-06
-1.53026e-06
1.16901e-06
-1.85581e-06
1.17983e-06
-2.16719e-06
1.13863e-06
-2.45241e-06
1.04989e-06
-2.701e-06
9.19373e-07
-2.90411e-06
7.5371e-07
-3.05475e-06
5.60083e-07
-3.14778e-06
3.46031e-07
-3.18004e-06
1.19333e-07
-3.15034e-06
-1.12061e-07
-3.05949e-06
-3.40068e-07
-2.91036e-06
-5.56517e-07
-2.70787e-06
-7.53222e-07
-2.45893e-06
-9.22103e-07
-2.17246e-06
-1.05539e-06
-1.85918e-06
-1.14591e-06
-1.5314e-06
-1.18751e-06
-1.20273e-06
-1.17556e-06
-8.87536e-07
-1.10763e-06
-6.00431e-07
-9.84279e-07
-3.55607e-07
-8.0998e-07
-1.66244e-07
-5.94125e-07
-4.41508e-08
-3.52372e-07
-1.08616e-07
-5.46679e-08
1.66437e-07
-2.02803e-07
5.06286e-07
-4.28622e-07
8.2529e-07
-7.1603e-07
1.10023e-06
-1.04853e-06
1.31614e-06
-1.40948e-06
1.46454e-06
-1.78252e-06
1.54206e-06
-2.15208e-06
1.54938e-06
-2.50371e-06
1.49026e-06
-2.82446e-06
1.37064e-06
-3.10311e-06
1.19802e-06
-3.33029e-06
9.80892e-07
-3.4986e-06
7.28394e-07
-3.60265e-06
4.50077e-07
-3.63908e-06
1.55761e-07
-3.6066e-06
-1.44536e-07
-3.50603e-06
-4.40637e-07
-3.34031e-06
-7.22241e-07
-3.11453e-06
-9.79004e-07
-2.83595e-06
-1.20068e-06
-2.514e-06
-1.37734e-06
-2.16014e-06
-1.49977e-06
-1.78772e-06
-1.55993e-06
-1.41169e-06
-1.55159e-06
-1.04817e-06
-1.47114e-06
-7.13993e-07
-1.31846e-06
-4.26043e-07
-1.09793e-06
-2.00773e-07
-8.19395e-07
-5.38124e-08
-4.99333e-07
-1.62428e-07
-6.4031e-08
2.30467e-07
-2.36425e-07
6.7868e-07
-4.97378e-07
1.08624e-06
-8.26981e-07
1.42983e-06
-1.20541e-06
1.69457e-06
-1.61328e-06
1.87242e-06
-2.03208e-06
1.96086e-06
-2.44455e-06
1.96186e-06
-2.83506e-06
1.88076e-06
-3.18981e-06
1.72539e-06
-3.49701e-06
1.50521e-06
-3.74691e-06
1.2308e-06
-3.93191e-06
9.13388e-07
-4.04645e-06
5.64617e-07
-4.08708e-06
1.96391e-07
-4.05243e-06
-1.79184e-07
-3.94325e-06
-5.49817e-07
-3.76244e-06
-9.03049e-07
-3.51513e-06
-1.22631e-06
-3.20873e-06
-1.50708e-06
-2.85296e-06
-1.73311e-06
-2.45987e-06
-1.89286e-06
-2.04371e-06
-1.97609e-06
-1.62076e-06
-1.97454e-06
-1.20895e-06
-1.88294e-06
-8.27474e-07
-1.69994e-06
-4.96152e-07
-1.42925e-06
-2.34909e-07
-1.08064e-06
-6.32562e-08
-6.70985e-07
-2.25685e-07
-7.33613e-08
3.03829e-07
-2.70053e-07
8.75372e-07
-5.66289e-07
1.38248e-06
-9.3826e-07
1.8018e-06
-1.36267e-06
2.11898e-06
-1.81723e-06
2.32698e-06
-2.28117e-06
2.4248e-06
-2.73557e-06
2.41626e-06
-3.16365e-06
2.30885e-06
-3.55091e-06
2.11265e-06
-3.88515e-06
1.83945e-06
-4.15647e-06
1.50212e-06
-4.35718e-06
1.1141e-06
-4.48172e-06
6.89164e-07
-4.52663e-06
2.41297e-07
-4.49046e-06
-2.15351e-07
-4.37385e-06
-6.6643e-07
-4.17955e-06
-1.09735e-06
-3.91253e-06
-1.49333e-06
-3.58016e-06
-1.83946e-06
-3.19226e-06
-2.12101e-06
-2.76125e-06
-2.32387e-06
-2.30217e-06
-2.43516e-06
-1.83256e-06
-2.44416e-06
-1.37222e-06
-2.34328e-06
-9.42844e-07
-2.12932e-06
-5.67408e-07
-1.80469e-06
-2.69542e-07
-1.3785e-06
-7.28045e-08
-8.67723e-07
-2.98489e-07
-8.29194e-08
3.86748e-07
-3.04427e-07
1.09688e-06
-6.3657e-07
1.71462e-06
-1.05143e-06
2.21666e-06
-1.52203e-06
2.58958e-06
-2.02304e-06
2.82799e-06
-2.53135e-06
2.9331e-06
-3.0264e-06
2.9113e-06
-3.49038e-06
2.77283e-06
-3.90825e-06
2.53052e-06
-4.26766e-06
2.19886e-06
-4.55873e-06
1.79319e-06
-4.77392e-06
1.32929e-06
-4.90784e-06
8.23079e-07
-4.95707e-06
2.90526e-07
-4.92013e-06
-2.52288e-07
-4.79748e-06
-7.89077e-07
-4.5916e-06
-1.30324e-06
-4.30712e-06
-1.7778e-06
-3.9511e-06
-2.19547e-06
-3.53323e-06
-2.53889e-06
-3.06605e-06
-2.79104e-06
-2.56518e-06
-2.93603e-06
-2.04933e-06
-2.96001e-06
-1.54018e-06
-2.85243e-06
-1.06204e-06
-2.60746e-06
-6.41284e-07
-2.22544e-06
-3.05552e-07
-1.71424e-06
-8.27617e-08
-1.09051e-06
-3.81251e-07
-9.29398e-08
4.79688e-07
-3.40224e-07
1.34416e-06
-7.09332e-07
2.08373e-06
-1.16787e-06
2.67521e-06
-1.6849e-06
3.1066e-06
-2.23186e-06
3.37495e-06
-2.78325e-06
3.4845e-06
-3.31698e-06
3.44503e-06
-3.81439e-06
3.27024e-06
-4.26016e-06
2.9763e-06
-4.64205e-06
2.58075e-06
-4.95054e-06
2.10167e-06
-5.17846e-06
1.55722e-06
-5.32078e-06
9.65392e-07
-5.37426e-06
3.44011e-07
-5.33743e-06
-2.89119e-07
-5.2105e-06
-9.16003e-07
-4.99552e-06
-1.51822e-06
-4.69657e-06
-2.07675e-06
-4.3201e-06
-2.57195e-06
-3.87531e-06
-2.98367e-06
-3.37458e-06
-3.29178e-06
-2.8338e-06
-3.47681e-06
-2.27266e-06
-3.52115e-06
-1.71464e-06
-3.41045e-06
-1.18679e-06
-3.13531e-06
-7.19152e-07
-2.69308e-06
-3.43764e-07
-2.08962e-06
-9.34092e-08
-1.34087e-06
-4.7466e-07
-1.03642e-07
5.8333e-07
-3.78075e-07
1.6186e-06
-7.8557e-07
2.49122e-06
-1.28872e-06
3.17835e-06
-1.8522e-06
3.67009e-06
-2.44406e-06
3.9668e-06
-3.03639e-06
4.07684e-06
-3.60572e-06
4.01435e-06
-4.13283e-06
3.79735e-06
-4.6025e-06
3.44597e-06
-5.00299e-06
2.98124e-06
-5.32549e-06
2.42417e-06
-5.56358e-06
1.79531e-06
-5.7128e-06
1.11461e-06
-5.77028e-06
4.0149e-07
-5.73457e-06
-3.24828e-07
-5.6056e-06
-1.04497e-06
-5.38481e-06
-1.73901e-06
-5.07544e-06
-2.38613e-06
-4.68298e-06
-2.96441e-06
-4.21572e-06
-3.45093e-06
-3.6854e-06
-3.8221e-06
-3.1078e-06
-4.05441e-06
-2.50324e-06
-4.12571e-06
-1.89688e-06
-4.01681e-06
-1.31856e-06
-3.71363e-06
-8.02251e-07
-3.20939e-06
-3.8495e-07
-2.50692e-06
-1.05014e-07
-1.6208e-06
-5.79674e-07
-1.15248e-07
6.98577e-07
-4.18599e-07
1.92195e-06
-8.66203e-07
2.93883e-06
-1.41486e-06
3.72701e-06
-2.02438e-06
4.27961e-06
-2.65915e-06
4.60157e-06
-3.28895e-06
4.70664e-06
-3.88916e-06
4.61456e-06
-4.44048e-06
4.34866e-06
-4.92827e-06
3.93376e-06
-5.34182e-06
3.39479e-06
-5.67352e-06
2.75587e-06
-5.91811e-06
2.0399e-06
-6.07201e-06
1.26851e-06
-6.13292e-06
4.62397e-07
-6.09949e-06
-3.58255e-07
-5.9713e-06
-1.17316e-06
-5.749e-06
-1.96131e-06
-5.43466e-06
-2.70047e-06
-5.03235e-06
-3.36672e-06
-4.54893e-06
-3.93435e-06
-3.99489e-06
-4.37613e-06
-3.38533e-06
-4.66398e-06
-2.74072e-06
-4.77031e-06
-2.08757e-06
-4.66997e-06
-1.45848e-06
-4.34272e-06
-8.91709e-07
-3.77616e-06
-4.29863e-07
-2.96877e-06
-1.17846e-07
-1.93282e-06
-6.9752e-07
-1.28009e-07
8.26586e-07
-4.62465e-07
2.2564e-06
-9.52139e-07
3.4285e-06
-1.54701e-06
4.32188e-06
-2.20134e-06
4.93395e-06
-2.87565e-06
5.27588e-06
-3.53754e-06
5.36852e-06
-4.16171e-06
5.23874e-06
-4.72936e-06
4.91631e-06
-5.22716e-06
4.43155e-06
-5.64609e-06
3.81372e-06
-5.98035e-06
3.09014e-06
-6.22634e-06
2.28588e-06
-6.38176e-06
1.42394e-06
-6.44511e-06
5.25746e-07
-6.41526e-06
-3.8811e-07
-6.29137e-06
-1.29705e-06
-6.07308e-06
-2.1796e-06
-5.76092e-06
-3.01263e-06
-5.35705e-06
-3.77059e-06
-4.86619e-06
-4.42522e-06
-4.29684e-06
-4.94547e-06
-3.6626e-06
-5.29822e-06
-2.9834e-06
-5.44951e-06
-2.28658e-06
-5.36679e-06
-1.60736e-06
-5.02193e-06
-9.88575e-07
-4.39495e-06
-4.7928e-07
-3.47807e-06
-1.322e-07
-2.2799e-06
-8.29719e-07
-1.42248e-07
9.68834e-07
-5.10484e-07
2.62464e-06
-1.04438e-06
3.9624e-06
-1.68571e-06
4.9632e-06
-2.38239e-06
5.63062e-06
-3.09086e-06
5.98435e-06
-3.77687e-06
6.05454e-06
-4.41514e-06
5.87701e-06
-4.98821e-06
5.48938e-06
-5.48494e-06
4.92829e-06
-5.89892e-06
4.2277e-06
-6.22687e-06
3.4181e-06
-6.46744e-06
2.52645e-06
-6.62008e-06
1.57658e-06
-6.68434e-06
5.90011e-07
-6.65944e-06
-4.1301e-07
-6.5441e-06
-1.41239e-06
-6.33673e-06
-2.38697e-06
-6.03594e-06
-3.31341e-06
-5.64135e-06
-4.16519e-06
-5.15478e-06
-4.91179e-06
-4.58177e-06
-5.51848e-06
-3.93337e-06
-5.94662e-06
-3.22795e-06
-6.15493e-06
-2.49289e-06
-6.10186e-06
-1.76565e-06
-5.74917e-06
-1.09389e-06
-5.06671e-06
-5.34077e-07
-4.03787e-06
-1.48431e-07
-2.66555e-06
-9.78151e-07
-1.58406e-07
1.12724e-06
-5.63723e-07
3.02996e-06
-1.14415e-06
4.54282e-06
-1.8314e-06
5.65046e-06
-2.56611e-06
6.36534e-06
-3.30057e-06
6.71881e-06
-3.99927e-06
6.75324e-06
-4.63795e-06
6.51569e-06
-5.20169e-06
6.05312e-06
-5.68274e-06
5.40934e-06
-6.07826e-06
4.62322e-06
-6.38842e-06
3.72826e-06
-6.61474e-06
2.75277e-06
-6.75891e-06
1.72075e-06
-6.82186e-06
6.52961e-07
-6.80331e-06
-4.31564e-07
-6.70154e-06
-1.51416e-06
-6.51355e-06
-2.57496e-06
-6.23559e-06
-3.59138e-06
-5.86411e-06
-4.53666e-06
-5.39715e-06
-5.37875e-06
-4.83616e-06
-6.07947e-06
-4.18828e-06
-6.59449e-06
-3.46893e-06
-6.87428e-06
-2.70431e-06
-6.86648e-06
-1.9334e-06
-6.52009e-06
-1.20873e-06
-5.79138e-06
-5.95327e-07
-4.65128e-06
-1.67006e-07
-3.09387e-06
-1.14516e-06
-1.77133e-07
1.30437e-06
-6.23675e-07
3.4765e-06
-1.253e-06
5.17215e-06
-1.98439e-06
6.38185e-06
-2.75012e-06
7.13107e-06
-3.49853e-06
7.46721e-06
-4.19391e-06
7.44862e-06
-4.81449e-06
7.13627e-06
-5.34951e-06
6.58814e-06
-5.79601e-06
5.85584e-06
-6.15599e-06
4.9832e-06
-6.43396e-06
4.00623e-06
-6.63504e-06
2.95385e-06
-6.76359e-06
1.84929e-06
-6.82228e-06
7.11656e-07
-6.81146e-06
-4.4238e-07
-6.72896e-06
-1.59666e-06
-6.57025e-06
-2.73367e-06
-6.32894e-06
-3.8327e-06
-5.99769e-06
-4.8679e-06
-5.56981e-06
-5.80663e-06
-5.04134e-06
-6.60795e-06
-4.41389e-06
-7.22194e-06
-3.69805e-06
-7.59011e-06
-2.91707e-06
-7.64746e-06
-2.11012e-06
-7.32704e-06
-1.33434e-06
-6.56716e-06
-6.64431e-07
-5.32119e-06
-1.88575e-07
-3.56972e-06
-1.33373e-06
-1.99408e-07
1.50378e-06
-6.92476e-07
3.96957e-06
-1.373e-06
5.85267e-06
-2.14471e-06
7.15355e-06
-2.93052e-06
7.91688e-06
-3.67553e-06
8.21223e-06
-4.3456e-06
8.11869e-06
-4.92362e-06
7.71429e-06
-5.405e-06
7.06952e-06
-5.79336e-06
6.2442e-06
-6.09685e-06
5.28669e-06
-6.32525e-06
4.23462e-06
-6.4879e-06
3.1165e-06
-6.59224e-06
1.95363e-06
-6.64284e-06
7.62263e-07
-6.6409e-06
-4.44327e-07
-6.5839e-06
-1.65365e-06
-6.46578e-06
-2.8518e-06
-6.27723e-06
-4.02124e-06
-6.00671e-06
-5.13842e-06
-5.6419e-06
-6.17144e-06
-5.17204e-06
-7.0778e-06
-4.59131e-06
-7.80268e-06
-3.90308e-06
-8.27834e-06
-3.12506e-06
-8.42549e-06
-2.29447e-06
-8.15763e-06
-1.47209e-06
-7.38954e-06
-7.43309e-07
-6.04997e-06
-2.14093e-07
-4.09894e-06
-1.54783e-06
-2.2674e-07
1.73052e-06
-7.73202e-07
4.51603e-06
-1.50675e-06
6.58622e-06
-2.31164e-06
7.95845e-06
-3.1008e-06
8.70604e-06
-3.81781e-06
8.92924e-06
-4.43293e-06
8.73381e-06
-4.93672e-06
8.21807e-06
-5.33336e-06
7.46617e-06
-5.635e-06
6.54584e-06
-5.85722e-06
5.5089e-06
-6.01586e-06
4.39326e-06
-6.1249e-06
3.22554e-06
-6.19508e-06
2.02381e-06
-6.23303e-06
8.00218e-07
-6.24088e-06
-4.36485e-07
-6.21591e-06
-1.67861e-06
-6.1506e-06
-2.91711e-06
-6.03285e-06
-4.13899e-06
-5.84665e-06
-5.32463e-06
-5.57343e-06
-6.44466e-06
-5.19442e-06
-7.45681e-06
-4.69421e-06
-8.30289e-06
-4.06604e-06
-8.90651e-06
-3.31858e-06
-9.17295e-06
-2.48368e-06
-8.99253e-06
-1.62351e-06
-8.24971e-06
-8.34643e-07
-6.83883e-06
-2.45003e-07
-4.68858e-06
-1.79283e-06
-2.6147e-07
1.99199e-06
-8.70215e-07
5.12477e-06
-1.65721e-06
7.37321e-06
-2.48264e-06
8.78388e-06
-3.24985e-06
9.47325e-06
-3.90439e-06
9.58377e-06
-4.42533e-06
9.25476e-06
-4.81493e-06
8.60767e-06
-5.08924e-06
7.74048e-06
-5.27086e-06
6.72746e-06
-5.38387e-06
5.62191e-06
-5.45057e-06
4.45997e-06
-5.48961e-06
3.26458e-06
-5.5149e-06
2.04909e-06
-5.53506e-06
8.20377e-07
-5.55315e-06
-4.1839e-07
-5.56648e-06
-1.66529e-06
-5.56642e-06
-2.91717e-06
-5.53844e-06
-4.16698e-06
-5.46236e-06
-5.40071e-06
-5.31325e-06
-6.59376e-06
-5.0634e-06
-7.70666e-06
-4.6859e-06
-8.68039e-06
-4.16049e-06
-9.43192e-06
-3.48215e-06
-9.85128e-06
-2.6722e-06
-9.80249e-06
-1.78993e-06
-9.13198e-06
-9.42162e-07
-7.6866e-06
-2.83536e-07
-5.34721e-06
-2.07636e-06
-3.07252e-07
2.29924e-06
-9.89516e-07
5.80704e-06
-1.82697e-06
8.21066e-06
-2.65103e-06
9.60794e-06
-3.35831e-06
1.01805e-05
-3.90271e-06
1.01282e-05
-4.27866e-06
9.63071e-06
-4.50523e-06
8.83424e-06
-4.61358e-06
7.84883e-06
-4.6384e-06
6.75228e-06
-4.61268e-06
5.59619e-06
-4.56486e-06
4.41216e-06
-4.51763e-06
3.21735e-06
-4.48745e-06
2.01891e-06
-4.48451e-06
8.17436e-07
-4.51273e-06
-3.90164e-07
-4.56968e-06
-1.60834e-06
-4.64626e-06
-2.84059e-06
-4.72638e-06
-4.08685e-06
-4.78666e-06
-5.34043e-06
-4.79652e-06
-6.5839e-06
-4.7193e-06
-7.78388e-06
-4.51519e-06
-8.8845e-06
-4.1471e-06
-9.80001e-06
-3.59065e-06
-1.04077e-05
-2.84919e-06
-1.05439e-05
-1.97151e-06
-1.00097e-05
-1.07089e-06
-8.58722e-06
-3.33157e-07
-6.08493e-06
-2.40952e-06
-3.69762e-07
2.66901e-06
-1.13882e-06
6.5761e-06
-2.01616e-06
9.088e-06
-2.80112e-06
1.03929e-05
-3.39193e-06
1.07713e-05
-3.76151e-06
1.04978e-05
-3.92863e-06
9.79782e-06
-3.93503e-06
8.84065e-06
-3.82984e-06
7.74363e-06
-3.66037e-06
6.58281e-06
-3.46769e-06
5.40351e-06
-3.28499e-06
4.22946e-06
-3.13747e-06
3.06983e-06
-3.04286e-06
1.9243e-06
-3.0121e-06
7.86674e-07
-3.04968e-06
-3.52589e-07
-3.1537e-06
-1.50432e-06
-3.31553e-06
-2.67876e-06
-3.51899e-06
-3.8834e-06
-3.73931e-06
-5.1201e-06
-3.94222e-06
-6.381e-06
-4.08353e-06
-7.64257e-06
-4.1106e-06
-8.85743e-06
-3.96704e-06
-9.94357e-06
-3.60281e-06
-1.0772e-05
-2.99357e-06
-1.11532e-05
-2.16482e-06
-1.08384e-05
-1.22701e-06
-9.52503e-06
-3.99243e-07
-6.91271e-06
-2.80876e-06
-4.57668e-07
3.12667e-06
-1.32654e-06
7.44497e-06
-2.21657e-06
9.97803e-06
-2.89885e-06
1.10752e-05
-3.29038e-06
1.11629e-05
-3.39979e-06
1.06072e-05
-3.2816e-06
9.67963e-06
-3.00552e-06
8.56457e-06
-2.63976e-06
7.37787e-06
-2.24277e-06
6.18582e-06
-1.86094e-06
5.02169e-06
-1.52922e-06
3.89774e-06
-1.27271e-06
2.81331e-06
-1.10842e-06
1.76001e-06
-1.04672e-06
7.24977e-07
-1.09217e-06
-3.07137e-07
-1.24375e-06
-1.35274e-06
-1.49439e-06
-2.42812e-06
-1.82983e-06
-3.54795e-06
-2.22683e-06
-4.7231e-06
-2.65083e-06
-5.957e-06
-3.05372e-06
-7.23968e-06
-3.3726e-06
-8.53855e-06
-3.53166e-06
-9.78451e-06
-3.45052e-06
-1.08531e-05
-3.06422e-06
-1.15395e-05
-2.35709e-06
-1.15455e-05
-1.41665e-06
-1.04655e-05
-4.89987e-07
-7.83937e-06
-3.29875e-06
-5.83573e-07
3.71025e-06
-1.55709e-06
8.41848e-06
-2.39906e-06
1.082e-05
-2.87402e-06
1.15501e-05
-2.94897e-06
1.12378e-05
-2.69134e-06
1.03495e-05
-2.2026e-06
9.19089e-06
-1.5839e-06
7.94587e-06
-9.19683e-07
6.71365e-06
-2.7429e-07
5.54043e-06
3.06003e-07
4.4414e-06
7.89265e-07
3.41448e-06
1.15421e-06
2.44836e-06
1.38718e-06
1.52704e-06
1.48002e-06
6.32142e-07
1.42879e-06
-2.55911e-07
1.23343e-06
-1.15738e-06
8.98176e-07
-2.09287e-06
4.32976e-07
-3.08275e-06
-1.44107e-07
-4.14602e-06
-8.03364e-07
-5.29774e-06
-1.49897e-06
-6.54407e-06
-2.16426e-06
-7.87326e-06
-2.70863e-06
-9.24014e-06
-3.02029e-06
-1.05415e-05
-2.9817e-06
-1.15781e-05
-2.51308e-06
-1.20142e-05
-1.64095e-06
-1.13376e-05
-6.17208e-07
-8.86311e-06
-3.91596e-06
-7.62153e-07
4.4724e-06
-1.81613e-06
9.47246e-06
-2.48654e-06
1.14904e-05
-2.58736e-06
1.1651e-05
-2.18712e-06
1.08376e-05
-1.43878e-06
9.60119e-06
-4.99519e-07
8.25163e-06
5.03899e-07
6.94245e-06
1.48094e-06
5.73662e-06
2.37144e-06
4.64992e-06
3.13762e-06
3.67521e-06
3.75682e-06
2.79528e-06
4.21595e-06
1.98924e-06
4.50758e-06
1.23541e-06
4.62745e-06
5.1227e-07
4.57304e-06
-2.01499e-07
4.34307e-06
-9.27416e-07
3.93794e-06
-1.68773e-06
3.36097e-06
-2.50578e-06
2.62106e-06
-3.40611e-06
1.73689e-06
-4.41357e-06
7.43173e-07
-5.55036e-06
-3.00928e-07
-6.82916e-06
-1.30215e-06
-8.23892e-06
-2.12584e-06
-9.71776e-06
-2.5986e-06
-1.11053e-05
-2.54553e-06
-1.20672e-05
-1.88091e-06
-1.20022e-05
-7.94049e-07
-9.94997e-06
-4.71001e-06
-9.95338e-07
5.46774e-06
-2.02875e-06
1.05059e-05
-2.29174e-06
1.17534e-05
-1.76653e-06
1.11258e-05
-6.97038e-07
9.7681e-06
6.55074e-07
8.24908e-06
2.0893e-06
6.8174e-06
3.47487e-06
5.55688e-06
4.73473e-06
4.47677e-06
5.82788e-06
3.55677e-06
6.73531e-06
2.76778e-06
7.45019e-06
2.0804e-06
7.97154e-06
1.46788e-06
8.30047e-06
9.06488e-07
8.43784e-06
3.74894e-07
8.38316e-06
-1.46811e-07
8.13405e-06
-6.7831e-07
7.68657e-06
-1.24026e-06
7.036e-06
-1.85521e-06
6.17896e-06
-2.54907e-06
5.11727e-06
-3.35188e-06
3.86455e-06
-4.29764e-06
2.45693e-06
-5.42154e-06
9.68935e-07
-6.75092e-06
-4.65912e-07
-8.28291e-06
-1.63608e-06
-9.93514e-06
-2.25596e-06
-1.14473e-05
-2.05036e-06
-1.22078e-05
-1.01888e-06
-1.09815e-05
-5.72889e-06
-1.23625e-06
6.70398e-06
-1.96003e-06
1.12297e-05
-1.38641e-06
1.11798e-05
1.02844e-07
9.6365e-06
2.01587e-06
7.85507e-06
4.01128e-06
6.25366e-06
5.89643e-06
4.93226e-06
7.57784e-06
3.87546e-06
9.02025e-06
3.03436e-06
1.02187e-05
2.35832e-06
1.11819e-05
1.80456e-06
1.19231e-05
1.33925e-06
1.2455e-05
9.35986e-07
1.27877e-05
5.73796e-07
1.29273e-05
2.35273e-07
1.28755e-05
-9.50057e-08
1.26291e-05
-4.31961e-07
1.21805e-05
-7.91668e-07
1.15173e-05
-1.19193e-06
1.06231e-05
-1.65492e-06
9.48023e-06
-2.20899e-06
8.07364e-06
-2.89106e-06
6.40069e-06
-3.74859e-06
4.48874e-06
-4.83897e-06
2.42564e-06
-6.21981e-06
4.05695e-07
-7.91519e-06
-1.21422e-06
-9.82743e-06
-1.90378e-06
-1.15183e-05
-1.23834e-06
-1.16469e-05
-6.96722e-06
-1.34108e-06
8.04506e-06
-9.61919e-07
1.08505e-05
1.1574e-06
9.06044e-06
3.92664e-06
6.86727e-06
6.69014e-06
5.09156e-06
9.17492e-06
3.76889e-06
1.12972e-05
2.81002e-06
1.30571e-05
2.11554e-06
1.44875e-05
1.60399e-06
1.56288e-05
1.21696e-06
1.65188e-05
9.14539e-07
1.71886e-05
6.69525e-07
1.76616e-05
4.62956e-07
1.79543e-05
2.81056e-07
1.80764e-05
1.13169e-07
1.80311e-05
-4.97117e-08
1.78151e-05
-2.15912e-07
1.74188e-05
-3.95356e-07
1.6825e-05
-5.98161e-07
1.60086e-05
-8.38531e-07
1.49357e-05
-1.1361e-06
1.35639e-05
-1.51923e-06
1.18453e-05
-2.02998e-06
9.73691e-06
-2.73058e-06
7.22626e-06
-3.70916e-06
4.38639e-06
-5.07532e-06
1.48777e-06
-6.92881e-06
-7.94182e-07
-9.23631e-06
-1.30331e-06
-1.11378e-05
-8.27053e-06
-4.40374e-07
8.48543e-06
2.9557e-06
7.45443e-06
7.30286e-06
4.71328e-06
1.11662e-05
3.00391e-06
1.42836e-05
1.97417e-06
1.67226e-05
1.32993e-06
1.8611e-05
9.21602e-07
2.00696e-05
6.56874e-07
2.11952e-05
4.78456e-07
2.20596e-05
3.52535e-07
2.27149e-05
2.59273e-07
2.31977e-05
1.86713e-07
2.35333e-05
1.27329e-07
2.37383e-05
7.61076e-08
2.3822e-05
2.94419e-08
2.37879e-05
-1.56445e-08
2.36335e-05
-6.15019e-08
2.335e-05
-1.11814e-07
2.29214e-05
-1.6962e-07
2.23228e-05
-2.3993e-07
2.1517e-05
-3.30307e-07
2.04505e-05
-4.52732e-07
1.90478e-05
-6.27213e-07
1.72054e-05
-8.88199e-07
1.47911e-05
-1.29491e-06
1.16604e-05
-1.94463e-06
7.72775e-06
-2.99613e-06
3.24168e-06
-4.75024e-06
-3.35706e-07
-7.56039e-06
-8.60624e-06
8.48543e-06
1.59399e-05
2.06531e-05
2.36571e-05
2.56312e-05
2.69612e-05
2.78828e-05
2.85396e-05
2.90181e-05
2.93706e-05
2.96299e-05
2.98166e-05
2.99439e-05
3.002e-05
3.00495e-05
3.00338e-05
2.99723e-05
2.98605e-05
2.96909e-05
2.9451e-05
2.91207e-05
2.86679e-05
2.80407e-05
2.71525e-05
2.58576e-05
2.3913e-05
2.09169e-05
1.61666e-05
8.60624e-06
)
;

boundaryField
{
    movingWall
    {
        type            calculated;
        value           uniform 0;
    }
    fixedWalls
    {
        type            calculated;
        value           uniform 0;
    }
    frontAndBack
    {
        type            empty;
    }
}


// ************************************************************************* //
