/*--------------------------------*- C++ -*----------------------------------*\
  =========                 |
  \\      /  F ield         | OpenFOAM: The Open Source CFD Toolbox
   \\    /   O peration     | Website:  https://openfoam.org
    \\  /    A nd           | Version:  12
     \\/     M anipulation  |
\*---------------------------------------------------------------------------*/
FoamFile
{
    format      ascii;
    class       volScalarField;
    location    "2.5";
    object      k;
}
// * * * * * * * * * * * * * * * * * * * * * * * * * * * * * * * * * * * * * //

dimensions      [0 2 -2 0 0 0 0];

internalField   nonuniform List<scalar> 
5625
(
3.84011e-10
2.59587e-09
5.76747e-09
9.51744e-09
1.36559e-08
1.8058e-08
2.26338e-08
2.73206e-08
3.20791e-08
3.6893e-08
4.17678e-08
4.67301e-08
5.18257e-08
5.71188e-08
6.26897e-08
6.86329e-08
7.50561e-08
8.20775e-08
8.98251e-08
9.84349e-08
1.0805e-07
1.18819e-07
1.30896e-07
1.44437e-07
1.596e-07
1.76542e-07
1.95418e-07
2.16376e-07
2.39556e-07
2.65085e-07
2.93079e-07
3.23638e-07
3.56843e-07
3.92763e-07
4.31447e-07
4.72931e-07
5.17234e-07
5.64363e-07
6.14304e-07
6.67024e-07
7.22463e-07
7.80524e-07
8.41064e-07
9.03875e-07
9.68664e-07
1.03503e-06
1.10243e-06
1.17016e-06
1.23731e-06
1.30273e-06
1.365e-06
1.42243e-06
1.47297e-06
1.51412e-06
1.54206e-06
1.55467e-06
1.55527e-06
1.53554e-06
1.49428e-06
1.43131e-06
1.34726e-06
1.24401e-06
1.12484e-06
9.94356e-07
8.58039e-07
7.21709e-07
5.90833e-07
4.69903e-07
3.62015e-07
2.68709e-07
1.90101e-07
1.25265e-07
7.28525e-08
3.20247e-08
4.71708e-09
2.90182e-09
2.31141e-08
5.17429e-08
8.55271e-08
1.22791e-07
1.62418e-07
2.03603e-07
2.45781e-07
2.88601e-07
3.31915e-07
3.75775e-07
4.20417e-07
4.66257e-07
5.13872e-07
5.63984e-07
6.17445e-07
6.75221e-07
7.38378e-07
8.08068e-07
8.85518e-07
9.72014e-07
1.0689e-06
1.17755e-06
1.29937e-06
1.4358e-06
1.58824e-06
1.75808e-06
1.94666e-06
2.15524e-06
2.38496e-06
2.63686e-06
2.91183e-06
3.21062e-06
3.53382e-06
3.88189e-06
4.25514e-06
4.65376e-06
5.07779e-06
5.5271e-06
6.00142e-06
6.50018e-06
7.02253e-06
7.56719e-06
8.13229e-06
8.71521e-06
9.31234e-06
9.91885e-06
1.05284e-05
1.11328e-05
1.17218e-05
1.22826e-05
1.28e-05
1.32557e-05
1.36273e-05
1.38798e-05
1.399e-05
1.39936e-05
1.38127e-05
1.34384e-05
1.28691e-05
1.21108e-05
1.11805e-05
1.01078e-05
8.93403e-06
7.70842e-06
6.48313e-06
5.3071e-06
4.2206e-06
3.25132e-06
2.41304e-06
1.70676e-06
1.12409e-06
6.52663e-07
2.84793e-07
3.56185e-08
6.1622e-09
5.27752e-08
1.18913e-07
1.96964e-07
2.83036e-07
3.74545e-07
4.69633e-07
5.66995e-07
6.6582e-07
7.65769e-07
8.66961e-07
9.69947e-07
1.07569e-06
1.18552e-06
1.30111e-06
1.42445e-06
1.55775e-06
1.7035e-06
1.86436e-06
2.04317e-06
2.24292e-06
2.46672e-06
2.71777e-06
2.99936e-06
3.31479e-06
3.66737e-06
4.06033e-06
4.4968e-06
4.97973e-06
5.51183e-06
6.09553e-06
6.73295e-06
7.42586e-06
8.1757e-06
8.98357e-06
9.8502e-06
1.07761e-05
1.17612e-05
1.28053e-05
1.39076e-05
1.50666e-05
1.62802e-05
1.7545e-05
1.88565e-05
2.02081e-05
2.1591e-05
2.29936e-05
2.44008e-05
2.57933e-05
2.71471e-05
2.84327e-05
2.9615e-05
3.06521e-05
3.14952e-05
3.20585e-05
3.2295e-05
3.22967e-05
3.18684e-05
3.09951e-05
2.96742e-05
2.79188e-05
2.57677e-05
2.32893e-05
2.05785e-05
1.77492e-05
1.49219e-05
1.22097e-05
9.70549e-06
7.47291e-06
5.54329e-06
3.91837e-06
2.57829e-06
1.49419e-06
6.47959e-07
7.53715e-08
1.00771e-08
8.84489e-08
2.00256e-07
3.3237e-07
4.78086e-07
6.32989e-07
7.93917e-07
9.58655e-07
1.12583e-06
1.29486e-06
1.46597e-06
1.64008e-06
1.81884e-06
2.00451e-06
2.19994e-06
2.40849e-06
2.63397e-06
2.88057e-06
3.15285e-06
3.45563e-06
3.79402e-06
4.17333e-06
4.59904e-06
5.07677e-06
5.6122e-06
6.211e-06
6.87875e-06
7.62085e-06
8.44239e-06
9.34808e-06
1.03421e-05
1.14282e-05
1.26095e-05
1.38883e-05
1.52665e-05
1.67453e-05
1.83252e-05
2.00061e-05
2.17868e-05
2.36655e-05
2.56389e-05
2.77023e-05
2.9849e-05
3.20701e-05
3.43534e-05
3.66831e-05
3.90388e-05
4.13947e-05
4.37184e-05
4.59701e-05
4.81018e-05
5.00561e-05
5.17656e-05
5.31541e-05
5.40698e-05
5.44439e-05
5.44421e-05
5.37165e-05
5.22468e-05
5.00272e-05
4.70759e-05
4.34547e-05
3.92764e-05
3.47006e-05
2.99206e-05
2.51422e-05
2.05589e-05
1.63297e-05
1.25628e-05
9.31076e-06
6.57534e-06
4.32152e-06
2.49949e-06
1.07891e-06
1.22446e-07
1.45261e-08
1.28771e-07
2.9256e-07
4.8643e-07
7.00359e-07
9.27777e-07
1.164e-06
1.40575e-06
1.65101e-06
1.89894e-06
2.14984e-06
2.40512e-06
2.6672e-06
2.93943e-06
3.22604e-06
3.53197e-06
3.86287e-06
4.22496e-06
4.62497e-06
5.07007e-06
5.56784e-06
6.12617e-06
6.75324e-06
7.45743e-06
8.24723e-06
9.13115e-06
1.01176e-05
1.12146e-05
1.24299e-05
1.37705e-05
1.52428e-05
1.68521e-05
1.86031e-05
2.0499e-05
2.25421e-05
2.47337e-05
2.70735e-05
2.95601e-05
3.21903e-05
3.49593e-05
3.78602e-05
4.08837e-05
4.40177e-05
4.72466e-05
5.05509e-05
5.39066e-05
5.72835e-05
6.06452e-05
6.39471e-05
6.71352e-05
7.01448e-05
7.28986e-05
7.53058e-05
7.72646e-05
7.85571e-05
7.90865e-05
7.90963e-05
7.80754e-05
7.59848e-05
7.28115e-05
6.85712e-05
6.33441e-05
5.72874e-05
5.0631e-05
4.36585e-05
3.66754e-05
2.99716e-05
2.37856e-05
1.82801e-05
1.35331e-05
9.54608e-06
6.2657e-06
3.61719e-06
1.55608e-06
1.74835e-07
1.94272e-08
1.73028e-07
3.94082e-07
6.56189e-07
9.45596e-07
1.25328e-06
1.57284e-06
1.89979e-06
2.23139e-06
2.5665e-06
2.90555e-06
3.25048e-06
3.60459e-06
3.97248e-06
4.35991e-06
4.77367e-06
5.22147e-06
5.7118e-06
6.25389e-06
6.85758e-06
7.53327e-06
8.29183e-06
9.14452e-06
1.01029e-05
1.11787e-05
1.23838e-05
1.37297e-05
1.52276e-05
1.68882e-05
1.8721e-05
2.07346e-05
2.29362e-05
2.53312e-05
2.79236e-05
3.0715e-05
3.37053e-05
3.68919e-05
4.02698e-05
4.38315e-05
4.75665e-05
5.14614e-05
5.54994e-05
5.96606e-05
6.39212e-05
6.82537e-05
7.26258e-05
7.69998e-05
8.13314e-05
8.55681e-05
8.96468e-05
9.34916e-05
9.70109e-05
0.000100095
0.000102617
0.000104313
0.000105031
0.000105086
0.000103824
0.000101155
9.70567e-05
9.1532e-05
8.46707e-05
7.66693e-05
6.78273e-05
5.85234e-05
4.91731e-05
4.01758e-05
3.18636e-05
2.44651e-05
1.8091e-05
1.27449e-05
8.35364e-06
4.81422e-06
2.06583e-06
2.30991e-07
2.47305e-08
2.20815e-07
5.03813e-07
8.39895e-07
1.21123e-06
1.60608e-06
2.01612e-06
2.43555e-06
2.86079e-06
3.29042e-06
3.72502e-06
4.1671e-06
4.62098e-06
5.09266e-06
5.58961e-06
6.12066e-06
6.69584e-06
7.3262e-06
8.02377e-06
8.80138e-06
9.6726e-06
1.06516e-05
1.17533e-05
1.29927e-05
1.43853e-05
1.59466e-05
1.76916e-05
1.96351e-05
2.17907e-05
2.41706e-05
2.67853e-05
2.96431e-05
3.27497e-05
3.61079e-05
3.97171e-05
4.35735e-05
4.76693e-05
5.19929e-05
5.65288e-05
6.12576e-05
6.61561e-05
7.1198e-05
7.6354e-05
8.15921e-05
8.6878e-05
9.21747e-05
9.74415e-05
0.000102632
0.000107694
0.00011256
0.00011715
0.000121365
0.000125078
0.000128141
0.000130267
0.000131214
0.00013135
0.00012993
0.000126766
0.00012183
0.000115103
0.000106676
9.67727e-05
8.57556e-05
7.40942e-05
6.23154e-05
5.09359e-05
4.03935e-05
3.0996e-05
2.28979e-05
1.61114e-05
1.05454e-05
6.06762e-06
2.59864e-06
2.89797e-07
3.04071e-08
2.71903e-07
6.21173e-07
1.03651e-06
1.49571e-06
1.98408e-06
2.49117e-06
3.00974e-06
3.53534e-06
4.06621e-06
4.60311e-06
5.14924e-06
5.71004e-06
6.29304e-06
6.90763e-06
7.56492e-06
8.27748e-06
9.05923e-06
9.92528e-06
1.08918e-05
1.19759e-05
1.31955e-05
1.45693e-05
1.61164e-05
1.78563e-05
1.98085e-05
2.19919e-05
2.44246e-05
2.71232e-05
3.01021e-05
3.33731e-05
3.69444e-05
4.08201e-05
4.49997e-05
4.94778e-05
5.42433e-05
5.92796e-05
6.45647e-05
7.00713e-05
7.5768e-05
8.16196e-05
8.75892e-05
9.36388e-05
9.97311e-05
0.000105829
0.000111898
0.0001179
0.000123795
0.000129536
0.00013506
0.000140288
0.000145114
0.000149398
0.000152967
0.000155532
0.000156732
0.000156977
0.000155477
0.000151915
0.000146262
0.000138473
0.000128627
0.000116966
0.000103896
8.99648e-05
7.58011e-05
6.2039e-05
4.92305e-05
3.7776e-05
2.7889e-05
1.96022e-05
1.2813e-05
7.36129e-06
3.14771e-06
3.50467e-07
3.64422e-08
3.26175e-07
7.45858e-07
1.24547e-06
1.79817e-06
2.38605e-06
2.99641e-06
3.62041e-06
4.25269e-06
4.89112e-06
5.53669e-06
6.19337e-06
6.86784e-06
7.56935e-06
8.30943e-06
9.10163e-06
9.96139e-06
1.09057e-05
1.19532e-05
1.31236e-05
1.4438e-05
1.59183e-05
1.75875e-05
1.94691e-05
2.15868e-05
2.39643e-05
2.66243e-05
2.95882e-05
3.28751e-05
3.65007e-05
4.04765e-05
4.48087e-05
4.94976e-05
5.45362e-05
5.99104e-05
6.5598e-05
7.15696e-05
7.77888e-05
8.42136e-05
9.07983e-05
9.74958e-05
0.00010426
0.000111048
0.000117823
0.000124553
0.00013121
0.00013777
0.000144205
0.000150476
0.00015653
0.000162287
0.000167634
0.000172418
0.000176442
0.000179421
0.000180865
0.000181224
0.000179703
0.000175835
0.000169603
0.000160931
0.00014988
0.000136688
0.000121786
0.000105773
8.93644e-05
7.33018e-05
5.82548e-05
4.47302e-05
3.30179e-05
2.31879e-05
1.51378e-05
8.68441e-06
3.70827e-06
4.12488e-07
4.28302e-08
3.83592e-07
8.77757e-07
1.46655e-06
2.11819e-06
2.81141e-06
3.53103e-06
4.26653e-06
5.01155e-06
5.76361e-06
6.52399e-06
7.29748e-06
8.09218e-06
8.91922e-06
9.79245e-06
1.07282e-05
1.17449e-05
1.28631e-05
1.4105e-05
1.54945e-05
1.70567e-05
1.8818e-05
2.0806e-05
2.30488e-05
2.55744e-05
2.84106e-05
3.1584e-05
3.51184e-05
3.90344e-05
4.33476e-05
4.80673e-05
5.31952e-05
5.8724e-05
6.46367e-05
7.09063e-05
7.74956e-05
8.43582e-05
9.14406e-05
9.86845e-05
0.00010603
0.000113422
0.000120808
0.000128148
0.000135412
0.000142582
0.000149646
0.000156597
0.00016342
0.000170091
0.00017656
0.000182744
0.00018852
0.000193718
0.00019812
0.000201443
0.000203089
0.000203544
0.000202031
0.000197942
0.000191276
0.000181928
0.000169928
0.000155494
0.000139053
0.000121228
0.000102792
8.45795e-05
6.73756e-05
5.18049e-05
3.8254e-05
2.68507e-05
1.75088e-05
1.00305e-05
4.27723e-06
4.75625e-07
4.95725e-08
4.44175e-07
1.0169e-06
1.69976e-06
2.45577e-06
3.26006e-06
4.09484e-06
4.94779e-06
5.81149e-06
6.68312e-06
7.56427e-06
8.46072e-06
9.38209e-06
1.03416e-05
1.13556e-05
1.24435e-05
1.3627e-05
1.49304e-05
1.63799e-05
1.80036e-05
1.98313e-05
2.18941e-05
2.42241e-05
2.68542e-05
2.98169e-05
3.31437e-05
3.68642e-05
4.10041e-05
4.55838e-05
5.06168e-05
5.61074e-05
6.20494e-05
6.84244e-05
7.52011e-05
8.23355e-05
8.97714e-05
9.7443e-05
0.000105278
0.000113204
0.00012115
0.000129055
0.000136872
0.000144571
0.000152137
0.000159573
0.000166887
0.000174091
0.000181184
0.000188149
0.000194933
0.000201447
0.000207552
0.000213063
0.000217741
0.000221303
0.000223083
0.0002236
0.000222096
0.000217867
0.000210913
0.000201104
0.000188434
0.000173081
0.000155439
0.000136122
0.000115931
9.57693e-05
7.65312e-05
5.89675e-05
4.35814e-05
3.05828e-05
1.99217e-05
1.13966e-05
4.85325e-06
5.39639e-07
5.6676e-08
5.07987e-07
1.16342e-06
1.94529e-06
2.81114e-06
3.73226e-06
4.6881e-06
5.66442e-06
6.65269e-06
7.64976e-06
8.65761e-06
9.68308e-06
1.07375e-05
1.18364e-05
1.29988e-05
1.42474e-05
1.56076e-05
1.71076e-05
1.87779e-05
2.06512e-05
2.2762e-05
2.51462e-05
2.7841e-05
3.08835e-05
3.43106e-05
3.81572e-05
4.24547e-05
4.72292e-05
5.2499e-05
5.82728e-05
6.45468e-05
7.1303e-05
7.85079e-05
8.61118e-05
9.405e-05
0.000102245
0.000110611
0.000119058
0.000127502
0.000135869
0.0001441
0.000152162
0.000160043
0.000167752
0.000175315
0.000182763
0.000190121
0.0001974
0.000204577
0.000211593
0.000218344
0.000224674
0.000230383
0.000235221
0.0002389
0.000240738
0.000241277
0.000239761
0.000235464
0.000228362
0.0002183
0.000205233
0.000189284
0.000170792
0.000150327
0.000128682
0.000106806
8.56854e-05
6.62025e-05
4.89964e-05
3.43849e-05
2.23772e-05
1.27829e-05
5.43612e-06
6.04478e-07
6.41517e-08
5.75132e-07
1.31756e-06
2.20352e-06
3.18477e-06
4.22858e-06
5.31144e-06
6.4171e-06
7.53586e-06
8.66423e-06
9.80467e-06
1.09652e-05
1.2159e-05
1.34041e-05
1.47226e-05
1.61405e-05
1.76873e-05
1.93952e-05
2.12994e-05
2.34374e-05
2.58485e-05
2.85736e-05
3.16546e-05
3.51332e-05
3.90496e-05
4.34412e-05
4.83401e-05
5.37708e-05
5.97472e-05
6.62698e-05
7.33233e-05
8.0874e-05
8.88692e-05
9.72374e-05
0.000105891
0.000114731
0.000123651
0.000132551
0.000141339
0.000149947
0.00015833
0.000166475
0.000174396
0.000182131
0.000189729
0.000197238
0.000204694
0.000212103
0.000219434
0.000226612
0.000233513
0.000239968
0.000245763
0.000250647
0.000254322
0.000256146
0.000256672
0.000255115
0.000250801
0.000243671
0.000233536
0.000220314
0.000204065
0.000185053
0.000163778
0.000140992
0.000117652
9.48206e-05
7.35076e-05
5.45045e-05
3.8264e-05
2.48805e-05
1.41916e-05
6.02657e-06
6.70202e-07
7.20141e-08
6.45743e-07
1.4796e-06
2.47492e-06
3.57733e-06
4.74984e-06
5.96581e-06
7.20685e-06
8.46207e-06
9.72765e-06
1.10066e-05
1.23082e-05
1.36477e-05
1.50458e-05
1.65279e-05
1.81237e-05
1.98667e-05
2.17938e-05
2.39448e-05
2.6362e-05
2.909e-05
3.21744e-05
3.56616e-05
3.95971e-05
4.40242e-05
4.89812e-05
5.44993e-05
6.0599e-05
6.72869e-05
7.45521e-05
8.23639e-05
9.06691e-05
9.93926e-05
0.000108439
0.000117697
0.000127046
0.000136368
0.000145555
0.000154519
0.000163205
0.000171593
0.000179698
0.000187564
0.000195257
0.000202845
0.000210388
0.000217919
0.000225432
0.00023288
0.000240164
0.000247144
0.000253636
0.000259422
0.000264256
0.000267828
0.000269577
0.00027006
0.000268435
0.000264126
0.000257055
0.000246981
0.00023379
0.000217483
0.000198237
0.000176462
0.000152835
0.000128288
0.000103929
8.08869e-05
6.01166e-05
4.22313e-05
2.74394e-05
1.56268e-05
6.62593e-06
7.36951e-07
8.02807e-08
7.19979e-07
1.64991e-06
2.76006e-06
3.98962e-06
5.29704e-06
6.65238e-06
8.03501e-06
9.43275e-06
1.08415e-05
1.22648e-05
1.37134e-05
1.52049e-05
1.67627e-05
1.84158e-05
2.01977e-05
2.21465e-05
2.43036e-05
2.67137e-05
2.94242e-05
3.24844e-05
3.59448e-05
3.98558e-05
4.42662e-05
4.92209e-05
5.47578e-05
6.0905e-05
6.76765e-05
7.50684e-05
8.3055e-05
9.15864e-05
0.000100587
0.000109957
0.000119576
0.000129312
0.000139027
0.000148594
0.000157909
0.000166899
0.000175531
0.000183818
0.000191806
0.000199573
0.000207205
0.000214785
0.000222371
0.000229985
0.000237602
0.000245148
0.000252506
0.000259514
0.000265983
0.000271693
0.00027641
0.000279811
0.000281444
0.000281863
0.000280138
0.000275833
0.000268853
0.000258918
0.000245876
0.000229677
0.000210417
0.000188401
0.000164205
0.0001387
0.000113005
8.83456e-05
6.58449e-05
4.63e-05
3.00637e-05
1.70934e-05
7.23599e-06
8.04911e-07
8.89717e-08
7.98022e-07
1.8289e-06
3.05964e-06
4.42257e-06
5.87136e-06
7.37257e-06
8.90313e-06
1.04495e-05
1.20074e-05
1.35809e-05
1.51825e-05
1.6832e-05
1.85561e-05
2.03873e-05
2.23635e-05
2.45271e-05
2.69245e-05
2.96052e-05
3.26218e-05
3.60281e-05
3.98792e-05
4.42288e-05
4.9128e-05
5.46219e-05
6.07464e-05
6.75241e-05
7.49594e-05
8.30348e-05
9.17066e-05
0.000100903
0.000110523
0.000120442
0.000130516
0.000140593
0.000150529
0.000160195
0.000169501
0.000178397
0.000186884
0.000195008
0.000202853
0.000210523
0.00021812
0.000225729
0.0002334
0.000241132
0.000248874
0.000256528
0.00026395
0.000270968
0.000277387
0.000282992
0.000287562
0.000290756
0.00029225
0.000292588
0.000290729
0.000286403
0.000279491
0.000269708
0.000256854
0.000240845
0.000221708
0.000199644
0.000175108
0.000148877
0.000122038
9.58847e-05
7.16994e-05
5.04829e-05
3.27635e-05
1.85971e-05
7.8587e-06
8.74292e-07
9.81094e-08
8.80075e-07
2.01703e-06
3.37438e-06
4.87724e-06
6.47414e-06
8.12791e-06
9.81295e-06
1.15143e-05
1.32273e-05
1.49568e-05
1.67171e-05
1.85305e-05
2.04271e-05
2.24432e-05
2.46212e-05
2.70082e-05
2.96553e-05
3.26173e-05
3.59512e-05
3.97158e-05
4.39695e-05
4.8769e-05
5.41663e-05
6.02053e-05
6.69176e-05
7.43177e-05
8.23978e-05
9.11236e-05
0.00010043
0.000110222
0.000120372
0.000130731
0.000141136
0.000151422
0.000161442
0.000171081
0.000180268
0.000188989
0.000197282
0.000205232
0.000212953
0.000220571
0.000228195
0.000235903
0.000243725
0.000251632
0.000259546
0.000267338
0.000274849
0.000281893
0.000288271
0.00029378
0.00029821
0.00030119
0.000302536
0.000302782
0.000300753
0.000296358
0.000289448
0.000279758
0.000267055
0.000251229
0.000232263
0.000210263
0.00018556
0.000158805
0.000131011
0.000103497
7.76852e-05
5.47906e-05
3.55483e-05
2.01432e-05
8.49605e-06
9.4531e-07
1.07718e-07
9.66359e-07
2.21479e-06
3.70512e-06
5.35476e-06
7.10682e-06
8.92013e-06
1.07663e-05
1.2629e-05
1.45031e-05
1.63943e-05
1.83188e-05
2.03018e-05
2.23767e-05
2.45841e-05
2.69708e-05
2.95888e-05
3.24942e-05
3.57465e-05
3.94075e-05
4.35398e-05
4.82052e-05
5.34618e-05
5.93615e-05
6.59449e-05
7.32372e-05
8.12423e-05
8.99373e-05
9.92685e-05
0.000109148
0.000119454
0.000130036
0.000140722
0.000151334
0.000161704
0.000171692
0.000181202
0.000190198
0.000198704
0.000206799
0.000214604
0.000222262
0.000229908
0.000237651
0.000245552
0.000253611
0.000261771
0.000269923
0.000277913
0.000285564
0.000292682
0.000299067
0.000304521
0.000308846
0.000311634
0.000312835
0.000312981
0.000310745
0.000306217
0.000299213
0.000289497
0.000276842
0.000261109
0.000242269
0.000220358
0.00019559
0.000168472
0.000139901
0.000111167
8.38003e-05
5.92302e-05
3.84265e-05
2.1737e-05
9.14989e-06
1.01817e-06
1.17824e-07
1.05711e-06
2.42273e-06
4.05273e-06
5.85637e-06
7.77095e-06
9.75103e-06
1.17653e-05
1.37957e-05
1.58368e-05
1.78953e-05
1.99893e-05
2.2147e-05
2.44055e-05
2.68099e-05
2.94115e-05
3.22672e-05
3.5438e-05
3.89882e-05
4.29838e-05
4.74907e-05
5.25732e-05
5.82898e-05
6.46905e-05
7.18109e-05
7.96674e-05
8.82507e-05
9.75207e-05
0.000107402
0.000117782
0.000128514
0.000139425
0.000150326
0.000161031
0.000171376
0.000181238
0.000190553
0.000199323
0.000207614
0.000215548
0.000223278
0.000230965
0.000238747
0.000246721
0.000254923
0.000263323
0.000271831
0.000280307
0.000288576
0.000296445
0.000303711
0.000310175
0.000315643
0.000319923
0.000322564
0.000323638
0.000323674
0.000321201
0.000316466
0.000309257
0.000299363
0.000286589
0.000270791
0.000251946
0.00023006
0.000205248
0.000177873
0.000148677
0.000118869
9.00344e-05
6.38036e-05
4.14041e-05
2.33828e-05
9.82182e-06
1.09304e-06
1.28455e-07
1.15258e-06
2.6414e-06
4.41813e-06
6.38335e-06
8.46816e-06
1.06225e-05
1.28119e-05
1.50165e-05
1.72304e-05
1.94615e-05
2.17298e-05
2.40669e-05
2.65137e-05
2.91199e-05
3.19415e-05
3.50404e-05
3.84824e-05
4.23361e-05
4.66713e-05
5.15568e-05
5.7058e-05
6.32327e-05
7.01272e-05
7.77703e-05
8.61673e-05
9.52937e-05
0.00010509
0.000115457
0.000126259
0.000137325
0.000148464
0.000159474
0.000170171
0.000180404
0.000190077
0.000199163
0.00020771
0.000215826
0.000223672
0.000231425
0.000239258
0.000247302
0.000255633
0.000264257
0.000273112
0.000282075
0.000290977
0.000299624
0.000307806
0.000315315
0.000321948
0.00032751
0.000331812
0.000334369
0.000335365
0.000335261
0.000332543
0.000327531
0.000320004
0.000309768
0.000296673
0.000280598
0.000261544
0.000239531
0.000214612
0.000187018
0.000157314
0.000126571
9.63697e-05
6.85078e-05
4.44848e-05
2.5084e-05
1.05131e-05
1.17007e-06
1.39641e-07
1.25303e-06
2.87142e-06
4.80232e-06
6.93709e-06
9.20018e-06
1.15366e-05
1.39083e-05
1.62935e-05
1.86859e-05
2.10944e-05
2.35415e-05
2.60619e-05
2.8701e-05
3.15128e-05
3.45586e-05
3.79048e-05
4.16219e-05
4.57825e-05
5.04597e-05
5.57243e-05
6.16416e-05
6.82676e-05
7.5643e-05
8.37878e-05
9.26944e-05
0.000102321
0.000112587
0.000123371
0.000134513
0.000145822
0.000157092
0.000168119
0.000178726
0.000188786
0.000198237
0.000207097
0.000215456
0.00022347
0.000231327
0.000239225
0.000247337
0.000255778
0.0002646
0.000273774
0.000283204
0.000292736
0.000302175
0.000311307
0.000319908
0.000327762
0.000334659
0.000340402
0.000344801
0.000347342
0.000348307
0.000348059
0.000345099
0.000339759
0.000331814
0.000321085
0.000307455
0.000290857
0.000271337
0.000248968
0.000223791
0.000195938
0.000165794
0.000134241
0.000102782
7.33343e-05
4.76693e-05
2.68434e-05
1.12248e-05
1.24936e-06
1.51414e-07
1.35873e-06
3.1134e-06
5.20632e-06
7.51901e-06
9.9688e-06
1.24952e-05
1.50565e-05
1.76287e-05
2.0205e-05
2.27955e-05
2.5425e-05
2.8132e-05
3.09663e-05
3.39866e-05
3.72591e-05
4.08551e-05
4.48493e-05
4.93181e-05
5.43368e-05
5.99774e-05
6.63043e-05
7.33696e-05
8.12073e-05
8.98267e-05
9.92054e-05
0.000109283
0.000119958
0.000131086
0.000142486
0.000153951
0.000165267
0.000176234
0.000186693
0.000196546
0.000205774
0.000214439
0.000222679
0.000230686
0.000238676
0.000246854
0.000255385
0.000264364
0.000273811
0.000283663
0.000293789
0.000304006
0.000314093
0.000323817
0.00033294
0.000341234
0.000348486
0.000354494
0.000359065
0.000361662
0.000362629
0.000362271
0.000359089
0.000353398
0.000344967
0.00033362
0.000319264
0.000301888
0.000281612
0.000258598
0.000232931
0.000204695
0.000174114
0.000141845
0.000109242
7.82699e-05
5.09559e-05
2.86623e-05
1.19573e-05
1.33099e-06
1.63811e-07
1.46997e-06
3.36802e-06
5.63122e-06
8.13061e-06
1.07758e-05
1.35006e-05
1.62588e-05
1.90242e-05
2.17894e-05
2.45656e-05
2.73806e-05
3.02766e-05
3.33079e-05
3.65384e-05
4.00388e-05
4.38854e-05
4.81566e-05
5.2932e-05
5.82888e-05
6.42988e-05
7.10243e-05
7.85123e-05
8.67884e-05
9.58498e-05
0.000105658
0.000116134
0.000127153
0.000138552
0.000150132
0.000161675
0.000172965
0.000183816
0.000194091
0.000203731
0.000212762
0.000221293
0.000229505
0.000237622
0.000245877
0.000254476
0.000263567
0.000273222
0.000283424
0.000294076
0.000305014
0.000316024
0.000326861
0.000337273
0.000347007
0.000355827
0.000363511
0.000369857
0.000374668
0.000377387
0.000378391
0.000377979
0.000374617
0.00036859
0.00035965
0.000347606
0.000332372
0.000313986
0.000292658
0.000268669
0.00024221
0.000213384
0.000182293
0.000149361
0.000115719
8.32971e-05
5.43402e-05
3.05413e-05
1.27111e-05
1.41499e-06
1.76864e-07
1.58707e-06
3.63596e-06
6.07813e-06
8.77344e-06
1.16232e-05
1.45547e-05
1.75172e-05
2.04818e-05
2.34405e-05
2.64058e-05
2.94084e-05
3.24946e-05
3.57236e-05
3.91643e-05
4.28924e-05
4.69882e-05
5.15342e-05
5.66122e-05
6.23004e-05
6.86696e-05
7.57787e-05
8.36684e-05
9.23544e-05
0.000101821
0.000112012
0.000122829
0.00013413
0.00014573
0.000157418
0.000168972
0.000180181
0.000190878
0.000200959
0.000210407
0.000219292
0.000227771
0.000236063
0.000244417
0.000253075
0.000262235
0.000272024
0.000282484
0.000293561
0.000305125
0.000316977
0.000328873
0.000340546
0.000351722
0.000362137
0.000371543
0.000379718
0.000386456
0.000391564
0.000394468
0.000395544
0.000395147
0.000391675
0.000385365
0.000375942
0.000363182
0.00034698
0.000327399
0.000304744
0.000279437
0.000251833
0.00022213
0.000190378
0.000156778
0.000122185
8.83958e-05
5.78154e-05
3.24797e-05
1.34859e-05
1.50134e-06
1.90609e-07
1.71033e-06
3.91795e-06
6.54823e-06
9.44909e-06
1.25129e-05
1.56597e-05
1.88339e-05
2.20032e-05
2.51594e-05
2.83162e-05
3.15075e-05
3.47842e-05
3.82103e-05
4.18598e-05
4.58133e-05
5.01554e-05
5.49716e-05
6.03454e-05
6.63552e-05
7.30701e-05
8.05441e-05
8.88103e-05
9.78739e-05
0.000107704
0.000118229
0.000129332
0.000140851
0.000152588
0.000164324
0.000175835
0.000186926
0.000197454
0.000207353
0.00021665
0.000225462
0.000233988
0.00024248
0.000251202
0.000260398
0.000270253
0.000280867
0.000292248
0.000304307
0.000316876
0.000329725
0.00034258
0.000355149
0.000367141
0.000378278
0.000388306
0.000397002
0.000404166
0.000409613
0.000412763
0.000413945
0.000413634
0.000410145
0.000403645
0.000393821
0.000380392
0.000363204
0.000342315
0.000318107
0.000291153
0.000262022
0.000231091
0.000198442
0.000164102
0.000128613
9.35437e-05
6.13727e-05
3.4476e-05
1.42814e-05
1.59002e-06
2.05082e-07
1.84012e-06
4.21475e-06
7.04274e-06
1.01592e-05
1.34468e-05
1.68178e-05
2.02107e-05
2.35902e-05
2.69471e-05
3.02969e-05
3.3677e-05
3.71429e-05
4.0764e-05
4.46193e-05
4.87945e-05
5.33776e-05
5.8457e-05
6.41173e-05
7.04362e-05
7.74797e-05
8.52965e-05
9.3911e-05
0.000103317
0.000113469
0.000124278
0.000135611
0.000147291
0.000159108
0.00017084
0.000182271
0.000193226
0.00020359
0.00021334
0.000222547
0.000231374
0.000240057
0.00024887
0.00025809
0.000267954
0.000278626
0.000290176
0.000302577
0.000315704
0.000329351
0.000343255
0.000357114
0.000370613
0.000383442
0.000395313
0.00040597
0.000415193
0.000422793
0.000428599
0.000432052
0.000433378
0.000433216
0.000429821
0.000423256
0.000413161
0.000399176
0.000381066
0.000358843
0.000332929
0.000304044
0.000273004
0.000240446
0.000206589
0.00017136
0.000134988
9.87184e-05
6.50015e-05
3.65278e-05
1.50971e-05
1.68095e-06
2.20325e-07
1.97677e-06
4.52714e-06
7.56293e-06
1.09055e-05
1.4427e-05
1.8031e-05
2.16496e-05
2.5244e-05
2.88042e-05
3.23475e-05
3.59151e-05
3.95677e-05
4.33801e-05
4.74368e-05
5.18277e-05
5.66447e-05
6.19781e-05
6.7913e-05
7.45256e-05
8.18781e-05
9.00127e-05
9.89446e-05
0.000108655
0.000119085
0.000130131
0.000141642
0.000153431
0.000165282
0.000176973
0.000188302
0.000199118
0.000209344
0.000218995
0.000228188
0.000237128
0.00024608
0.000255338
0.000265178
0.000275827
0.000287421
0.000300001
0.000313501
0.000327757
0.00034253
0.00035752
0.000372399
0.000386829
0.000400485
0.000413072
0.000424337
0.000434067
0.00044209
0.000448256
0.000452062
0.000453585
0.000453606
0.000450429
0.000443946
0.000433749
0.000419379
0.000400492
0.000377006
0.000349327
0.000318298
0.000284995
0.000250387
0.000214944
0.000178601
0.000141303
0.000103898
6.86895e-05
3.86321e-05
1.59321e-05
1.77406e-06
2.36378e-07
2.12066e-06
4.85595e-06
8.11011e-06
1.16898e-05
1.54555e-05
1.93014e-05
2.31525e-05
2.69659e-05
3.07309e-05
3.4467e-05
3.82197e-05
4.2055e-05
4.60535e-05
5.03051e-05
5.49043e-05
5.99459e-05
6.55219e-05
7.17172e-05
7.86058e-05
8.62452e-05
9.46705e-05
0.000103887
0.000113865
0.000124531
0.000135766
0.00014741
0.000159264
0.000171111
0.000182738
0.00019396
0.000204654
0.00021478
0.000224397
0.000233662
0.000242817
0.000252152
0.000261969
0.000272542
0.000284075
0.000296681
0.000310361
0.000325014
0.000340436
0.000356352
0.00037243
0.000388314
0.000403648
0.000418093
0.000431353
0.000443179
0.000453375
0.000461787
0.000468291
0.000472486
0.000474282
0.000474482
0.000471651
0.000465407
0.000455302
0.000440768
0.00042132
0.000396735
0.00036734
0.000334048
0.000298186
0.000261109
0.000223655
0.000185894
0.000147564
0.000109065
7.24233e-05
4.07848e-05
1.67854e-05
1.86922e-06
2.53285e-07
2.27217e-06
5.20203e-06
8.68565e-06
1.25139e-05
1.65345e-05
2.06311e-05
2.4721e-05
2.87568e-05
3.27272e-05
3.6654e-05
4.05878e-05
4.46003e-05
4.87782e-05
5.32168e-05
5.80148e-05
6.327e-05
6.90752e-05
7.55147e-05
8.26594e-05
9.05618e-05
9.92494e-05
0.000108718
0.000118925
0.000129786
0.00014117
0.000152905
0.000164789
0.000176609
0.000188161
0.000199285
0.000209887
0.000219968
0.000229625
0.000239054
0.000248528
0.000258354
0.000268836
0.000280236
0.000292737
0.000306419
0.000321248
0.000337081
0.000353679
0.000370727
0.000387866
0.000404713
0.000420895
0.000436067
0.000449933
0.000462257
0.000472861
0.000481617
0.000488427
0.000493027
0.000495137
0.00049554
0.000493155
0.000487302
0.000477493
0.000463043
0.000443306
0.000417874
0.000386921
0.00035136
0.000312728
0.000272796
0.000232878
0.000193331
0.000153792
0.000114205
7.61891e-05
4.29812e-05
1.76557e-05
1.9663e-06
2.71091e-07
2.43171e-06
5.56628e-06
9.29096e-06
1.33796e-05
1.76661e-05
2.20222e-05
2.63567e-05
3.06175e-05
3.47925e-05
3.89069e-05
4.30162e-05
4.71988e-05
5.15477e-05
5.61637e-05
6.11495e-05
6.66054e-05
7.26248e-05
7.92905e-05
8.66702e-05
9.48104e-05
0.000103731
0.000113419
0.00012382
0.000134838
0.000146333
0.000158128
0.000170018
0.000181797
0.000193278
0.000204326
0.00021488
0.000224978
0.000234756
0.000244444
0.000254337
0.000264753
0.000275991
0.000288296
0.000301827
0.000316628
0.000332628
0.000349643
0.000367397
0.000385541
0.000403685
0.000421428
0.000438381
0.000454198
0.00046859
0.000481335
0.000492281
0.000501328
0.000508405
0.000513394
0.000515851
0.000516485
0.000514618
0.000509293
0.000499977
0.000485869
0.000466149
0.000440191
0.000407942
0.000370225
0.000328722
0.000285612
0.000242776
0.000201017
0.000160023
0.000119309
7.99726e-05
4.52159e-05
1.85416e-05
2.06513e-06
2.89845e-07
2.59969e-06
5.94964e-06
9.92753e-06
1.42889e-05
1.88523e-05
2.34767e-05
2.8061e-05
3.25483e-05
3.69261e-05
4.12232e-05
4.55011e-05
4.98452e-05
5.43552e-05
5.91373e-05
6.42985e-05
6.99407e-05
7.61579e-05
8.30307e-05
9.06229e-05
9.89755e-05
0.000108101
0.000117976
0.000128538
0.000139681
0.000151257
0.000163086
0.000174968
0.000186705
0.000198131
0.000209136
0.000219696
0.000229882
0.000239865
0.000249901
0.000260307
0.0002714
0.000283468
0.000296738
0.000311338
0.000327277
0.000344445
0.000362618
0.000381483
0.00040066
0.000419733
0.000438284
0.000455916
0.000472284
0.000487112
0.000500197
0.000511414
0.000520698
0.000528014
0.000533323
0.000536168
0.000537058
0.000535749
0.000531063
0.000522415
0.000508895
0.00048951
0.000463393
0.000430197
0.000390561
0.000346206
0.000299683
0.000253502
0.000209072
0.000166306
0.000124375
8.37601e-05
4.74824e-05
1.94413e-05
2.16551e-06
3.09596e-07
2.77656e-06
6.35307e-06
1.05969e-05
1.52437e-05
2.00954e-05
2.49964e-05
2.98352e-05
3.45494e-05
3.91268e-05
4.36003e-05
4.80383e-05
5.25337e-05
5.71934e-05
6.21293e-05
6.74519e-05
7.32651e-05
7.96624e-05
8.67224e-05
9.45046e-05
0.000103044
0.000112346
0.000122379
0.000133072
0.000144312
0.000155947
0.000167796
0.000179664
0.000191369
0.000202766
0.000213774
0.000224399
0.000234747
0.000245018
0.000255489
0.00026649
0.000278333
0.000291289
0.000305563
0.000321249
0.000338321
0.000356628
0.00037591
0.000395819
0.000415945
0.000435853
0.000455109
0.000473316
0.000490136
0.000505307
0.000518652
0.000530073
0.000539538
0.000547053
0.000552625
0.00055588
0.000557051
0.000556306
0.000552336
0.000544496
0.000531785
0.000513037
0.000487144
0.000453419
0.000412206
0.000365152
0.000315095
0.000265196
0.000217617
0.000172706
0.00012941
8.75387e-05
4.97734e-05
2.03527e-05
2.26721e-06
3.30398e-07
2.96278e-06
6.77761e-06
1.13006e-05
1.62461e-05
2.13975e-05
2.65832e-05
3.16802e-05
3.66207e-05
4.1393e-05
4.6035e-05
5.06231e-05
5.52583e-05
6.00551e-05
6.51311e-05
7.06003e-05
7.65682e-05
8.31276e-05
9.03545e-05
9.83043e-05
0.000107007
0.000116459
0.000126624
0.000137424
0.000148739
0.000160417
0.000172278
0.000184139
0.000195832
0.000207236
0.000218297
0.000229053
0.000239638
0.000250275
0.00026126
0.000272929
0.000285578
0.000299461
0.000314754
0.000331522
0.000349698
0.000369094
0.000389415
0.000410279
0.000431255
0.000451888
0.00047174
0.000490416
0.000507588
0.000523014
0.000536543
0.000548106
0.000557702
0.000565373
0.00057116
0.000574826
0.000576314
0.000576096
0.000572889
0.000565956
0.000554228
0.000536391
0.000511095