/*--------------------------------*- C++ -*----------------------------------*\
  =========                 |
  \\      /  F ield         | OpenFOAM: The Open Source CFD Toolbox
   \\    /   O peration     | Website:  https://openfoam.org
    \\  /    A nd           | Version:  12
     \\/     M anipulation  |
\*---------------------------------------------------------------------------*/
FoamFile
{
    format      ascii;
    class       volScalarField;
    location    "2.5";
    object      nut;
}
// * * * * * * * * * * * * * * * * * * * * * * * * * * * * * * * * * * * * * //

dimensions      [0 2 -1 0 0 0 0];

internalField   nonuniform List<scalar> 
5625
(
1.531e-14
1.03495e-13
2.29948e-13
3.7947e-13
5.44499e-13
7.20057e-13
9.02575e-13
1.08955e-12
1.27942e-12
1.47155e-12
1.66616e-12
1.8643e-12
2.06782e-12
2.27927e-12
2.50185e-12
2.73935e-12
2.99607e-12
3.27674e-12
3.58646e-12
3.9307e-12
4.31518e-12
4.74586e-12
5.22889e-12
5.77052e-12
6.37709e-12
7.05486e-12
7.81001e-12
8.64845e-12
9.57572e-12
1.05969e-11
1.17166e-11
1.29388e-11
1.42666e-11
1.57028e-11
1.72493e-11
1.89076e-11
2.06784e-11
2.2562e-11
2.45578e-11
2.66646e-11
2.88799e-11
3.11999e-11
3.3619e-11
3.61287e-11
3.87174e-11
4.1369e-11
4.4062e-11
4.67681e-11
4.94509e-11
5.20646e-11
5.45526e-11
5.68469e-11
5.88659e-11
6.05098e-11
6.16259e-11
6.21292e-11
6.2153e-11
6.13639e-11
5.97149e-11
5.71983e-11
5.38394e-11
4.97132e-11
4.49512e-11
3.97367e-11
3.42893e-11
2.88414e-11
2.36114e-11
1.87789e-11
1.44675e-11
1.07387e-11
7.59731e-12
5.00622e-12
2.91157e-12
1.27988e-12
1.88521e-13
4.62768e-13
1.50713e-11
3.77558e-11
6.38928e-11
9.24701e-11
1.22744e-10
1.54141e-10
1.86249e-10
2.18807e-10
2.51707e-10
2.84991e-10
3.18842e-10
3.53575e-10
3.8963e-10
4.27555e-10
4.67998e-10
5.11687e-10
5.5943e-10
6.121e-10
6.70621e-10
7.35962e-10
8.09132e-10
8.91163e-10
9.83106e-10
1.08602e-09
1.20094e-09
1.32889e-09
1.47084e-09
1.62768e-09
1.80023e-09
1.98919e-09
2.19518e-09
2.41867e-09
2.66004e-09
2.91955e-09
3.19737e-09
3.49357e-09
3.80814e-09
4.14097e-09
4.49185e-09
4.86042e-09
5.24612e-09
5.64814e-09
6.06531e-09
6.49596e-09
6.93776e-09
7.38755e-09
7.8411e-09
8.29287e-09
8.73577e-09
9.16089e-09
9.55729e-09
9.9117e-09
1.02077e-08
1.0418e-08
1.05171e-08
1.05427e-08
1.04274e-08
1.01641e-08
9.75047e-09
9.18926e-09
8.49221e-09
7.6815e-09
6.78898e-09
5.85344e-09
4.91629e-09
4.01656e-09
3.18623e-09
2.44707e-09
1.80954e-09
1.27372e-09
8.31919e-10
4.72333e-10
1.84894e-10
5.69404e-12
9.82723e-13
8.05965e-11
2.5852e-10
4.67683e-10
6.93486e-10
9.30543e-10
1.17493e-09
1.42372e-09
1.67504e-09
1.92814e-09
2.18337e-09
2.44217e-09
2.70699e-09
2.98119e-09
3.26899e-09
3.57532e-09
3.90572e-09
4.26629e-09
4.66358e-09
5.10448e-09
5.5962e-09
6.14613e-09
6.76182e-09
7.45086e-09
8.22076e-09
9.07886e-09
1.00321e-08
1.10871e-08
1.22496e-08
1.35248e-08
1.49168e-08
1.64291e-08
1.8064e-08
1.98231e-08
2.17074e-08
2.37171e-08
2.5852e-08
2.81118e-08
3.04956e-08
3.30023e-08
3.56302e-08
3.83772e-08
4.12396e-08
4.42123e-08
4.7287e-08
5.04518e-08
5.36889e-08
5.69738e-08
6.02726e-08
6.35402e-08
6.6717e-08
6.97277e-08
7.24791e-08
7.48642e-08
7.66698e-08
7.7612e-08
7.81529e-08
7.7613e-08
7.59446e-08
7.31093e-08
6.91044e-08
6.40014e-08
5.79615e-08
5.12315e-08
4.4122e-08
3.69699e-08
3.00949e-08
2.37583e-08
1.81352e-08
1.33045e-08
9.25656e-09
5.91406e-09
3.16419e-09
9.8033e-10
1.2049e-11
1.60707e-12
1.88839e-10
7.74194e-10
1.5419e-09
2.37901e-09
3.25235e-09
4.14613e-09
5.05e-09
5.9576e-09
6.86643e-09
7.77793e-09
8.69733e-09
9.63345e-09
1.05983e-08
1.16067e-08
1.2676e-08
1.38256e-08
1.50763e-08
1.64506e-08
1.79717e-08
1.96636e-08
2.15505e-08
2.36567e-08
2.60061e-08
2.86219e-08
3.1526e-08
3.47384e-08
3.8277e-08
4.21567e-08
4.63896e-08
5.09842e-08
5.59462e-08
6.12787e-08
6.69822e-08
7.30554e-08
7.94968e-08
8.63046e-08
9.34781e-08
1.01018e-07
1.08925e-07
1.17202e-07
1.25852e-07
1.34877e-07
1.44277e-07
1.54043e-07
1.64157e-07
1.74583e-07
1.85263e-07
1.9611e-07
2.06997e-07
2.17746e-07
2.28116e-07
2.37789e-07
2.46596e-07
2.53482e-07
2.57392e-07
2.60379e-07
2.59644e-07
2.55021e-07
2.46328e-07
2.33496e-07
2.16724e-07
1.9654e-07
1.73797e-07
1.49591e-07
1.25126e-07
1.01554e-07
7.9819e-08
6.05485e-08
4.40156e-08
3.01618e-08
1.86803e-08
9.22511e-09
2.27771e-09
1.95743e-11
2.31661e-12
3.18406e-10
1.5662e-09
3.45206e-09
5.59533e-09
7.84317e-09
1.01335e-08
1.2434e-08
1.47272e-08
1.70064e-08
1.92751e-08
2.15466e-08
2.38426e-08
2.61927e-08
2.86335e-08
3.12066e-08
3.39582e-08
3.69379e-08
4.01975e-08
4.37901e-08
4.77695e-08
5.21888e-08
5.70997e-08
6.25519e-08
6.85914e-08
7.52601e-08
8.25942e-08
9.06233e-08
9.93698e-08
1.08848e-07
1.19066e-07
1.30025e-07
1.41723e-07
1.54154e-07
1.67312e-07
1.81194e-07
1.95801e-07
2.1114e-07
2.27227e-07
2.44083e-07
2.61738e-07
2.80222e-07
2.99574e-07
3.19826e-07
3.40993e-07
3.63069e-07
3.86008e-07
4.09712e-07
4.34014e-07
4.58647e-07
4.8322e-07
5.07178e-07
5.29764e-07
5.50929e-07
5.67389e-07
5.77178e-07
5.85131e-07
5.84525e-07
5.74909e-07
5.55984e-07
5.27557e-07
4.90064e-07
4.44701e-07
3.93395e-07
3.38626e-07
2.83128e-07
2.29528e-07
1.79992e-07
1.35973e-07
9.81003e-08
6.62324e-08
3.97039e-08
1.81347e-08
3.79928e-09
2.7949e-11
3.09827e-12
4.59672e-10
2.55421e-09
6.15747e-09
1.05079e-08
1.5156e-08
1.98997e-08
2.46419e-08
2.93343e-08
3.39587e-08
3.85204e-08
4.30451e-08
4.75763e-08
5.21729e-08
5.69064e-08
6.18579e-08
6.7116e-08
7.27739e-08
7.89275e-08
8.56733e-08
9.31061e-08
1.01318e-07
1.10394e-07
1.20415e-07
1.31453e-07
1.43567e-07
1.56806e-07
1.71207e-07
1.86793e-07
2.03571e-07
2.2154e-07
2.40695e-07
2.61043e-07
2.82561e-07
3.05245e-07
3.29102e-07
3.54152e-07
3.80432e-07
4.07996e-07
4.36914e-07
4.67267e-07
4.99139e-07
5.32634e-07
5.67841e-07
6.04817e-07
6.43575e-07
6.84049e-07
7.26064e-07
7.69324e-07
8.13331e-07
8.57342e-07
9.00328e-07
9.40817e-07
9.78483e-07
1.00774e-06
1.02474e-06
1.03803e-06
1.03616e-06
1.01793e-06
9.83225e-07
9.31948e-07
8.65023e-07
7.84627e-07
6.94113e-07
5.97711e-07
5.0005e-07
4.05575e-07
3.17985e-07
2.39794e-07
1.72126e-07
1.148e-07
6.68987e-08
2.86909e-08
5.40862e-09
3.69255e-11
3.94409e-12
6.09742e-10
3.66877e-09
9.50323e-09
1.70164e-08
2.52692e-08
3.3758e-08
4.22313e-08
5.05641e-08
5.8706e-08
6.66581e-08
7.44622e-08
8.21928e-08
8.99513e-08
9.78598e-08
1.06055e-07
1.14685e-07
1.23903e-07
1.33861e-07
1.44711e-07
1.56599e-07
1.69662e-07
1.84022e-07
1.99792e-07
2.17068e-07
2.35932e-07
2.56438e-07
2.78625e-07
3.02514e-07
3.28108e-07
3.55388e-07
3.84343e-07
4.14944e-07
4.472e-07
4.81121e-07
5.16744e-07
5.54131e-07
5.93375e-07
6.34596e-07
6.77944e-07
7.23591e-07
7.71726e-07
8.22502e-07
8.76065e-07
9.32508e-07
9.91839e-07
1.05393e-06
1.11848e-06
1.18485e-06
1.2521e-06
1.3189e-06
1.38339e-06
1.44335e-06
1.49687e-06
1.5386e-06
1.56067e-06
1.57537e-06
1.56757e-06
1.5347e-06
1.47768e-06
1.39689e-06
1.294e-06
1.17236e-06
1.03682e-06
8.93318e-07
7.48289e-07
6.07899e-07
4.77309e-07
3.6008e-07
2.5787e-07
1.70564e-07
9.73259e-08
3.99011e-08
7.05175e-09
4.63255e-11
4.84949e-12
7.67926e-10
4.86888e-09
1.33228e-08
2.48696e-08
3.79591e-08
5.15926e-08
6.52211e-08
7.85634e-08
9.14969e-08
1.04003e-07
1.16138e-07
1.28016e-07
1.39796e-07
1.51668e-07
1.63842e-07
1.76544e-07
1.90002e-07
2.04442e-07
2.20083e-07
2.37131e-07
2.55772e-07
2.76175e-07
2.98481e-07
3.22805e-07
3.49238e-07
3.77848e-07
4.08674e-07
4.41734e-07
4.77029e-07
5.1456e-07
5.54303e-07
5.96245e-07
6.40407e-07
6.86836e-07
7.35612e-07
7.86856e-07
8.40729e-07
8.97432e-07
9.57198e-07
1.02028e-06
1.08695e-06
1.15742e-06
1.23186e-06
1.31036e-06
1.39282e-06
1.47892e-06
1.56802e-06
1.65902e-06
1.75032e-06
1.83978e-06
1.92463e-06
2.00162e-06
2.06718e-06
2.11502e-06
2.13789e-06
2.14703e-06
2.12687e-06
2.07273e-06
1.98768e-06
1.87283e-06
1.73074e-06
1.56586e-06
1.38433e-06
1.19349e-06
1.00122e-06
8.15081e-07
6.41416e-07
4.84674e-07
3.46994e-07
2.28427e-07
1.28547e-07
5.11684e-08
8.70418e-09
5.60232e-11
5.8121e-12
9.342e-10
6.13482e-09
1.74888e-08
3.37847e-08
5.28418e-08
7.29868e-08
9.32036e-08
1.1294e-07
1.31938e-07
1.50129e-07
1.67581e-07
1.84454e-07
2.0098e-07
2.17437e-07
2.34132e-07
2.51387e-07
2.69525e-07
2.88857e-07
3.0968e-07
3.3227e-07
3.56872e-07
3.83703e-07
4.12946e-07
4.44747e-07
4.79214e-07
5.16428e-07
5.56436e-07
5.99261e-07
6.4491e-07
6.93384e-07
7.44675e-07
7.98792e-07
8.55783e-07
9.15732e-07
9.78769e-07
1.04507e-06
1.11488e-06
1.18846e-06
1.26612e-06
1.34819e-06
1.43498e-06
1.52673e-06
1.62358e-06
1.72549e-06
1.83216e-06
1.94288e-06
2.05647e-06
2.17116e-06
2.28449e-06
2.39334e-06
2.49394e-06
2.58203e-06
2.65293e-06
2.70014e-06
2.7138e-06
2.71251e-06
2.67405e-06
2.59338e-06
2.47675e-06
2.32612e-06
2.14478e-06
1.93804e-06
1.71297e-06
1.47791e-06
1.24175e-06
1.01307e-06
7.99157e-07
6.05158e-07
4.33643e-07
2.84878e-07
1.59029e-07
6.21854e-08
1.03524e-08
6.59362e-11
6.83105e-12
1.10877e-09
7.45903e-09
2.19204e-08
4.3522e-08
6.95078e-08
9.73937e-08
1.25528e-07
1.52953e-07
1.79193e-07
2.04093e-07
2.27718e-07
2.50284e-07
2.72111e-07
2.93588e-07
3.1514e-07
3.37209e-07
3.60232e-07
3.84633e-07
4.108e-07
4.39093e-07
4.69828e-07
5.03278e-07
5.39674e-07
5.79197e-07
6.21985e-07
6.68136e-07
7.17713e-07
7.70751e-07
8.27263e-07
8.87259e-07
9.50747e-07
1.01775e-06
1.08835e-06
1.16266e-06
1.24085e-06
1.32315e-06
1.40986e-06
1.5013e-06
1.59784e-06
1.69985e-06
1.80764e-06
1.92142e-06
2.04119e-06
2.16668e-06
2.29717e-06
2.43142e-06
2.5675e-06
2.70276e-06
2.83381e-06
2.95654e-06
3.0663e-06
3.15807e-06
3.22667e-06
3.26641e-06
3.26336e-06
3.24371e-06
3.18589e-06
3.07562e-06
2.92622e-06
2.74045e-06
2.52204e-06
2.27682e-06
2.0124e-06
1.7377e-06
1.46229e-06
1.19546e-06
9.45216e-07
7.17331e-07
5.14777e-07
3.38077e-07
1.88005e-07
7.28178e-08
1.19877e-08
7.60272e-11
7.90658e-12
1.29196e-09
8.84021e-09
2.65733e-08
5.39106e-08
8.76042e-08
1.24272e-07
1.61479e-07
1.97728e-07
2.32234e-07
2.64708e-07
2.95201e-07
3.23989e-07
3.51502e-07
3.78262e-07
4.04842e-07
4.31829e-07
4.59801e-07
4.89306e-07
5.20849e-07
5.54885e-07
5.91815e-07
6.3198e-07
6.75665e-07
7.23095e-07
7.74442e-07
8.2983e-07
8.89336e-07
9.53007e-07
1.02086e-06
1.09292e-06
1.16918e-06
1.2497e-06
1.33455e-06
1.42387e-06
1.51787e-06
1.6168e-06
1.72101e-06
1.83086e-06
1.94677e-06
2.06909e-06
2.19811e-06
2.33389e-06
2.47621e-06
2.62437e-06
2.77711e-06
2.93244e-06
3.08755e-06
3.23886e-06
3.38204e-06
3.51221e-06
3.62412e-06
3.71245e-06
3.77201e-06
3.79802e-06
3.77477e-06
3.72969e-06
3.65174e-06
3.51288e-06
3.33114e-06
3.11224e-06
2.85994e-06
2.58027e-06
2.28109e-06
1.97155e-06
1.66159e-06
1.361e-06
1.07836e-06
8.20039e-07
5.8944e-07
3.87397e-07
2.15227e-07
8.30307e-08
1.36095e-08
8.62579e-11
9.03977e-12
1.48416e-09
1.02803e-08
3.1429e-08
6.48455e-08
1.06867e-07
1.53168e-07
2.00407e-07
2.46421e-07
2.90032e-07
3.30771e-07
3.68659e-07
4.04043e-07
4.37481e-07
4.6966e-07
5.01324e-07
5.33235e-07
5.66134e-07
6.00716e-07
6.37618e-07
6.77408e-07
7.20579e-07
7.6755e-07
8.18669e-07
8.74209e-07
9.34377e-07
9.9932e-07
1.06913e-06
1.14386e-06
1.22352e-06
1.30812e-06
1.39766e-06
1.49218e-06
1.59174e-06
1.69651e-06
1.80669e-06
1.92257e-06
2.04451e-06
2.17294e-06
2.30825e-06
2.45078e-06
2.60069e-06
2.75784e-06
2.92161e-06
3.09078e-06
3.26335e-06
3.43647e-06
3.60642e-06
3.76872e-06
3.91833e-06
4.04984e-06
4.15782e-06
4.23701e-06
4.28263e-06
4.29056e-06
4.24488e-06
4.17418e-06
4.06937e-06
3.90818e-06
3.69533e-06
3.4456e-06
3.16258e-06
2.85223e-06
2.52239e-06
2.18223e-06
1.84182e-06
1.51126e-06
1.19965e-06
9.13885e-07
6.57913e-07
4.32935e-07
2.40747e-07
9.28432e-08
1.52198e-08
9.66197e-11
1.02324e-11
1.68584e-09
1.17827e-08
3.64852e-08
7.62736e-08
1.27124e-07
1.83743e-07
2.41785e-07
2.98318e-07
3.51691e-07
4.01215e-07
4.46872e-07
4.89091e-07
5.28584e-07
5.66225e-07
6.02963e-07
6.39758e-07
6.77537e-07
7.17163e-07
7.59418e-07
8.04994e-07
8.54486e-07
9.08398e-07
9.67139e-07
1.03103e-06
1.10032e-06
1.17516e-06
1.25566e-06
1.34184e-06
1.43372e-06
1.53126e-06
1.63445e-06
1.74329e-06
1.85783e-06
1.97822e-06
2.10468e-06
2.23751e-06
2.37712e-06
2.52393e-06
2.67834e-06
2.84061e-06
3.01072e-06
3.18819e-06
3.37192e-06
3.55999e-06
3.74958e-06
3.93696e-06
4.11755e-06
4.28617e-06
4.4373e-06
4.56537e-06
4.66503e-06
4.7314e-06
4.76025e-06
4.74762e-06
4.67883e-06
4.58397e-06
4.44961e-06
4.26728e-06
4.02758e-06
3.74882e-06
3.4375e-06
3.0993e-06
2.74191e-06
2.37435e-06
2.00665e-06
1.64909e-06
1.31114e-06
1.0003e-06
7.21093e-07
4.7517e-07
2.64767e-07
1.02303e-07
1.68226e-08
1.07123e-10
1.14868e-11
1.89752e-09
1.33521e-08
4.17495e-08
8.81788e-08
1.48279e-07
2.15775e-07
2.85236e-07
3.52873e-07
4.165e-07
4.75179e-07
5.2885e-07
5.78039e-07
6.23634e-07
6.66727e-07
7.08498e-07
7.50128e-07
7.92751e-07
8.37413e-07
8.85053e-07
9.36493e-07
9.92436e-07
1.05347e-06
1.12007e-06
1.1926e-06
1.27132e-06
1.3564e-06
1.44794e-06
1.54593e-06
1.65034e-06
1.7611e-06
1.87815e-06
2.00143e-06
2.13099e-06
2.26694e-06
2.40952e-06
2.55906e-06
2.716e-06
2.88079e-06
3.0538e-06
3.23516e-06
3.4246e-06
3.6212e-06
3.82325e-06
4.02806e-06
4.23197e-06
4.43041e-06
4.61813e-06
4.78946e-06
4.93869e-06
5.06031e-06
5.14929e-06
5.20117e-06
5.21229e-06
5.17832e-06
5.08711e-06
4.96983e-06
4.80721e-06
4.59813e-06
4.33912e-06
4.0321e-06
3.6937e-06
3.32917e-06
2.94605e-06
2.55311e-06
2.1602e-06
1.77765e-06
1.41525e-06
1.08101e-06
7.80108e-07
5.14745e-07
2.87548e-07
1.1147e-07
1.8423e-08
1.17789e-10
1.28057e-11
2.11978e-09
1.49933e-08
4.72355e-08
1.00568e-07
1.70297e-07
2.49142e-07
3.30515e-07
4.09704e-07
4.83943e-07
5.52024e-07
6.13851e-07
6.70064e-07
7.21755e-07
7.70262e-07
8.17016e-07
8.63444e-07
9.10903e-07
9.6063e-07
1.01373e-06
1.07116e-06
1.13373e-06
1.2021e-06
1.27682e-06
1.35827e-06
1.44674e-06
1.54238e-06
1.64525e-06
1.7553e-06
1.87245e-06
1.99655e-06
2.12748e-06
2.26514e-06
2.40952e-06
2.56076e-06
2.71911e-06
2.88496e-06
3.05879e-06
3.24107e-06
3.43212e-06
3.63192e-06
3.83985e-06
4.05447e-06
4.27337e-06
4.49308e-06
4.70911e-06
4.91626e-06
5.10878e-06
5.28071e-06
5.42637e-06
5.54046e-06
5.61829e-06
5.65581e-06
5.64975e-06
5.59484e-06
5.48249e-06
5.34394e-06
5.15517e-06
4.91684e-06
4.63897e-06
4.30625e-06
3.94053e-06
3.54971e-06
3.14125e-06
2.72364e-06
2.30648e-06
1.90005e-06
1.51429e-06
1.1577e-06
8.36099e-07
5.52326e-07
3.0937e-07
1.2041e-07
2.00269e-08
1.28648e-10
1.41925e-11
2.35324e-09
1.67121e-08
5.29604e-08
1.13467e-07
1.93186e-07
2.83795e-07
3.77488e-07
4.68576e-07
5.53679e-07
6.31313e-07
7.01358e-07
7.64593e-07
8.2234e-07
8.76205e-07
9.27898e-07
9.79108e-07
1.03142e-06
1.08628e-06
1.14495e-06
1.20853e-06
1.27793e-06
1.35388e-06
1.43698e-06
1.52764e-06
1.62612e-06
1.73256e-06
1.84697e-06
1.96923e-06
2.09917e-06
2.23657e-06
2.38123e-06
2.533e-06
2.69187e-06
2.85798e-06
3.03163e-06
3.21331e-06
3.40357e-06
3.6029e-06
3.81157e-06
4.02932e-06
4.25512e-06
4.48697e-06
4.7217e-06
4.95508e-06
5.18193e-06
5.39656e-06
5.593e-06
5.76511e-06
5.90731e-06
6.01452e-06
6.08233e-06
6.10698e-06
6.08548e-06
6.01107e-06
5.87934e-06
5.72128e-06
5.50707e-06
5.23945e-06
4.93525e-06
4.58199e-06
4.18711e-06
3.76849e-06
3.33364e-06
2.89076e-06
2.44921e-06
2.01909e-06
1.61037e-06
1.23189e-06
8.90112e-07
5.88527e-07
3.30507e-07
1.29186e-07
2.164e-08
1.39733e-10
1.56506e-11
2.59859e-09
1.8514e-08
5.89439e-08
1.26909e-07
2.16982e-07
3.19743e-07
4.26109e-07
5.29367e-07
6.25507e-07
7.12773e-07
7.9104e-07
8.61253e-07
9.24991e-07
9.84157e-07
1.04075e-06
1.09674e-06
1.15396e-06
1.21404e-06
1.27842e-06
1.34832e-06
1.42476e-06
1.50853e-06
1.60025e-06
1.70035e-06
1.80906e-06
1.92647e-06
2.05251e-06
2.18699e-06
2.32963e-06
2.48013e-06
2.63822e-06
2.8037e-06
2.97659e-06
3.15706e-06
3.34555e-06
3.54263e-06
3.74898e-06
3.96511e-06
4.1912e-06
4.42671e-06
4.67016e-06
4.91895e-06
5.16899e-06
5.41532e-06
5.65296e-06
5.87546e-06
6.07649e-06
6.24992e-06
6.39033e-06
6.49275e-06
6.55284e-06
6.56696e-06
6.53219e-06
6.43967e-06
6.28987e-06
6.11354e-06
5.87353e-06
5.57871e-06
5.24191e-06
4.86675e-06
4.44213e-06
3.99266e-06
3.52895e-06
3.05894e-06
2.59172e-06
2.13723e-06
1.7053e-06
1.30491e-06
9.43051e-07
6.23892e-07
3.512e-07
1.37856e-07
2.32678e-08
1.5108e-10
1.71839e-11
2.85656e-09
2.04052e-08
6.5207e-08
1.40936e-07
2.41741e-07
3.57033e-07
4.76391e-07
5.92042e-07
6.99335e-07
7.96258e-07
8.82708e-07
9.59825e-07
1.02948e-06
1.09388e-06
1.15535e-06
1.21614e-06
1.27831e-06
1.34372e-06
1.41396e-06
1.49037e-06
1.57404e-06
1.66584e-06
1.76639e-06
1.87609e-06
1.99516e-06
2.12361e-06
2.26126e-06
2.40784e-06
2.56296e-06
2.72622e-06
2.8973e-06
3.07601e-06
3.26239e-06
3.45675e-06
3.65966e-06
3.87188e-06
4.09419e-06
4.32716e-06
4.57082e-06
4.82432e-06
5.08567e-06
5.35063e-06
5.61642e-06
5.87739e-06
6.12688e-06
6.35855e-06
6.56629e-06
6.74354e-06
6.88503e-06
6.98572e-06
7.04115e-06
7.04756e-06
7.00185e-06
6.89249e-06
6.72524e-06
6.53115e-06
6.26492e-06
5.94285e-06
5.57201e-06
5.16624e-06
4.71371e-06
4.22887e-06
3.73251e-06
3.2323e-06
2.73708e-06
2.25667e-06
1.80063e-06
1.37786e-06
9.95669e-07
6.58875e-07
3.71658e-07
1.4647e-07
2.49151e-08
1.6272e-10
1.87967e-11
3.1279e-09
2.23919e-08
7.1772e-08
1.55597e-07
2.67532e-07
3.95737e-07
5.2839e-07
6.56624e-07
7.75146e-07
8.81712e-07
9.76273e-07
1.0602e-06
1.13567e-06
1.20525e-06
1.27157e-06
1.33718e-06
1.40438e-06
1.47522e-06
1.55146e-06
1.63454e-06
1.72563e-06
1.82562e-06
1.93513e-06
2.05455e-06
2.18402e-06
2.32345e-06
2.47259e-06
2.63102e-06
2.79826e-06
2.97385e-06
3.15741e-06
3.34882e-06
3.54821e-06
3.75606e-06
3.97317e-06
4.20049e-06
4.43895e-06
4.68914e-06
4.95095e-06
5.22301e-06
5.50168e-06
5.78589e-06
6.06913e-06
6.34565e-06
6.60891e-06
6.85273e-06
7.06998e-06
7.25455e-06
7.40081e-06
7.50341e-06
7.5576e-06
7.55927e-06
7.50503e-06
7.38044e-06
7.19647e-06
6.98459e-06
6.69135e-06
6.3399e-06
5.9352e-06
5.49046e-06
5.00737e-06
4.48333e-06
3.94934e-06
3.41474e-06
2.88814e-06
2.3794e-06
1.89771e-06
1.45163e-06
1.04858e-06
6.93848e-07
3.92049e-07
1.55075e-07
2.65857e-08
1.74682e-10
2.04934e-11
3.41342e-09
2.44808e-08
7.86617e-08
1.70938e-07
2.94429e-07
4.35947e-07
5.82193e-07
7.23176e-07
8.52975e-07
9.69139e-07
1.07172e-06
1.16234e-06
1.24353e-06
1.31822e-06
1.38936e-06
1.4598e-06
1.53209e-06
1.60847e-06
1.69083e-06
1.78072e-06
1.87936e-06
1.98765e-06
2.10621e-06
2.23537e-06
2.37518e-06
2.52545e-06
2.68582e-06
2.85575e-06
3.03468e-06
3.22208e-06
3.41761e-06
3.62122e-06
3.83323e-06
4.05435e-06
4.28565e-06
4.52833e-06
4.78349e-06
5.05167e-06
5.33245e-06
5.62301e-06
5.92332e-06
6.2274e-06
6.52986e-06
6.82451e-06
7.10515e-06
7.36453e-06
7.59496e-06
7.79099e-06
7.94611e-06
8.05451e-06
8.1109e-06
8.11061e-06
8.0498e-06
7.91149e-06
7.71214e-06
7.48077e-06
7.16012e-06
6.7773e-06
6.33689e-06
5.84875e-06
5.32724e-06
4.76179e-06
4.18414e-06
3.61002e-06
3.04769e-06
2.5073e-06
1.99775e-06
1.52702e-06
1.10228e-06
7.29109e-07
4.12503e-07
1.63709e-07
2.82823e-08
1.86989e-10
2.22787e-11
3.71394e-09
2.66785e-08
8.59001e-08
1.87012e-07
3.22515e-07
4.7776e-07
6.37898e-07
7.91786e-07
9.32887e-07
1.05858e-06
1.16906e-06
1.26625e-06
1.35305e-06
1.43276e-06
1.5087e-06
1.58399e-06
1.66142e-06
1.74342e-06
1.832e-06
1.9288e-06
2.03507e-06
2.15172e-06
2.27932e-06
2.41815e-06
2.56814e-06
2.72902e-06
2.90028e-06
3.08129e-06
3.27141e-06
3.4701e-06
3.6771e-06
3.89252e-06
4.1169e-06
4.3513e-06
4.59708e-06
4.85573e-06
5.12849e-06
5.41594e-06
5.71575e-06
6.0294e-06
6.35183e-06
6.67818e-06
7.00268e-06
7.31958e-06
7.62139e-06
7.89943e-06
8.14785e-06
8.35971e-06
8.52789e-06
8.64586e-06
8.70762e-06
8.70785e-06
8.64214e-06
8.49138e-06
8.2771e-06
8.02472e-06
7.67603e-06
7.25984e-06
6.78102e-06
6.24779e-06
5.67871e-06
5.06886e-06
4.44128e-06
3.82178e-06
3.21845e-06
2.64226e-06
2.10193e-06
1.60473e-06
1.15719e-06
7.64893e-07
4.33111e-07
1.72414e-07
3.00068e-08
1.99657e-10
2.41578e-11
4.0303e-09
2.89919e-08
9.35112e-08
2.03871e-07
3.51872e-07
5.21281e-07
6.95615e-07
8.62555e-07
1.01497e-06
1.15011e-06
1.26835e-06
1.37196e-06
1.46424e-06
1.54889e-06
1.62958e-06
1.70971e-06
1.79232e-06
1.87999e-06
1.97486e-06
2.07862e-06
2.19255e-06
2.31754e-06
2.45412e-06
2.60246e-06
2.76242e-06
2.93357e-06
3.11531e-06
3.30692e-06
3.50772e-06
3.71722e-06
3.93528e-06
4.16224e-06
4.39898e-06
4.64691e-06
4.90776e-06
5.18331e-06
5.47496e-06
5.78159e-06
6.10552e-06
6.44295e-06
6.79005e-06
7.14163e-06
7.49255e-06
7.8355e-06
8.16092e-06
8.46298e-06
8.73396e-06
8.96597e-06
9.15114e-06
9.28208e-06
9.35198e-06
9.35482e-06
9.2856e-06
9.12324e-06
8.8933e-06
8.61928e-06
8.24167e-06
7.79022e-06
7.27024e-06
6.69013e-06
6.06877e-06
5.40761e-06
4.72473e-06
4.05348e-06
3.40318e-06
2.78619e-06
2.21144e-06
1.68541e-06
1.21368e-06
8.01395e-07
4.5392e-07
1.81241e-07
3.17597e-08
2.12699e-10
2.61366e-11
4.36328e-09
3.14283e-08
1.0152e-07
2.21571e-07
3.82586e-07
5.66617e-07
7.55456e-07
9.35586e-07
1.0993e-06
1.24378e-06
1.36963e-06
1.4795e-06
1.57713e-06
1.66662e-06
1.75199e-06
1.83694e-06
1.92474e-06
2.0181e-06
2.11928e-06
2.23e-06
2.35156e-06
2.48482e-06
2.63023e-06
2.78787e-06
2.95747e-06
3.13851e-06
3.33028e-06
3.532e-06
3.74299e-06
3.96288e-06
4.19172e-06
4.43015e-06
4.67946e-06
4.94147e-06
5.2183e-06
5.51202e-06
5.82299e-06
6.15364e-06
6.50228e-06
6.86606e-06
7.24079e-06
7.622e-06
8.00302e-06
8.3738e-06
8.72862e-06
9.05922e-06
9.35699e-06
9.61309e-06
9.81871e-06
9.96551e-06
1.00458e-05
1.00529e-05
9.98122e-06
9.80778e-06
9.56088e-06
9.26487e-06
8.85755e-06
8.36932e-06
7.80623e-06
7.17711e-06
6.50081e-06
5.78115e-06
5.0379e-06
4.30838e-06
3.6046e-06
2.94109e-06
2.32754e-06
1.76977e-06
1.27211e-06
8.38794e-07
4.7501e-07
1.9021e-07
3.35406e-08
2.26118e-10
2.82203e-11
4.71391e-09
3.39953e-08
1.09953e-07
2.40166e-07
4.14741e-07
6.13872e-07
8.17532e-07
1.01098e-06
1.18598e-06
1.33967e-06
1.47295e-06
1.58891e-06
1.69172e-06
1.78592e-06
1.8759e-06
1.96564e-06
2.05859e-06
2.15764e-06
2.2651e-06
2.38275e-06
2.51186e-06
2.65324e-06
2.80726e-06
2.9739e-06
3.1528e-06
3.3433e-06
3.54463e-06
3.75598e-06
3.97676e-06
4.20672e-06
4.44622e-06
4.69628e-06
4.95863e-06
5.23554e-06
5.52954e-06
5.84266e-06
6.17642e-06
6.53211e-06
6.90798e-06
7.30097e-06
7.70749e-06
8.12206e-06
8.53431e-06
8.93885e-06
9.32728e-06
9.69049e-06
1.00188e-05
1.03024e-05
1.05313e-05
1.06962e-05
1.07886e-05
1.08011e-05
1.07277e-05
1.05437e-05
1.02782e-05
9.95992e-06
9.52231e-06
8.99619e-06
8.38858e-06
7.70895e-06
6.97625e-06
6.19195e-06
5.38355e-06
4.58934e-06
3.82533e-06
3.109e-06
2.45156e-06
1.85854e-06
1.33281e-06
8.7726e-07
4.96472e-07
1.99321e-07
3.53492e-08
2.39914e-10
3.04145e-11
5.08323e-09
3.67008e-08
1.18837e-07
2.59712e-07
4.48424e-07
6.63151e-07
8.81949e-07
1.08884e-06
1.27507e-06
1.43784e-06
1.57836e-06
1.70019e-06
1.80802e-06
1.9068e-06
2.00128e-06
2.09573e-06
2.19379e-06
2.29848e-06
2.41216e-06
2.53663e-06
2.67314e-06
2.82244e-06
2.98481e-06
3.16013e-06
3.34791e-06
3.54744e-06
3.75787e-06
3.97845e-06
4.20868e-06
4.44856e-06
4.69879e-06
4.96084e-06
5.23694e-06
5.52985e-06
5.84262e-06
6.17663e-06
6.53558e-06
6.91865e-06
7.32443e-06
7.7503e-06
8.19263e-06
8.64083e-06
9.09013e-06
9.53231e-06
9.95815e-06
1.03575e-05
1.07196e-05
1.10333e-05
1.12876e-05
1.14723e-05
1.15779e-05
1.15965e-05
1.15219e-05
1.1328e-05
1.10423e-05
1.07011e-05
1.0233e-05
9.66828e-06
9.01512e-06
8.28443e-06
7.49474e-06
6.64147e-06
5.76355e-06
4.89872e-06
4.06777e-06
3.29196e-06
2.58491e-06
1.95251e-06
1.39619e-06
9.1696e-07
5.18378e-07
2.08583e-07
3.7184e-08
2.54081e-10
3.27251e-11
5.47233e-09
3.95531e-08
1.28199e-07
2.80266e-07
4.8372e-07
7.14555e-07
9.4881e-07
1.16925e-06
1.36666e-06
1.53833e-06
1.68587e-06
1.81337e-06
1.92601e-06
2.02921e-06
2.12807e-06
2.22713e-06
2.33022e-06
2.44044e-06
2.56024e-06
2.69139e-06
2.83512e-06
2.99209e-06
3.1625e-06
3.34612e-06
3.54238e-06
3.7505e-06
3.96964e-06
4.1991e-06
4.43857e-06
4.68838e-06
4.94961e-06
5.22425e-06
5.51504e-06
5.8252e-06
6.15762e-06
6.51606e-06
6.90175e-06
7.31466e-06
7.75344e-06
8.21664e-06
8.69407e-06
9.18149e-06
9.67132e-06
1.01546e-05
1.0621e-05
1.10593e-05
1.14576e-05
1.18033e-05
1.20846e-05
1.22899e-05
1.24094e-05
1.24345e-05
1.23588e-05
1.21562e-05
1.1849e-05
1.14839e-05
1.09855e-05
1.03818e-05
9.68212e-06
8.90108e-06
8.05427e-06
7.13005e-06
6.17882e-06
5.23818e-06
4.33395e-06
3.49188e-06
2.72906e-06
2.05255e-06
1.46263e-06
9.58061e-07
5.40787e-07
2.18006e-07
3.90436e-08
2.68609e-10
3.51586e-11
5.88233e-09
4.25608e-08
1.38068e-07
3.01886e-07
5.20712e-07
7.68181e-07
1.01821e-06
1.25229e-06
1.46079e-06
1.64117e-06
1.79549e-06
1.92841e-06
2.04565e-06
2.15308e-06
2.25618e-06
2.35973e-06
2.46772e-06
2.58337e-06
2.70913e-06
2.84678e-06
2.99749e-06
3.16184e-06
3.33995e-06
3.5315e-06
3.73584e-06
3.95216e-06
4.17965e-06
4.41777e-06
4.66644e-06
4.92634e-06
5.19905e-06
5.48707e-06
5.79371e-06
6.1228e-06
6.47734e-06
6.86137e-06
7.27607e-06
7.7213e-06
8.19794e-06
8.69704e-06
9.2146e-06
9.74428e-06
1.02776e-05
1.08047e-05
1.13142e-05
1.17935e-05
1.22295e-05
1.26086e-05
1.29175e-05
1.3144e-05
1.32774e-05
1.33089e-05
1.32321e-05
1.30225e-05
1.26938e-05
1.23023e-05
1.17746e-05
1.11322e-05
1.0386e-05
9.55411e-06
8.65124e-06
7.65674e-06
6.62925e-06
5.60863e-06
4.62542e-06
3.7105e-06
2.88545e-06
2.15959e-06
1.53259e-06
1.00074e-06
5.63757e-07
2.27604e-07
4.09261e-08
2.83484e-10
3.77216e-11
6.31439e-09
4.5733e-08
1.48473e-07
3.2463e-07
5.59486e-07
8.24123e-07
1.09022e-06
1.33802e-06
1.5575e-06
1.74637e-06
1.90721e-06
2.04528e-06
2.16688e-06
2.27834e-06
2.3855e-06
2.49339e-06
2.60614e-06
2.72706e-06
2.8586e-06
3.00254e-06
3.15996e-06
3.33139e-06
3.51685e-06
3.71595e-06
3.92799e-06
4.15217e-06
4.38778e-06
4.63444e-06
4.8924e-06
5.16276e-06
5.44759e-06
5.74997e-06
6.0737e-06
6.42281e-06
6.80185e-06
7.21353e-06
7.65937e-06
8.1419e-06
8.65459e-06
9.19355e-06
9.75403e-06
1.03285e-05
1.09076e-05
1.14805e-05
1.20347e-05
1.25563e-05
1.30309e-05
1.34437e-05
1.37804e-05
1.40281e-05
1.41754e-05
1.42131e-05
1.41346e-05
1.39197e-05
1.35718e-05
1.31499e-05
1.25943e-05
1.19141e-05
1.11224e-05
1.02379e-05
9.28075e-06
8.21924e-06
7.11368e-06
6.01008e-06
4.94313e-06
3.94923e-06
3.05544e-06
2.27457e-06
1.60657e-06
1.04518e-06
5.87348e-07
2.37388e-07
4.28299e-08
2.98688e-10
4.0421e-11
6.76973e-09
4.90788e-08
1.59444e-07
3.48557e-07
6.00122e-07
8.82468e-07
1.16494e-06
1.42649e-06
1.65682e-06
1.85392e-06
2.02099e-06
2.16393e-06
2.28962e-06
2.4049e-06
2.51593e-06
2.62797e-06
2.74532e-06
2.87132e-06
3.00844e-06
3.15841e-06
3.32226e-06
3.50045e-06
3.69291e-06
3.89921e-06
4.11864e-06
4.35043e-06
4.594e-06
4.84923e-06
5.11674e-06
5.39807e-06
5.69585e-06
6.01372e-06
6.35598e-06
6.72719e-06
7.132e-06
7.57326e-06
8.05482e-06
8.57294e-06
9.12438e-06
9.70594e-06
1.03113e-05
1.09323e-05
1.15588e-05
1.21788e-05
1.27784e-05
1.33428e-05
1.3856e-05
1.43024e-05
1.46667e-05
1.49352e-05
1.5096e-05
1.51396e-05
1.50591e-05
1.48406e-05
1.44748e-05
1.40208e-05
1.3438e-05
1.27214e-05
1.18859e-05
1.09472e-05
9.93699e-06
8.81386e-06
7.62991e-06
6.44166e-06
5.28733e-06
4.20905e-06
3.24023e-06
2.39845e-06
1.68507e-06
1.0916e-06
6.11621e-07
2.47371e-07
4.47531e-08
3.14198e-10
4.32642e-11
7.24961e-09
5.26082e-08
1.71012e-07
3.73726e-07
6.42702e-07
9.43299e-07
1.24242e-06
1.51774e-06
1.75875e-06
1.96381e-06
2.13678e-06
2.28427e-06
2.41378e-06
2.53262e-06
2.64731e-06
2.76333e-06
2.88508e-06
3.01596e-06
3.15843e-06
3.31417e-06
3.48416e-06
3.66879e-06
3.86794e-06
4.08113e-06
4.30768e-06
4.54691e-06
4.79842e-06
5.0624e-06
5.33985e-06
5.63282e-06
5.94452e-06
6.2791e-06
6.64136e-06
7.03612e-06
7.46865e-06
7.94333e-06
8.45927e-06
9.01449e-06
9.60736e-06
1.02331e-05
1.08847e-05
1.15534e-05
1.22279e-05
1.28952e-05
1.35403e-05
1.4147e-05
1.46983e-05
1.51776e-05
1.55688e-05
1.58576e-05
1.60316e-05
1.6081e-05
1.59985e-05
1.57768e-05
1.53949e-05
1.49083e-05
1.42989e-05
1.35472e-05
1.26695e-05
1.16776e-05
1.06136e-05
9.43561e-06
8.17474e-06
6.9016e-06
5.65754e-06
4.49044e-06
3.44076e-06
2.53212e-06
1.76864e-06
1.14021e-06
6.36641e-07
2.57561e-07
4.66935e-08
3.29989e-10
4.62588e-11
7.75537e-09
5.63314e-08
1.8321e-07
4.002e-07
6.87306e-07
1.00669e-06
1.32271e-06
1.61179e-06
1.86326e-06
2.07596e-06
2.25449e-06
2.4062e-06
2.53924e-06
2.66139e-06
2.77952e-06
2.89931e-06
3.02526e-06
3.16079e-06
3.30837e-06
3.46963e-06
3.64548e-06
3.83626e-06
4.0418e-06
4.26164e-06
4.49513e-06
4.74173e-06
5.00129e-06
5.27431e-06
5.56223e-06
5.86765e-06
6.19431e-06
6.54691e-06
6.93068e-06
7.3511e-06
7.81394e-06
8.32105e-06
8.8721e-06
9.46692e-06
1.01023e-05
1.07731e-05
1.14716e-05
1.21881e-05
1.29106e-05
1.36247e-05
1.43144e-05
1.49623e-05
1.55507e-05
1.60617e-05
1.64789e-05
1.67873e-05
1.69741e-05
1.70294e-05
1.69458e-05
1.6719e-05
1.63244e-05
1.58058e-05
1.517e-05
1.43845e-05
1.34661e-05
1.24249e-05
1.13042e-05
1.00781e-05
8.7441e-06
7.38724e-06
6.0525e-06
4.7933e-06
3.65763e-06
2.67633e-06
1.85781e-06
1.19124e-06
6.62474e-07
2.67964e-07
4.86489e-08
3.46027e-10
4.94127e-11
8.28842e-09
6.0259e-08
1.96072e-07
4.28039e-07
7.34011e-07
1.07272e-06
1.40586e-06
1.70865e-06
1.97033e-06
2.19032e-06
2.37404e-06
2.52962e-06
2.66587e-06
2.79107e-06
2.91241e-06
3.03576e-06
3.1657e-06
3.30567e-06
3.45813e-06
3.62464e-06
3.80609e-06
4.00275e-06
4.21446e-06
4.44076e-06
4.6811e-06
4.93513e-06
5.20294e-06
5.48542e-06
5.78448e-06
6.10323e-06
6.44595e-06
6.81787e-06
7.22478e-06
7.67257e-06
8.16551e-06
8.70563e-06
9.29395e-06
9.92911e-06
1.06076e-05
1.13235e-05
1.20688e-05
1.28326e-05
1.3602e-05
1.43616e-05
1.50944e-05
1.57819e-05
1.64056e-05
1.6947e-05
1.73889e-05
1.77161e-05
1.79154e-05
1.79767e-05
1.78927e-05
1.76596e-05
1.72556e-05
1.67068e-05
1.60441e-05
1.52267e-05
1.42698e-05
1.31829e-05
1.20026e-05
1.07338e-05
9.33322e-06
7.8951e-06
6.47021e-06
5.11693e-06
3.89105e-06
2.83169e-06
1.95309e-06
1.24492e-06
6.89188e-07
2.78583e-07
5.06165e-08
3.62277e-10
5.27344e-11
8.8502e-09
6.44022e-08
2.09632e-07
4.57305e-07
7.8289e-07
1.14144e-06
1.49189e-06
1.80829e-06
2.07989e-06
2.3068e-06
2.4953e-06
2.65438e-06
2.79353e-06
2.92152e-06
3.04584e-06
3.17253e-06
3.30626e-06
3.45047e-06
3.60757e-06
3.77912e-06
3.96593e-06
4.16826e-06
4.38596e-06
4.61863e-06
4.86584e-06
5.12744e-06
5.40384e-06
5.69632e-06
6.00724e-06
6.34025e-06
6.70011e-06
7.09252e-06
7.52356e-06
7.99905e-06
8.52301e-06
9.09777e-06
9.72381e-06
1.03995e-05
1.11209e-05
1.18816e-05
1.26726e-05
1.34823e-05
1.42969e-05
1.51e-05
1.58735e-05
1.65984e-05
1.72553e-05
1.78252e-05
1.82907e-05
1.86358e-05
1.88474e-05
1.89148e-05
1.88306e-05
1.85911e-05
1.81805e-05
1.76051e-05
1.69143e-05
1.6067e-05
1.50742e-05
1.39459e-05
1.27048e-05
1.13936e-05
9.93681e-06
8.42099e-06
6.90796e-06