/*--------------------------------*- C++ -*----------------------------------*\
  =========                 |
  \\      /  F ield         | OpenFOAM: The Open Source CFD Toolbox
   \\    /   O peration     | Website:  https://openfoam.org
    \\  /    A nd           | Version:  12
     \\/     M anipulation  |
\*---------------------------------------------------------------------------*/
FoamFile
{
    format      ascii;
    class       volScalarField;
    location    "2.5";
    object      p;
}
// * * * * * * * * * * * * * * * * * * * * * * * * * * * * * * * * * * * * * //

dimensions      [0 2 -2 0 0 0 0];

internalField   nonuniform List<scalar> 
5625
(
-3.72631e-08
3.35171e-05
6.22292e-05
7.03569e-05
5.1366e-05
3.24334e-06
-7.35458e-05
-0.000177433
-0.000306446
-0.000458611
-0.00063218
-0.000825774
-0.00103845
-0.00126974
-0.00151965
-0.00178862
-0.00207761
-0.00238795
-0.0027214
-0.00308006
-0.00346637
-0.00388305
-0.00433305
-0.00481949
-0.00534557
-0.00591453
-0.00652943
-0.00719309
-0.00790784
-0.0086753
-0.0094961
-0.0103695
-0.011293
-0.012262
-0.0132687
-0.0143024
-0.015348
-0.016386
-0.0173916
-0.0183341
-0.0191768
-0.019877
-0.0203857
-0.0206487
-0.0206073
-0.0202002
-0.0193653
-0.0180431
-0.0161795
-0.0137302
-0.0106645
-0.00696937
-0.00267034
0.00219198
0.00757277
0.0133531
0.0193801
0.0254935
0.0315011
0.0371987
0.0423845
0.0468761
0.0505282
0.0532498
0.0550148
0.0558673
0.0559165
0.055324
0.0542847
0.0530049
0.0516826
0.0504958
0.0495924
0.0490957
0.0490055
-7.76909e-06
2.09587e-05
4.37711e-05
4.72621e-05
2.57244e-05
-2.3074e-05
-9.90706e-05
-0.000201089
-0.000327486
-0.000476537
-0.000646677
-0.000836646
-0.00104557
-0.00127299
-0.00151893
-0.00178376
-0.00206836
-0.00237399
-0.00270228
-0.00305522
-0.00343506
-0.00384439
-0.00428597
-0.00476273
-0.00527772
-0.00583393
-0.00643424
-0.00708127
-0.00777718
-0.00852345
-0.00932059
-0.0101678
-0.0110627
-0.0120006
-0.0129741
-0.0139728
-0.0149822
-0.0159834
-0.0169524
-0.0178597
-0.0186699
-0.0193416
-0.0198273
-0.0200744
-0.020026
-0.0196223
-0.0188029
-0.0175095
-0.0156892
-0.0132986
-0.0103072
-0.00670119
-0.00251049
0.00223391
0.00749688
0.0131373
0.0190252
0.0250024
0.0308819
0.0364656
0.0415579
0.0459821
0.0495981
0.0523179
0.0541168
0.0550373
0.0551846
0.0547137
0.0538108
0.0526723
0.0514843
0.0504141
0.0495958
0.0491435
0.0490616
-1.99226e-05
7.17672e-06
2.55044e-05
2.47583e-05
7.31174e-07
-4.87956e-05
-0.000124036
-0.00022415
-0.000347798
-0.000493505
-0.000659887
-0.000845807
-0.00105046
-0.00127341
-0.00151466
-0.00177455
-0.00205385
-0.00235374
-0.00267572
-0.00302161
-0.00339353
-0.00379385
-0.0042252
-0.00469029
-0.00519191
-0.00573288
-0.00631588
-0.00694336
-0.0076173
-0.00833908
-0.00910914
-0.00992674
-0.0107895
-0.0116931
-0.0126305
-0.0135918
-0.0145633
-0.0155269
-0.0164598
-0.0173338
-0.018115
-0.0187633
-0.0192332
-0.0194736
-0.0194292
-0.0190417
-0.018252
-0.0170027
-0.0152417
-0.0129255
-0.0100235
-0.00652148
-0.00245093
0.00217699
0.00731066
0.0128104
0.0185646
0.024414
0.0301769
0.0356604
0.0406738
0.0450447
0.0486361
0.0513622
0.0531984
0.0541862
0.0544272
0.0540715
0.0532978
0.0522935
0.0512353
0.050277
0.0495401
0.0491294
0.0490528
-3.29656e-05
-4.26235e-06
1.2391e-05
9.03155e-06
-1.67579e-05
-6.68789e-05
-0.00014158
-0.000240189
-0.000361562
-0.000504395
-0.00066744
-0.000849656
-0.00105029
-0.00126893
-0.00150554
-0.00176046
-0.00203435
-0.0023283
-0.0026437
-0.00298223
-0.00334591
-0.00373692
-0.0041577
-0.0046108
-0.00509887
-0.00562453
-0.00619035
-0.00679862
-0.00745128
-0.00814966
-0.00889427
-0.00968452
-0.0105183
-0.0113916
-0.0122981
-0.0132285
-0.01417
-0.0151056
-0.0160137
-0.0168675
-0.0176343
-0.0182757
-0.0187474
-0.0189997
-0.0189783
-0.0186256
-0.0178829
-0.0166931
-0.0150034
-0.0127696
-0.00995998
-0.0065599
-0.00259229
0.00193673
0.00695584
0.0123539
0.0180141
0.02378
0.0294734
0.0349039
0.0398825
0.0442375
0.0478321
0.0505797
0.0524548
0.0534972
0.0538072
0.053532
0.0528474
0.0519359
0.0509676
0.0500867
0.0494056
0.0490209
0.0489406
-4.39982e-05
-1.23361e-05
4.29673e-06
-5.54621e-07
-2.75654e-05
-7.81717e-05
-0.000152499
-0.000249918
-0.000369389
-0.000509719
-0.000669757
-0.000848531
-0.00104533
-0.00125975
-0.00149173
-0.00174158
-0.0020099
-0.00229767
-0.00260621
-0.00293707
-0.00329211
-0.00367343
-0.00408327
-0.00452405
-0.0049983
-0.00550853
-0.0060572
-0.00664657
-0.00727857
-0.00795462
-0.00867541
-0.00944062
-0.0102486
-0.0110959
-0.0119769
-0.0128833
-0.0138033
-0.0147212
-0.0156168
-0.0164644
-0.0172329
-0.0178852
-0.018378
-0.0186624
-0.0186845
-0.0183869
-0.0177105
-0.0165972
-0.0149929
-0.0128518
-0.0101398
-0.00684039
-0.00296699
0.0014669
0.00639477
0.011717
0.0173142
0.0230325
0.0286957
0.0341138
0.0390971
0.0434723
0.0470997
0.0498896
0.0518139
0.0529101
0.053277
0.0530615
0.0524386
0.051589
0.0506794
0.0498484
0.0492003
0.048825
0.0487284
-5.11541e-05
-1.62803e-05
1.02326e-06
-4.72344e-06
-3.26532e-05
-8.37016e-05
-0.00015779
-0.000254252
-0.000372088
-0.000510178
-0.000667432
-0.000842923
-0.00103597
-0.00124618
-0.00147347
-0.0017181
-0.00198063
-0.00226196
-0.00256328
-0.00288609
-0.00323208
-0.00360324
-0.0040017
-0.00442977
-0.00488988
-0.00538447
-0.00591596
-0.00648664
-0.00709854
-0.00775327
-0.00845184
-0.00919437
-0.00997981
-0.0108055
-0.0116669
-0.0125566
-0.0134642
-0.0143755
-0.0152715
-0.0161282
-0.0169156
-0.0175977
-0.018132
-0.0184699
-0.0185574
-0.0183364
-0.0177466
-0.0167282
-0.0152252
-0.0131889
-0.0105827
-0.0073869
-0.00360809
0.000736551
0.00558713
0.0108499
0.0164059
0.0221034
0.0277668
0.0332058
0.0382283
0.0426574
0.0463485
0.0492068
0.0511991
0.0523594
0.0527847
0.0526219
0.0520467
0.0512402
0.0503683
0.0495663
0.048933
0.0485517
0.0484255
-5.30997e-05
-1.53121e-05
2.81999e-06
-3.55149e-06
-3.2266e-05
-8.37784e-05
-0.000157768
-0.000253483
-0.000369921
-0.000505989
-0.000660649
-0.000832993
-0.00102236
-0.00122837
-0.0014509
-0.00169018
-0.00194672
-0.00222136
-0.00251517
-0.00282956
-0.00316614
-0.00352677
-0.00391352
-0.00432861
-0.00477438
-0.00525329
-0.00576778
-0.00632025
-0.00691293
-0.00754777
-0.00822623
-0.00894908
-0.00971607
-0.0105256
-0.0113741
-0.0122559
-0.0131618
-0.0140792
-0.0149906
-0.0158735
-0.0166991
-0.0174319
-0.0180298
-0.0184441
-0.0186199
-0.0184978
-0.0180156
-0.0171111
-0.0157253
-0.0138067
-0.0113154
-0.0082282
-0.00454616
-0.00028669
0.0044952
0.0097107
0.0152425
0.0209406
0.0266302
0.0321195
0.0372135
0.04173
0.045518
0.0484749
0.0505607
0.0518039
0.0522985
0.0521907
0.0516577
0.0508831
0.0500336
0.0492438
0.0486096
0.0482081
0.0480401
-4.88759e-05
-8.78224e-06
1.00101e-05
3.05813e-06
-2.64399e-05
-7.85012e-05
-0.000152554
-0.00024773
-0.000362991
-0.000497249
-0.000649483
-0.000818812
-0.00100459
-0.0012064
-0.00142413
-0.00165797
-0.00190836
-0.00217608
-0.00246214
-0.00276785
-0.00309474
-0.00344461
-0.00381944
-0.0042214
-0.00465286
-0.00511628
-0.00561424
-0.00614934
-0.00672416
-0.00734111
-0.00800229
-0.00870931
-0.00946297
-0.0102629
-0.011107
-0.0119911
-0.0129078
-0.013846
-0.01479
-0.0157183
-0.0166029
-0.0174091
-0.0180943
-0.018609
-0.0188968
-0.0188961
-0.0185423
-0.01777
-0.0165172
-0.014729
-0.0123618
-0.00938906
-0.00580674
-0.00163089
0.00308767
0.00826481
0.0137856
0.0195021
0.0252401
0.0308066
0.0360028
0.0406403
0.0445599
0.0476496
0.0498599
0.0512114
0.0517932
0.0517502
0.0512611
0.0505126
0.0496748
0.0488835
0.0482346
0.0478
0.0475797
-3.77974e-05
3.79912e-06
2.28528e-05
1.51839e-05
-1.52113e-05
-6.79656e-05
-0.000142264
-0.000237109
-0.000351407
-0.000484052
-0.000634024
-0.000800465
-0.000982713
-0.00118036
-0.00139327
-0.00162157
-0.0018657
-0.00212634
-0.00240447
-0.00270132
-0.00301835
-0.00335731
-0.00372014
-0.00410902
-0.00452636
-0.00497474
-0.00545696
-0.00597595
-0.00653474
-0.0071364
-0.00778388
-0.00847984
-0.00922636
-0.0100246
-0.0108741
-0.0117725
-0.0127141
-0.0136898
-0.014685
-0.0156795
-0.0166459
-0.0175491
-0.018346
-0.0189852
-0.0194084
-0.0195512
-0.0193457
-0.0187233
-0.0176185
-0.0159727
-0.0137389
-0.0108869
-0.00740833
-0.00331691
0.00134075
0.00648512
0.0120043
0.0177532
0.0235583
0.0292257
0.0345529
0.0393445
0.0434317
0.0466911
0.0490612
0.0505521
0.0512458
0.0512839
0.0508462
0.0501235
0.0492904
0.048487
0.0478118
0.0473326
0.0470514
-1.94084e-05
2.27782e-05
4.15393e-05
3.28794e-05
1.37962e-06
-5.22635e-05
-0.000127013
-0.000221736
-0.000335273
-0.000466492
-0.000614364
-0.00077803
-0.000956828
-0.00115034
-0.00135841
-0.00158114
-0.00181891
-0.00207238
-0.00234246
-0.00263032
-0.00293741
-0.00326542
-0.00361631
-0.00399232
-0.00439596
-0.00483003
-0.00529763
-0.00580215
-0.00634726
-0.00693687
-0.00757498
-0.00826556
-0.00901223
-0.00981785
-0.010684
-0.01161
-0.0125925
-0.0136236
-0.0146903
-0.0157731
-0.0168446
-0.0178691
-0.0188018
-0.0195893
-0.0201703
-0.0204772
-0.0204386
-0.0199823
-0.0190391
-0.0175471
-0.0154559
-0.0127317
-0.00936213
-0.00535812
-0.000761891
0.00435182
0.00987502
0.015666
0.0215531
0.0273419
0.0328263
0.037804
0.0420953
0.0455634
0.0481322
0.0497986
0.0506343
0.0507756
0.0504025
0.0497097
0.0488785
0.0480553
0.0473439
0.0468097
0.0464615
6.58585e-06
4.83949e-05
6.62082e-05
5.61803e-05
2.32944e-05
-3.1476e-05
-0.000106898
-0.000201711
-0.000314683
-0.000444651
-0.000590571
-0.000751576
-0.000927002
-0.00111642
-0.00131966
-0.00153679
-0.00176817
-0.0020144
-0.00227637
-0.00255521
-0.00285235
-0.00316949
-0.00350864
-0.00387216
-0.00426274
-0.00468349
-0.00513793
-0.00563007
-0.00616439
-0.00674582
-0.00737968
-0.00807148
-0.00882662
-0.00964997
-0.0105451
-0.0115137
-0.012554
-0.0136598
-0.0148192
-0.0160128
-0.017213
-0.0183826
-0.0194747
-0.0204329
-0.0211926
-0.0216824
-0.0218273
-0.0215515
-0.0207824
-0.0194548
-0.0175151
-0.0149262
-0.0116723
-0.0077608
-0.00322942
0.00185232
0.00738121
0.0132199
0.0191998
0.0251268
0.0307918
0.0359856
0.0405169
0.0442338
0.0470431
0.048925
0.0499377
0.0502097
0.0499192
0.0492652
0.0484366
0.0475883
0.0468328
0.0462353
0.0458143
4.03454e-05
8.07936e-05
9.69461e-05
8.51036e-05
5.04961e-05
-5.67228e-06
-8.20041e-05
-0.000177118
-0.000289716
-0.000418599
-0.000562707
-0.000721165
-0.000893303
-0.00107868
-0.00127711
-0.00148866
-0.00171363
-0.00195262
-0.00220647
-0.00247632
-0.0027636
-0.00307007
-0.00339784
-0.00374943
-0.00412781
-0.0045365
-0.0049796
-0.00546187
-0.0059888
-0.00656659
-0.00720208
-0.00790257
-0.00867552
-0.00952797
-0.0104658
-0.0114927
-0.0126088
-0.0138093
-0.0150829
-0.0164101
-0.0177621
-0.0190996
-0.020373
-0.0215225
-0.0224795
-0.0231689
-0.0235118
-0.023429
-0.0228449
-0.0216914
-0.019912
-0.0174666
-0.0143361
-0.0105243
-0.00606401
-0.00101884
0.00451357
0.0104015
0.0164805
0.0225582
0.0284237
0.0338609
0.0386668
0.0426728
0.0457661
0.0479068
0.049136
0.0495708
0.0493858
0.0487834
0.0479613
0.0470855
0.0462796
0.0456117
0.0451131
8.19398e-05
0.000120048
0.000133794
0.000119642
8.29383e-05
2.50789e-05
-5.24087e-05
-0.000148035
-0.000260443
-0.000388401
-0.000530832
-0.000686854
-0.00085579
-0.0010372
-0.00123087
-0.00143685
-0.00165545
-0.00188722
-0.00213302
-0.00239399
-0.00267161
-0.00296771
-0.00328458
-0.00362498
-0.00399225
-0.00439044
-0.00482435
-0.0052997
-0.00582318
-0.00640246
-0.00704617
-0.00776365
-0.00856462
-0.00945847
-0.0104534
-0.0115552
-0.0127657
-0.0140812
-0.0154905
-0.0169733
-0.018499
-0.0200258
-0.0215004
-0.0228592
-0.0240296
-0.0249326
-0.0254857
-0.0256066
-0.025217
-0.0242465
-0.0226361
-0.0203427
-0.0173446
-0.0136414
-0.00926079
-0.0042599
0.00127021
0.00720467
0.0133846
0.019621
0.0257023
0.0314065
0.0365191
0.0408535
0.044275
0.0467203
0.048209
0.0488434
0.0487912
0.0482573
0.0474489
0.0465455
0.0456844
0.0449406
0.0443599
0.000131357
0.000166163
0.000176746
0.000159763
0.000120564
6.07079e-05
-1.81879e-05
-0.000114536
-0.000226933
-0.000354118
-0.000495004
-0.0006487
-0.000814527
-0.000992037
-0.00118102
-0.0013815
-0.00159378
-0.00181842
-0.00205628
-0.00230854
-0.00257676
-0.00286293
-0.00316952
-0.00349964
-0.00385711
-0.00424661
-0.00467383
-0.00514562
-0.00567006
-0.00625656
-0.00691574
-0.00765922
-0.00849913
-0.00944737
-0.0105145
-0.0117083
-0.0130319
-0.0144824
-0.0160481
-0.0177073
-0.019427
-0.021162
-0.0228552
-0.0244388
-0.025836
-0.026964
-0.0277372
-0.0280705
-0.0278835
-0.027104
-0.025671
-0.0235382
-0.020682
-0.0170977
-0.0128078
-0.00786161
-0.00234304
0.00363106
0.00990908
0.016307
0.0226142
0.0286045
0.0340519
0.0387518
0.0425454
0.0453423
0.0471368
0.0480114
0.0481238
0.0476794
0.0468953
0.0459664
0.0450469
0.0442233
0.0435556
0.000188533
0.000219095
0.000225758
0.000205404
0.000163296
0.000101133
2.05754e-05
-7.66993e-05
-0.000189256
-0.000315816
-0.000455283
-0.000606763
-0.00076958
-0.000943279
-0.00112764
-0.00132271
-0.00152876
-0.00174639
-0.00197648
-0.00222028
-0.00247946
-0.00275621
-0.00305328
-0.0033742
-0.00372338
-0.00410627
-0.00452962
-0.00500156
-0.00553184
-0.00613177
-0.00681422
-0.00759326
-0.00848361
-0.0094997
-0.0106544
-0.0119572
-0.0134124
-0.0150171
-0.0167586
-0.0186134
-0.0205451
-0.0225049
-0.0244313
-0.0262521
-0.0278867
-0.0292485
-0.0302492
-0.0308017
-0.030824
-0.0302426
-0.0289951
-0.027031
-0.0243266
-0.0208732
-0.0166859
-0.0118069
-0.00631217
-0.000309217
0.00605921
0.0126159
0.0191536
0.0254431
0.0312485
0.0363472
0.0405547
0.0437507
0.0458992
0.0470583
0.0473712
0.0470414
0.0462955
0.0453459
0.0443664
0.04346
0.0427005
0.000253347
0.000278748
0.000280741
0.000256476
0.000211051
0.000146253
6.37889e-05
-3.461e-05
-0.000147491
-0.000273566
-0.000411737
-0.000561114
-0.00072102
-0.000891006
-0.00107086
-0.00126061
-0.00146056
-0.00167133
-0.00189386
-0.00212949
-0.00238007
-0.00264801
-0.00293643
-0.00324938
-0.00359195
-0.00397055
-0.00439311
-0.00486928
-0.00541063
-0.00603064
-0.00674459
-0.00756917
-0.00852178
-0.00961934
-0.0108768
-0.0123054
-0.0139098
-0.0156867
-0.017622
-0.0196892
-0.0218485
-0.0240467
-0.0262179
-0.0282855
-0.030165
-0.0317669
-0.0330004
-0.0337768
-0.0340135
-0.0336361
-0.0325799
-0.0307928
-0.028251
-0.0249421
-0.0208683
-0.0160709
-0.0106148
-0.00459735
0.00184919
0.00855647
0.0153224
0.0219176
0.0280979
0.0336233
0.0382832
0.0419243
0.0444764
0.0459672
0.0465205
0.0463344
0.0456443
0.0446813
0.0436425
0.0426504
0.0417942
0.000325642
0.000344986
0.00034157
0.00031286
0.000263717
0.000195934
0.000111343
1.16315e-05
-0.00010173
-0.000227454
-0.000364449
-0.000511833
-0.000668936
-0.000835313
-0.00101076
-0.00119531
-0.00138932
-0.00159341
-0.00180863
-0.00203645
-0.00227891
-0.00253873
-0.00281949
-0.00312581
-0.00346364
-0.00384045
-0.00426555
-0.00475028
-0.00530825
-0.00595528
-0.00670924
-0.00758957
-0.00861632
-0.00980889
-0.0111842
-0.0127543
-0.0145245
-0.0164901
-0.0186348
-0.0209289
-0.0233284
-0.0257757
-0.0282002
-0.0305211
-0.0326505
-0.0344961
-0.0359653
-0.0369686
-0.0374228
-0.0372519
-0.0363874
-0.0347902
-0.0324222
-0.029266
-0.0253202
-0.0206208
-0.0152204
-0.00920572
-0.00269766
0.00414626
0.0111317
0.0180316
0.024596
0.0305693
0.0357147
0.0398443
0.042849
0.0447209
0.0455581
0.0455492
0.0449361
0.0439699
0.0428739
0.0417934
0.0408364
0.00040522
0.000417628
0.00040808
0.000374401
0.000321133
0.000250052
0.000163112
6.19066e-05
-5.20835e-05
-0.000177584
-0.000313521
-0.000459022
-0.00061343
-0.00077631
-0.000947466
-0.00112697
-0.00131517
-0.0015128
-0.00172099
-0.00194138
-0.00217626
-0.00242872
-0.00270286
-0.00300403
-0.0033391
-0.00371678
-0.00414792
-0.00464576
-0.0052261
-0.00590728
-0.00670991
-0.00765618
-0.00876884
-0.0100695
-0.0115767
-0.0133034
-0.0152542
-0.0174229
-0.0197904
-0.0223231
-0.0249727
-0.0276766
-0.03036
-0.032938
-0.0353194
-0.0374098
-0.0391156
-0.0403465
-0.0410188
-0.0410541
-0.0403921
-0.0389909
-0.0368014
-0.0338057
-0.030004
-0.0254173
-0.0200903
-0.0140982
-0.00754895
-0.000587579
0.00660182
0.0137974
0.0207466
0.0271807
0.032838
0.0374947
0.0409994
0.0433026
0.0444704
0.0446759
0.0441649
0.0432086
0.0420596
0.0408886
0.0398267
0.000491847
0.000496455
0.000480063
0.000440897
0.000383094
0.000308465
0.000218938
0.000116069
1.3115e-06
-0.000124088
-0.000259078
-0.000402806
-0.000554629
-0.000714125
-0.000881117
-0.0010557
-0.00123829
-0.00142967
-0.00163112
-0.00184449
-0.00207236
-0.00231826
-0.0025869
-0.00288444
-0.00321883
-0.00360016
-0.00404097
-0.00455657
-0.00516514
-0.00588765
-0.00674753
-0.00776978
-0.00897967
-0.0104009
-0.0120532
-0.0139498
-0.0160943
-0.0184783
-0.0210793
-0.0238596
-0.026766
-0.0297313
-0.0326761
-0.035512
-0.0381451
-0.0404794
-0.0424203
-0.0438775
-0.0447666
-0.0450133
-0.0445622
-0.0433541
-0.0413476
-0.0385219
-0.0348739
-0.0304146
-0.0251793
-0.0192309
-0.0126638
-0.00560888
0.00176246
0.00923671
0.0165623
0.0234607
0.0296476
0.0348635
0.038912
0.0416964
0.0432436
0.0437045
0.0433245
0.0423942
0.0411982
0.0399356
0.0387649
0.000585249
0.000581204
0.000557267
0.000512109
0.000449396
0.000370963
0.000278635
0.000173943
5.82877e-05
-6.71257e-05
-0.000201277
-0.000343337
-0.000492683
-0.00064891
-0.000811861
-0.000981668
-0.0011588
-0.00134417
-0.00153918
-0.00174593
-0.00196737
-0.00220754
-0.00247181
-0.00276729
-0.00310313
-0.00349093
-0.0039451
-0.00448315
-0.00512577
-0.00589671
-0.00682222
-0.00793005
-0.00924788
-0.0108011
-0.0126104
-0.0146886
-0.0170378
-0.0196469
-0.0224896
-0.0255235
-0.0286906
-0.031919
-0.0351251
-0.0382173
-0.0410993
-0.043674
-0.0458466
-0.0475271
-0.0486327
-0.0490914
-0.0488426
-0.0478287
-0.0460111
-0.0433646
-0.03988
-0.035562
-0.0304363
-0.0245536
-0.0179941
-0.0108732
-0.00334771
0.00438049
0.0120647
0.0194208
0.0261452
0.0319442
0.0365747
0.0398881
0.0418644
0.0426249
0.0424087
0.0415239
0.0402887
0.0389342
0.0376512
0.000685114
0.000671568
0.0006394
0.000587763
0.00051979
0.000437288
0.000341972
0.000235312
0.000118639
-6.89486e-06
-0.000140309
-0.000280804
-0.000427776
-0.00058084
-0.000739868
-0.000905032
-0.00107688
-0.00125643
-0.00144529
-0.00164583
-0.00186142
-0.00209666
-0.00235771
-0.0026527
-0.00299211
-0.0033892
-0.00386038
-0.0044255
-0.00510788
-0.00593409
-0.00693321
-0.00813564
-0.00957121
-0.0112668
-0.0132434
-0.015513
-0.0180757
-0.0209172
-0.0240068
-0.0272976
-0.0307265
-0.034217
-0.0376817
-0.0410261
-0.0441521
-0.0469618
-0.0493604
-0.051259
-0.0525762
-0.0532406
-0.0531909
-0.0523726
-0.0507462
-0.0482836
-0.0449705
-0.0408059
-0.0358065
-0.0300111
-0.0234855
-0.0163292
-0.00868206
-0.000731576
0.00728446
0.0150812
0.0223401
0.0287362
0.0339796
0.0378659
0.0403209
0.0414274
0.0414113
0.0405947
0.0393306
0.0378847
0.0364867
0.000791097
0.000767188
0.000726121
0.000667536
0.000593964
0.00050715
0.000408675
0.000299916
0.000182117
5.63645e-05
-7.64073e-05
-0.00021543
-0.000360123
-0.000510123
-0.00066533
-0.000825966
-0.000992666
-0.00116658
-0.00134955
-0.00154426
-0.00175453
-0.00198561
-0.00224454
-0.00254057
-0.00288563
-0.00329475
-0.00378648
-0.00438313
-0.00511072
-0.00599865
-0.00707881
-0.00838405
-0.00994612
-0.0117929
-0.0139453
-0.0164142
-0.0191969
-0.0222754
-0.0256148
-0.0291629
-0.032852
-0.0366012
-0.0403196
-0.0439099
-0.0472729
-0.0503101
-0.0529273
-0.0550367
-0.0565582
-0.057422
-0.0575674
-0.0569421
-0.0555058
-0.0532286
-0.0500926
-0.0460911
-0.0412328
-0.0355452
-0.0290801
-0.0219202
-0.0141874
-0.00605214
0.00226081
0.0104708
0.0182498
0.025246
0.0311243
0.0356215
0.0386027
0.0401033
0.0403267
0.0396044
0.0383238
0.0367885
0.0352725
0.00090279
0.000867665
0.000817038
0.000751049
0.000671558
0.000580209
0.00047842
0.000367446
0.000248423
0.000122363
-9.85136e-06
-0.000147485
-0.000289981
-0.000436995
-0.00058846
-0.000744657
-0.000906313
-0.00107474
-0.00125203
-0.00144122
-0.00164665
-0.00187429
-0.00213212
-0.00243063
-0.0027833
-0.00320706
-0.0037227
-0.00435506
-0.00513293
-0.00608853
-0.00725642
-0.00867174
-0.0103678
-0.0123732
-0.0147082
-0.0173819
-0.0203887
-0.0237066
-0.0272958
-0.0310994
-0.0350448
-0.039047
-0.0430118
-0.04684
-0.0504311
-0.0536866
-0.0565131
-0.058824
-0.0605413
-0.0615965
-0.0619305
-0.0614927
-0.060243
-0.0581505
-0.0551942
-0.051363
-0.0466583
-0.0410971
-0.0347177
-0.0275863
-0.0198059
-0.0115276
-0.00295962
0.00562685
0.0139005
0.0214879
0.0280122
0.0331509
0.0367022
0.0386447
0.0391498
0.0385509
0.037269
0.0356478
0.0340106
0.00101974
0.000972544
0.00091169
0.000837861
0.000752153
0.000656068
0.000550829
0.000437536
0.000317204
0.000190759
5.90295e-05
-7.72841e-05
-0.000217643
-0.000361727
-0.000509498
-0.0006613
-0.00081797
-0.000980999
-0.00115274
-0.00133665
-0.00153764
-0.00176245
-0.00202009
-0.00232239
-0.00268447
-0.00312527
-0.0036679
-0.00433981
-0.00517255
-0.0062011
-0.00746257
-0.00899413
-0.0108304
-0.0130001
-0.0155225
-0.0184045
-0.0216372
-0.0251943
-0.0290312
-0.0330859
-0.0372815
-0.041529
-0.0457314
-0.0497877
-0.0535965
-0.0570596
-0.0600846
-0.0625864
-0.0644891
-0.0657261
-0.0662401
-0.0659824
-0.0649135
-0.0630023
-0.0602259
-0.0565693
-0.0520276
-0.0466088
-0.0403385
-0.0332665
-0.025477
-0.0171001
-0.00832418
0.0005939
0.00932588
0.0174838
0.0246537
0.0304552
0.0346149
0.037046
0.0378766
0.0374333
0.0361675
0.0344657
0.0327043
0.00114143
0.00108131
0.00100956
0.00092747
0.000835267
0.000734264
0.000625455
0.000509756
0.000388044
0.000261152
0.000129849
-5.19175e-06
-0.000143451
-0.000284623
-0.000428705
-0.000576105
-0.000727778
-0.000885414
-0.00105166
-0.00123044
-0.00142726
-0.00164971
-0.00190793
-0.00221514
-0.00258822
-0.00304818
-0.00362055
-0.00433538
-0.00522699
-0.00633302
-0.00769295
-0.00934571
-0.0113268
-0.0136648
-0.0163776
-0.0194693
-0.0229275
-0.0267214
-0.0308015
-0.0351011
-0.0395389
-0.0440224
-0.0484519
-0.052725
-0.0567398
-0.0603986
-0.06361
-0.0662909
-0.0683674
-0.0697749
-0.0704586
-0.0703718
-0.0694761
-0.0677407
-0.0651415
-0.061661
-0.057289
-0.0520254
-0.0458844
-0.0389007
-0.0311396
-0.0227093
-0.0137759
-0.00457755
0.0045672
0.0132632
0.0210663
0.0275411
0.0323402
0.0353035
0.0365041
0.0362512
0.0350217
0.0332457
0.0313582
0.00126731
0.00119336
0.00111005
0.00101931
0.000920348
0.000814268
0.000701787
0.000583611
0.000460463
0.000333076
0.000202164
6.83732e-05
-6.77874e-05
-0.000206025
-0.000346366
-0.000489287
-0.000635873
-0.000788027
-0.000948731
-0.00112238
-0.00131516
-0.00153557
-0.00179493
-0.00210796
-0.00249335
-0.00297427
-0.00357869
-0.00433929
-0.00529309
-0.00648028
-0.00794248
-0.00972013
-0.0118493
-0.0143579
-0.017262
-0.0205626
-0.0242439
-0.0282701
-0.0325871
-0.0371236
-0.041794
-0.0465026
-0.0511476
-0.0556252
-0.0598333
-0.0636749
-0.0670599
-0.069907
-0.0721446
-0.0737106
-0.0745525
-0.0746257
-0.0738939
-0.0723268
-0.0699
-0.0665942
-0.0623952
-0.0572963
-0.0513015
-0.0444316
-0.0367338
-0.0282945
-0.0192557
-0.00983265
-0.000328394
0.00886276
0.0172743
0.0244215
0.0298822
0.0334166
0.0350315
0.0350057
0.0338349
0.031993
0.0299783
0.00139672
0.00130805
0.00121251
0.00111272
0.00100677
0.000895468
0.000779234
0.000658529
0.000533906
0.000405998
0.000275466
0.000142935
8.91468e-06
-0.000126308
-0.000262789
-0.000401072
-0.00054238
-0.000688848
-0.000843814
-0.00101219
-0.00120089
-0.00141939
-0.00168022
-0.0019997
-0.00239839
-0.00290168
-0.00353998
-0.0043486
-0.00536716
-0.00663826
-0.00820543
-0.0101103
-0.0123892
-0.015069
-0.0181635
-0.0216705
-0.0255703
-0.0298227
-0.0343686
-0.0391322
-0.0440244
-0.0489463
-0.0537941
-0.0584631
-0.0628512
-0.066862
-0.0704071
-0.073407
-0.0757925
-0.0775041
-0.0784917
-0.0787134
-0.0781346
-0.0767267
-0.0744654
-0.0713304
-0.0673048
-0.0623765
-0.0565408
-0.0498063
-0.0422033
-0.0337968
-0.0247038
-0.015114
-0.00530915
0.00432516
0.0133091
0.0211158
0.0272499
0.0313881
0.0334596
0.0336991
0.0326118
0.0307138
0.0285716
0.00152895
0.00142461
0.00131619
0.00120697
0.00109381
0.000977174
0.000857125
0.000733857
0.000607744
0.000479312
0.000349179
0.000217961
8.61756e-05
-4.58865e-05
-0.000178302
-0.000311687
-0.000447409
-0.00058785
-0.000736731
-0.000899518
-0.0010839
-0.00130035
-0.00156275
-0.00188899
-0.00230162
-0.00282824
-0.00350172
-0.00435994
-0.00544504
-0.00680182
-0.00847551
-0.0105086
-0.0129373
-0.0157873
-0.0190696
-0.0227786
-0.0268908
-0.0313614
-0.0361268
-0.0411069
-0.0462088
-0.0513312
-0.0563686
-0.0612154
-0.0657697
-0.069936
-0.0736274
-0.0767665
-0.0792865
-0.0811304
-0.0822509
-0.0826086
-0.0821714
-0.0809122
-0.0788077
-0.0758374
-0.0719827
-0.0672273
-0.0615597
-0.0549777
-0.0474964
-0.0391605
-0.0300623
-0.0203636
-0.0103204
-0.000301958
0.00920786
0.0176497
0.0244579
0.0292248
0.0317919
0.0323354
0.0313583
0.0294159
0.0271472
0.0016632
0.00154222
0.00142024
0.00130123
0.00118066
0.0010586
0.000934698
0.000808855
0.000681259
0.000552333
0.000422658
0.000292856
0.000163466
3.47926e-05
-9.32555e-05
-0.000221365
-0.000351056
-0.000484971
-0.000627241
-0.000783919
-0.000963508
-0.00117755
-0.00144128
-0.00177429
-0.00220108
-0.0027515
-0.00346088
-0.0043696
-0.00552216
-0.0069654
-0.00874598
-0.010907
-0.0134842
-0.0165019
-0.0199677
-0.0238725
-0.0281896
-0.0328693
-0.0378435
-0.0430282
-0.0483272
-0.0536369
-0.0588501
-0.0638609
-0.0685675
-0.0728755
-0.0766995
-0.0799642
-0.0826052
-0.0845683
-0.0858087
-0.0862899
-0.0859821
-0.0848603
-0.0829027
-0.0800891
-0.0764001
-0.0718167
-0.066322
-0.0599049
-0.0525672
-0.0443349
-0.0352762
-0.0255244
-0.015306
-0.00496747
0.00501322
0.0140546
0.0215263
0.0269375
0.030035
0.0309205
0.0300821
0.0281086
0.0257153
0.00179857
0.00165994
0.00152373
0.00139459
0.00126643
0.00113886
0.00101109
0.000882691
0.000753649
0.000624296
0.000495187
0.000366965
0.000240207
0.000115247
-8.01706e-06
-0.000130339
-0.000253396
-0.000380109
-0.00051504
-0.000664865
-0.000838937
-0.00104992
-0.00131445
-0.00165383
-0.00209457
-0.00266878
-0.00341417
-0.00437355
-0.00559363
-0.00712311
-0.0090098
-0.0112971
-0.0140202
-0.0172015
-0.0208452
-0.0249381
-0.0294512
-0.0343297
-0.0395013
-0.0448781
-0.0503611
-0.0558443
-0.0612197
-0.0663806
-0.0712258
-0.0756619
-0.0796052
-0.0829824
-0.0857314
-0.0878007
-0.0891483
-0.0897404
-0.0895497
-0.0885535
-0.0867317
-0.0840653
-0.0805348
-0.0761195
-0.0707987
-0.0645541
-0.0573763
-0.0492749
-0.0402952
-0.0305422
-0.0202107
-0.00961828
0.000771709
0.0103677
0.0184804
0.0245415
0.0281983
0.0294626
0.0287925
0.0268027
0.0242882
0.00193406
0.00177673
0.00162561
0.00148599
0.00135008
0.00121697
0.00108535
0.00095443
0.000824017
0.000694347
0.000565969
0.000439567
0.000315772
0.000194958
7.70289e-05
-3.88387e-05
-0.000154485
-0.000273123
-0.000399768
-0.00054175
-0.000709311
-0.00091627
-0.00118072
-0.00152569
-0.00197973
-0.00257717
-0.00335807
-0.00436753
-0.00565435
-0.00726883
-0.00925975
-0.0116706
-0.0145355
-0.0178753
-0.02169
-0.0259619
-0.0306611
-0.0357274
-0.0410841
-0.0466401
-0.0522936
-0.0579368
-0.0634605
-0.068758
-0.0737285
-0.0782796
-0.0823293
-0.0858064
-0.088651
-0.0908143
-0.0922568
-0.0929474
-0.0928616
-0.091979
-0.0902816
-0.0877517
-0.0843705
-0.0801168
-0.0749673
-0.0688983
-0.0618915
-0.0539419
-0.0450745
-0.0353668
-0.0249807
-0.0142008
-0.00346736
0.00663043
0.0153508
0.0220569
0.0262948
0.0279722
0.0275007
0.0255112
0.0228799
0.00206854
0.00189144
0.00172469
0.00157427
0.0014305
0.00129182
0.00115638
0.00102303
0.000891365
0.000761546
0.000634135
0.000509878
0.000389482
0.000273379
0.000161483
5.29082e-05
-5.43564e-05
-0.000163829
-0.000281002
-0.000413889
-0.000573655
-0.000775315
-0.00103844
-0.00138783
-0.00185405
-0.00247362
-0.00328888
-0.00434713
-0.00569906
-0.00739638
-0.00948857
-0.0120189
-0.0150205
-0.0185128
-0.0224904
-0.0269309
-0.0318054
-0.0370478
-0.0425771
-0.0482991
-0.0541095
-0.0598991
-0.0655578
-0.0709788
-0.0760618
-0.0807156
-0.0848596
-0.0884247
-0.0913534
-0.093599
-0.0951248
-0.0959024
-0.0959096
-0.0951286
-0.0935437
-0.0911388
-0.0878965
-0.0837956
-0.0788116
-0.0729173
-0.066087
-0.0583041
-0.0495754
-0.0399528
-0.0295657
-0.0186626
-0.00765333
0.00288801
0.0121728
0.0195081
0.0243414
0.0264625
0.0262199
0.0242485
0.0215062
0.00220077
0.00200276
0.00181968
0.00165815
0.0015064
0.00136217
0.00122299
0.00108734
0.00095459
0.000824854
0.000698729
0.000577047
0.00046061
0.000349927
0.000244933
0.000144679
4.69789e-05
-5.20057e-05
-0.000158266
-0.000280528
-0.000430914
-0.000625667
-0.000885865
-0.00123809
-0.00171489
-0.00235498
-0.00320285
-0.00430788
-0.00572249
-0.00749958
-0.00968912
-0.012334
-0.0154661
-0.019104
-0.0232357
-0.0278327
-0.0328715
-0.0382781
-0.0439671
-0.0498418
-0.0557958
-0.0617186
-0.0674994
-0.0730313
-0.0782148
-0.0829596
-0.0871867
-0.0908289
-0.0938308
-0.0961482
-0.0977466
-0.0986001
-0.098689
-0.097998
-0.0965136
-0.0942219
-0.0911067
-0.0871483
-0.0823214
-0.0765968
-0.0699438
-0.0623364
-0.0537657
-0.0442609
-0.0339197
-0.0229533
-0.0117355
-0.0008117
0.00898578
0.0169237
0.0223583
0.0249494
0.0249655
0.0230314
0.020185
0.00232937
0.00210927
0.00190911
0.00173618
0.00157637
0.00142665
0.00128386
0.00114608
0.00101248
0.000883138
0.000758717
0.000640156
0.000528382
0.000423992
0.000326953
0.000236256
0.000149533
6.26077e-05
-3.1032e-05
-0.000140853
-0.000279964
-0.000465868
-0.000721167
-0.00107422
-0.00155957
-0.00221803
-0.00309619
-0.00424532
-0.00571942
-0.00757239
-0.00985445
-0.0126078
-0.0158633
-0.0196399
-0.0239165
-0.0286552
-0.0338474
-0.0394067
-0.0452424
-0.0512566
-0.0573412
-0.0633843
-0.0692748
-0.0749059
-0.0801785
-0.0850036
-0.0893036
-0.0930131
-0.0960785
-0.0984578
-0.100119
-0.101038
-0.101198
-0.100586
-0.0991904
-0.0969997
-0.0939996
-0.0901716
-0.0854913
-0.0799285
-0.073449
-0.0660199
-0.0576198
-0.0482576
-0.0380017
-0.0270261
-0.0156637
-0.00441841
0.00583146
0.0143354
0.0203695
0.023452
0.0237551
0.0218783
0.018936
0.00245282
0.00220937
0.00199138
0.00180677
0.00163886
0.00148374
0.00133751
0.00119783
0.0010637
0.00093516
0.000812973
0.000698221
0.000591971
0.000494931
0.000407106
0.000327428
0.000253337
0.000180304
0.00010127
6.00073e-06
-0.000119629
-0.000294408
-0.00054248
-0.000893978
-0.0013854
-0.00205959
-0.00296514
-0.0041551
-0.00568483
-0.00760903
-0.009978
-0.0128331
-0.0162039
-0.0201124
-0.0245233
-0.0293885
-0.0347229
-0.0404235
-0.046393
-0.0525338
-0.0587361
-0.0648874
-0.0708759
-0.0765951
-0.0819465
-0.0868421
-0.0912058
-0.0949735
-0.0980938
-0.100526
-0.102241
-0.103217
-0.103438
-0.102894
-0.101576
-0.0994743
-0.0965766
-0.0928663