/*--------------------------------*- C++ -*----------------------------------*\
  =========                 |
  \\      /  F ield         | OpenFOAM: The Open Source CFD Toolbox
   \\    /   O peration     | Website:  https://openfoam.org
    \\  /    A nd           | Version:  12
     \\/     M anipulation  |
\*---------------------------------------------------------------------------*/
FoamFile
{
    format      ascii;
    class       volVectorField;
    location    "2.5";
    object      U;
}
// * * * * * * * * * * * * * * * * * * * * * * * * * * * * * * * * * * * * * //

dimensions      [0 1 -1 0 0 0 0];

internalField   nonuniform List<vector> 
5625
(
(-6.33172e-06 2.48345e-06 0)
(8.86157e-06 -2.69717e-06 0)
(6.38989e-05 -6.19817e-06 0)
(0.000145086 -8.08627e-06 0)
(0.000240281 -8.91171e-06 0)
(0.000340567 -9.02168e-06 0)
(0.000439572 -8.67867e-06 0)
(0.000532994 -8.05891e-06 0)
(0.000618056 -7.28431e-06 0)
(0.000693085 -6.43801e-06 0)
(0.000757185 -5.57543e-06 0)
(0.000809975 -4.7303e-06 0)
(0.000851379 -3.92088e-06 0)
(0.000881467 -3.15413e-06 0)
(0.0009003 -2.4212e-06 0)
(0.000907868 -1.72002e-06 0)
(0.000903967 -1.02743e-06 0)
(0.000888088 -3.20182e-07 0)
(0.000859426 4.26862e-07 0)
(0.000816779 1.24552e-06 0)
(0.000758503 2.16999e-06 0)
(0.000682449 3.24108e-06 0)
(0.000585936 4.50318e-06 0)
(0.000465689 6.00423e-06 0)
(0.000317809 7.79762e-06 0)
(0.000137726 9.93495e-06 0)
(-7.98231e-05 1.24758e-05 0)
(-0.00034081 1.54832e-05 0)
(-0.000651936 1.903e-05 0)
(-0.00102059 2.31835e-05 0)
(-0.00145477 2.80107e-05 0)
(-0.00196308 3.3579e-05 0)
(-0.0025545 3.99494e-05 0)
(-0.00323828 4.71729e-05 0)
(-0.00402361 5.52842e-05 0)
(-0.00491934 6.42958e-05 0)
(-0.00593353 7.41894e-05 0)
(-0.00707298 8.49074e-05 0)
(-0.00834263 9.63441e-05 0)
(-0.00974496 0.000108336 0)
(-0.0112793 0.000120653 0)
(-0.0129409 0.000132994 0)
(-0.0147207 0.000144975 0)
(-0.0166041 0.000156133 0)
(-0.0185708 0.000165926 0)
(-0.020594 0.000173736 0)
(-0.0226402 0.000178879 0)
(-0.0246691 0.000180626 0)
(-0.0266338 0.000178223 0)
(-0.0284812 0.000170938 0)
(-0.0301528 0.000158161 0)
(-0.0315818 0.000138331 0)
(-0.0327089 0.000112712 0)
(-0.0334611 8.07533e-05 0)
(-0.033793 4.06858e-05 0)
(-0.0336425 -3.73805e-06 0)
(-0.0329624 -5.27506e-05 0)
(-0.0317365 -0.000104894 0)
(-0.0299629 -0.000157097 0)
(-0.0276691 -0.000206321 0)
(-0.0249135 -0.000249099 0)
(-0.0217867 -0.000281933 0)
(-0.0184092 -0.000301732 0)
(-0.014925 -0.000306303 0)
(-0.0114915 -0.000294798 0)
(-0.00826636 -0.000267993 0)
(-0.00539273 -0.000228293 0)
(-0.00298542 -0.000179422 0)
(-0.00112046 -0.000125829 0)
(0.000170522 -7.21363e-05 0)
(0.000899916 -2.22223e-05 0)
(0.00112239 2.01601e-05 0)
(0.00093413 5.18606e-05 0)
(0.000504759 6.32849e-05 0)
(9.11128e-05 4.20694e-05 0)
(-4.38272e-06 -1.46865e-06 0)
(5.697e-05 -3.80122e-05 0)
(0.000209081 -6.99615e-05 0)
(0.000424301 -8.9697e-05 0)
(0.00067489 -9.92305e-05 0)
(0.000938971 -0.000101126 0)
(0.00119997 -9.7647e-05 0)
(0.00144615 -9.0558e-05 0)
(0.00166957 -8.11752e-05 0)
(0.00186516 -7.04483e-05 0)
(0.0020299 -5.90343e-05 0)
(0.00216216 -4.73504e-05 0)
(0.00226118 -3.56268e-05 0)
(0.00232655 -2.39406e-05 0)
(0.00235788 -1.22307e-05 0)
(0.00235455 -3.88282e-07 0)
(0.00231536 1.18598e-05 0)
(0.00223825 2.48225e-05 0)
(0.00212035 3.88489e-05 0)
(0.00195759 5.43773e-05 0)
(0.00174463 7.18894e-05 0)
(0.00147472 9.19223e-05 0)
(0.00113955 0.00011507 0)
(0.000729134 0.00014194 0)
(0.000231734 0.000173173 0)
(-0.00036623 0.000209484 0)
(-0.00108034 0.000251616 0)
(-0.00192807 0.00030029 0)
(-0.00292865 0.000356195 0)
(-0.00410307 0.000420004 0)
(-0.00547386 0.000492319 0)
(-0.00706474 0.00057362 0)
(-0.00890007 0.000664212 0)
(-0.0110043 0.000764166 0)
(-0.0134009 0.000873241 0)
(-0.0161116 0.00099081 0)
(-0.019155 0.00111577 0)
(-0.0225451 0.00124648 0)
(-0.0262894 0.00138067 0)
(-0.0303878 0.00151538 0)
(-0.03483 0.00164695 0)
(-0.0395943 0.00177099 0)
(-0.0446457 0.00188242 0)
(-0.0499342 0.00197551 0)
(-0.0553942 0.00204402 0)
(-0.0609433 0.00208132 0)
(-0.0664822 0.0020806 0)
(-0.0718955 0.00203511 0)
(-0.0770526 0.00193846 0)
(-0.0818097 0.00178495 0)
(-0.0860127 0.00156976 0)
(-0.089495 0.00128824 0)
(-0.0921177 0.000938497 0)
(-0.0936656 0.000531984 0)
(-0.094082 7.76737e-05 0)
(-0.0932084 -0.000437837 0)
(-0.0909546 -0.000980569 0)
(-0.0872938 -0.00153349 0)
(-0.0822452 -0.00207162 0)
(-0.0758965 -0.00256574 0)
(-0.0684083 -0.00298441 0)
(-0.060015 -0.00329689 0)
(-0.0510191 -0.00347661 0)
(-0.0417763 -0.00350508 0)
(-0.0326735 -0.00337537 0)
(-0.0240982 -0.00309445 0)
(-0.0164057 -0.00268352 0)
(-0.00988676 -0.002176 0)
(-0.00474104 -0.00161342 0)
(-0.00106081 -0.00104056 0)
(0.00117301 -0.000501497 0)
(0.0020913 -3.83362e-05 0)
(0.00193652 0.00029972 0)
(0.00111756 0.000437411 0)
(0.000201137 0.000275068 0)
(2.76728e-06 -2.07114e-05 0)
(0.000117745 -0.00010945 0)
(0.000356579 -0.000186349 0)
(0.000683154 -0.000235584 0)
(0.0010597 -0.00026003 0)
(0.00145537 -0.000265056 0)
(0.00184579 -0.000255905 0)
(0.00221308 -0.00023691 0)
(0.00254474 -0.000211425 0)
(0.00283242 -0.000181924 0)
(0.00307085 -0.000150143 0)
(0.00325686 -0.000117199 0)
(0.00338852 -8.37093e-05 0)
(0.00346451 -4.98753e-05 0)
(0.00348347 -1.55418e-05 0)
(0.00344369 1.96237e-05 0)
(0.00334234 5.6409e-05 0)
(0.00317553 9.56147e-05 0)
(0.00293779 0.00013827 0)
(0.00262179 0.000185596 0)
(0.00221817 0.000238951 0)
(0.00171526 0.000299858 0)
(0.00109897 0.000369819 0)
(0.000352521 0.000450638 0)
(-0.000543819 0.000544171 0)
(-0.00161266 0.00065232 0)
(-0.00287937 0.000776972 0)
(-0.00437226 0.000920008 0)
(-0.00612243 0.00108325 0)
(-0.00816338 0.00126834 0)
(-0.0105306 0.00147668 0)
(-0.0132609 0.00170921 0)
(-0.0163915 0.00196635 0)
(-0.0199586 0.00224773 0)
(-0.0239964 0.00255207 0)
(-0.0285345 0.00287691 0)
(-0.0335966 0.00321844 0)
(-0.0391976 0.0035713 0)
(-0.045341 0.0039284 0)
(-0.0520164 0.00428087 0)
(-0.0591968 0.004618 0)
(-0.0668359 0.00492731 0)
(-0.0748662 0.00519471 0)
(-0.0831973 0.00540476 0)
(-0.0917147 0.00554106 0)
(-0.10028 0.0055867 0)
(-0.10873 0.00552487 0)
(-0.116883 0.00533952 0)
(-0.124535 0.00501617 0)
(-0.131468 0.00454276 0)
(-0.137456 0.00391043 0)
(-0.142262 0.00311332 0)
(-0.145694 0.00214085 0)
(-0.147443 0.00105563 0)
(-0.147476 -0.000183791 0)
(-0.14554 -0.00152563 0)
(-0.141575 -0.00293126 0)
(-0.135552 -0.00434586 0)
(-0.127525 -0.00570773 0)
(-0.117642 -0.00694603 0)
(-0.106145 -0.00798578 0)
(-0.0933763 -0.00875433 0)
(-0.0797688 -0.00918927 0)
(-0.0658255 -0.00924714 0)
(-0.0520917 -0.0089114 0)
(-0.0391164 -0.00819795 0)
(-0.0274079 -0.00715649 0)
(-0.0173898 -0.00586664 0)
(-0.00936271 -0.00442945 0)
(-0.00347803 -0.00295654 0)
(0.000274752 -0.00156179 0)
(0.0020723 -0.000356636 0)
(0.0022575 0.000532845 0)
(0.00140004 0.000937669 0)
(0.000257093 0.000632898 0)
(1.05497e-05 -5.70487e-05 0)
(0.00017864 -0.000216578 0)
(0.000494362 -0.000350771 0)
(0.000913575 -0.000437894 0)
(0.0013913 -0.000481522 0)
(0.00189055 -0.000490116 0)
(0.00238117 -0.000472498 0)
(0.00284043 -0.000436254 0)
(0.00325198 -0.000387406 0)
(0.00360452 -0.000330475 0)
(0.00389054 -0.000268662 0)
(0.00410512 -0.000204041 0)
(0.00424492 -0.000137756 0)
(0.0043073 -7.01682e-05 0)
(0.00428954 -9.92057e-07 0)
(0.00418835 7.05538e-05 0)
(0.00399899 0.000145864 0)
(0.00371521 0.000226562 0)
(0.00332859 0.000314684 0)
(0.00282822 0.000412627 0)
(0.00220043 0.000522948 0)
(0.00142851 0.00064853 0)
(0.000492153 0.000792645 0)
(-0.000632396 0.000958605 0)
(-0.00197253 0.00114987 0)
(-0.00355948 0.00137001 0)
(-0.00542828 0.00162263 0)
(-0.00761761 0.00191122 0)
(-0.0101695 0.00223907 0)
(-0.0131287 0.00260901 0)
(-0.0165422 0.00302326 0)
(-0.0204577 0.00348312 0)
(-0.0249226 0.00398865 0)
(-0.0299817 0.00453834 0)
(-0.0356756 0.00512869 0)
(-0.0420376 0.00575387 0)
(-0.0490908 0.00640534 0)
(-0.0568448 0.00707153 0)
(-0.0652927 0.00773761 0)
(-0.0744071 0.00838542 0)
(-0.0841372 0.00899353 0)
(-0.0944061 0.00953749 0)
(-0.105109 0.00999027 0)
(-0.11611 0.0103229 0)
(-0.127246 0.0105054 0)
(-0.138323 0.0105075 0)
(-0.149122 0.0103002 0)
(-0.159401 0.00985681 0)
(-0.168899 0.00915422 0)
(-0.177343 0.00817474 0)
(-0.184456 0.00690745 0)
(-0.189959 0.00534918 0)
(-0.193614 0.00349925 0)
(-0.195148 0.00141459 0)
(-0.194411 -0.000886864 0)
(-0.191219 -0.00336475 0)
(-0.18551 -0.00593166 0)
(-0.177276 -0.00849304 0)
(-0.166609 -0.0109401 0)
(-0.153705 -0.0131505 0)
(-0.138868 -0.0149958 0)
(-0.122515 -0.0163522 0)
(-0.105162 -0.0171132 0)
(-0.0874096 -0.0172043 0)
(-0.0699075 -0.0165958 0)
(-0.0533148 -0.0153129 0)
(-0.0382497 -0.0134389 0)
(-0.0252376 -0.0111099 0)
(-0.0146641 -0.00850226 0)
(-0.00673862 -0.00581485 0)
(-0.00147266 -0.00325445 0)
(0.00132979 -0.00102922 0)
(0.00207358 0.000633768 0)
(0.00142931 0.00145184 0)
(0.000274381 0.00104897 0)
(1.74895e-05 -0.000109783 0)
(0.000233661 -0.000355189 0)
(0.000615614 -0.000554525 0)
(0.00111064 -0.000684077 0)
(0.00166775 -0.000748661 0)
(0.0022456 -0.000760014 0)
(0.00280988 -0.000730802 0)
(0.00333414 -0.000672227 0)
(0.00379891 -0.000593353 0)
(0.00419031 -0.000501074 0)
(0.00449873 -0.000400312 0)
(0.00471745 -0.000294262 0)
(0.00484151 -0.000184675 0)
(0.00486667 -7.20775e-05 0)
(0.00478855 4.40286e-05 0)
(0.00460186 0.000165012 0)
(0.00429969 0.000293066 0)
(0.00387303 0.000430918 0)
(0.00331021 0.00058185 0)
(0.00259652 0.000749689 0)
(0.00171357 0.000938853 0)
(0.000639233 0.00115403 0)
(-0.00065273 0.00140028 0)
(-0.00219294 0.00168297 0)
(-0.00401657 0.0020077 0)
(-0.00616332 0.00238016 0)
(-0.00867739 0.00280596 0)
(-0.0116071 0.0032905 0)
(-0.0150045 0.00383866 0)
(-0.0189244 0.00445451 0)
(-0.0234231 0.00514092 0)
(-0.0285574 0.00589907 0)
(-0.0343819 0.00672796 0)
(-0.0409467 0.00762382 0)
(-0.0482948 0.0085795 0)
(-0.0564579 0.0095839 0)
(-0.0654536 0.0106214 0)
(-0.0752805 0.0116716 0)
(-0.0859145 0.0127087 0)
(-0.0973053 0.0137022 0)
(-0.109373 0.0146166 0)
(-0.122004 0.015412 0)
(-0.135053 0.0160456 0)
(-0.148339 0.0164723 0)
(-0.16165 0.0166465 0)
(-0.174743 0.0165239 0)
(-0.187349 0.0160629 0)
(-0.19918 0.015227 0)
(-0.209934 0.0139866 0)
(-0.219303 0.0123212 0)
(-0.226981 0.0102212 0)
(-0.232675 0.00769028 0)
(-0.236129 0.00474346 0)
(-0.237093 0.00145015 0)
(-0.235386 -0.00214598 0)
(-0.230869 -0.00597137 0)
(-0.223493 -0.00990054 0)
(-0.213278 -0.0137945 0)
(-0.200348 -0.017493 0)
(-0.184931 -0.020818 0)
(-0.167372 -0.0235842 0)
(-0.148129 -0.0256123 0)
(-0.127768 -0.0267479 0)
(-0.106944 -0.0268807 0)
(-0.0863744 -0.0259643 0)
(-0.066791 -0.0240306 0)
(-0.0488927 -0.0211964 0)
(-0.0332864 -0.0176582 0)
(-0.0204326 -0.0136755 0)
(-0.0105992 -0.00954752 0)
(-0.00383146 -0.00559052 0)
(6.46159e-05 -0.00212799 0)
(0.00152466 0.000494582 0)
(0.00127678 0.00186696 0)
(0.000267811 0.00145194 0)
(2.3197e-05 -0.000176569 0)
(0.000280153 -0.000520572 0)
(0.000716883 -0.000790272 0)
(0.00127175 -0.000964207 0)
(0.00188834 -0.00104956 0)
(0.00252205 -0.00106166 0)
(0.00313555 -0.00101718 0)
(0.00369968 -0.000931121 0)
(0.00419252 -0.000815783 0)
(0.00459803 -0.00068062 0)
(0.00490467 -0.000532418 0)
(0.00510391 -0.00037556 0)
(0.00518908 -0.000212446 0)
(0.00515421 -4.37382e-05 0)
(0.00499293 0.000131402 0)
(0.00469773 0.000315038 0)
(0.00425916 0.000510346 0)
(0.00366526 0.000721369 0)
(0.00290072 0.000953089 0)
(0.00194665 0.00121114 0)
(0.000780051 0.00150181 0)
(-0.00062665 0.001832 0)
(-0.00230587 0.00220914 0)
(-0.00429511 0.002641 0)
(-0.00663707 0.00313562 0)
(-0.00937959 0.0037011 0)
(-0.0125755 0.00434534 0)
(-0.0162819 0.00507575 0)
(-0.0205598 0.00589883 0)
(-0.0254724 0.00681969 0)
(-0.031084 0.00784142 0)
(-0.0374575 0.00896439 0)
(-0.0446519 0.0101855 0)
(-0.052719 0.0114973 0)
(-0.0616999 0.0128872 0)
(-0.0716203 0.0143366 0)
(-0.0824865 0.0158204 0)
(-0.0942805 0.0173062 0)
(-0.106956 0.0187547 0)
(-0.120434 0.0201196 0)
(-0.1346 0.0213484 0)
(-0.149303 0.0223835 0)
(-0.164355 0.0231642 0)
(-0.179531 0.0236283 0)
(-0.194575 0.0237143 0)
(-0.209201 0.0233643 0)
(-0.223105 0.0225262 0)
(-0.235965 0.0211566 0)
(-0.247456 0.0192226 0)
(-0.257254 0.0167053 0)
(-0.265049 0.0136013 0)
(-0.27055 0.0099259 0)
(-0.27351 0.00571399 0)
(-0.273699 0.00104791 0)
(-0.27095 -0.0039975 0)
(-0.265155 -0.00931092 0)
(-0.256285 -0.0147306 0)
(-0.244384 -0.0200722 0)
(-0.229593 -0.0251242 0)
(-0.21216 -0.0296531 0)
(-0.192443 -0.0334157 0)
(-0.170916 -0.0361764 0)
(-0.148163 -0.0377296 0)
(-0.12487 -0.0379253 0)
(-0.101788 -0.0366952 0)
(-0.0797012 -0.034073 0)
(-0.0593706 -0.0302056 0)
(-0.0414721 -0.025349 0)
(-0.0265361 -0.0198498 0)
(-0.0148922 -0.014115 0)
(-0.00662931 -0.00858271 0)
(-0.0015728 -0.00370495 0)
(0.000719253 4.04324e-05 0)
(0.00100024 0.00210717 0)
(0.000246868 0.00179703 0)
(2.76401e-05 -0.000254765 0)
(0.000317182 -0.000707743 0)
(0.000796724 -0.00105121 0)
(0.00139592 -0.00126966 0)
(0.00205333 -0.00137405 0)
(0.00272177 -0.00138381 0)
(0.00336178 -0.00131977 0)
(0.00394222 -0.00120082 0)
(0.00443936 -0.0010426 0)
(0.00483539 -0.000857193 0)
(0.00511704 -0.000653278 0)
(0.00527414 -0.000436482 0)
(0.00529827 -0.000209826 0)
(0.00518145 2.60173e-05 0)
(0.00491522 0.000272286 0)
(0.00448966 0.00053191 0)
(0.00389245 0.000809339 0)
(0.00310834 0.00111019 0)
(0.00211842 0.00144119 0)
(0.00089949 0.00181011 0)
(-0.000576371 0.00222561 0)
(-0.00234224 0.00269709 0)
(-0.00443666 0.00323461 0)
(-0.00690387 0.00384869 0)
(-0.00979382 0.00455009 0)
(-0.0131621 0.00534953 0)
(-0.0170693 0.00625732 0)
(-0.0215807 0.0072829 0)
(-0.0267647 0.00843421 0)
(-0.0326915 0.00971697 0)
(-0.0394311 0.0111339 0)
(-0.0470499 0.0126835 0)
(-0.0556083 0.0143593 0)
(-0.0651559 0.0161484 0)
(-0.0757276 0.0180308 0)
(-0.0873384 0.0199779 0)
(-0.0999783 0.0219523 0)
(-0.113608 0.0239071 0)
(-0.128153 0.0257862 0)
(-0.143502 0.027525 0)
(-0.159505 0.029052 0)
(-0.175971 0.0302902 0)
(-0.19267 0.0311602 0)
(-0.209338 0.0315827 0)
(-0.225683 0.0314822 0)
(-0.241388 0.0307894 0)
(-0.256122 0.0294452 0)
(-0.269551 0.0274031 0)
(-0.281341 0.024632 0)
(-0.291174 0.0211189 0)
(-0.29875 0.0168713 0)
(-0.3038 0.0119199 0)
(-0.306096 0.00632079 0)
(-0.30544 0.000172433 0)
(-0.301687 -0.00641812 0)
(-0.294758 -0.0133037 0)
(-0.284639 -0.0202879 0)
(-0.271388 -0.0271435 0)
(-0.255151 -0.0336102 0)
(-0.236173 -0.0394016 0)
(-0.214806 -0.0442177 0)
(-0.191516 -0.0477656 0)
(-0.166886 -0.0497859 0)
(-0.141604 -0.0500839 0)
(-0.116444 -0.0485626 0)
(-0.0922243 -0.0452506 0)
(-0.0697566 -0.0403186 0)
(-0.0497817 -0.0340788 0)
(-0.0328997 -0.026965 0)
(-0.0195064 -0.0194977 0)
(-0.00974398 -0.0122454 0)
(-0.0034719 -0.00579962 0)
(-0.000260481 -0.000780699 0)
(0.000643627 0.00212234 0)
(0.00021833 0.00205772 0)
(3.09217e-05 -0.0003417 0)
(0.000344695 -0.000911518 0)
(0.000854909 -0.00133055 0)
(0.00148325 -0.00159215 0)
(0.00216369 -0.00171259 0)
(0.00284697 -0.00171595 0)
(0.00349211 -0.00162744 0)
(0.00406667 -0.00146992 0)
(0.00454559 -0.00126236 0)
(0.00490973 -0.00101945 0)
(0.00514433 -0.000751754 0)
(0.00523764 -0.000466131 0)
(0.00517943 -0.000166054 0)
(0.00495976 0.000147828 0)
(0.00456788 0.000477339 0)
(0.00399122 0.000826464 0)
(0.00321457 0.00120102 0)
(0.00221925 0.00160843 0)
(0.000982424 0.00205757 0)
(-0.000523509 0.00255856 0)
(-0.00233142 0.00312269 0)
(-0.00447989 0.00376216 0)
(-0.0070135 0.00448997 0)
(-0.00998299 0.00531959 0)
(-0.0134452 0.00626472 0)
(-0.0174628 0.00733883 0)
(-0.0221037 0.00855464 0)
(-0.0274398 0.00992344 0)
(-0.0335457 0.0114543 0)
(-0.0404969 0.0131528 0)
(-0.0483663 0.0150205 0)
(-0.0572216 0.0170529 0)
(-0.0671208 0.0192384 0)
(-0.0781078 0.0215568 0)
(-0.090207 0.0239782 0)
(-0.103418 0.0264616 0)
(-0.11771 0.0289545 0)
(-0.133017 0.0313927 0)
(-0.149235 0.033701 0)
(-0.166217 0.0357946 0)
(-0.183775 0.0375811 0)
(-0.201681 0.0389641 0)
(-0.219668 0.039846 0)
(-0.237439 0.0401325 0)
(-0.254674 0.0397364 0)
(-0.271039 0.0385812 0)
(-0.286193 0.0366052 0)
(-0.299802 0.0337638 0)
(-0.311543 0.0300324 0)
(-0.321117 0.0254084 0)
(-0.328249 0.0199138 0)
(-0.332702 0.0135968 0)
(-0.334277 0.0065349 0)
(-0.33281 -0.00115565 0)
(-0.328182 -0.00933836 0)
(-0.320332 -0.0178345 0)
(-0.309256 -0.0264162 0)
(-0.295011 -0.0348179 0)
(-0.277734 -0.0427352 0)
(-0.257649 -0.0498315 0)
(-0.235084 -0.0557522 0)
(-0.21048 -0.0601461 0)
(-0.184397 -0.0626964 0)
(-0.157516 -0.0631576 0)
(-0.130613 -0.0613959 0)
(-0.104535 -0.0574253 0)
(-0.0801403 -0.051432 0)
(-0.0582335 -0.0437787 0)
(-0.039488 -0.0349853 0)
(-0.0243726 -0.0256883 0)
(-0.0130928 -0.0165944 0)
(-0.00555463 -0.00844372 0)
(-0.00135523 -0.00200679 0)
(0.000238615 0.00187845 0)
(0.000186839 0.00221815 0)
(3.31931e-05 -0.000434828 0)
(0.000363088 -0.0011267 0)
(0.000891923 -0.00162148 0)
(0.00153451 -0.00192361 0)
(0.00222087 -0.00205599 0)
(0.00290004 -0.00204806 0)
(0.00353005 -0.00192964 0)
(0.00407769 -0.00172757 0)
(0.00451703 -0.00146412 0)
(0.00482793 -0.00115654 0)
(0.00499444 -0.000817203 0)
(0.00500331 -0.000454003 0)
(0.00484255 -7.08449e-05 0)
(0.00450022 0.000331833 0)
(0.0039632 0.000756593 0)
(0.00321622 0.00120862 0)
(0.00224095 0.00169537 0)
(0.00101518 0.00222629 0)
(-0.000487939 0.00281259 0)
(-0.00230046 0.00346706 0)
(-0.00446023 0.00420382 0)
(-0.00701123 0.00503815 0)
(-0.0100039 0.00598619 0)
(-0.0134952 0.00706457 0)
(-0.0175483 0.00829002 0)
(-0.0222324 0.00967877 0)
(-0.0276215 0.0112458 0)
(-0.0337932 0.0130039 0)
(-0.0408267 0.0149628 0)
(-0.0488002 0.0171272 0)
(-0.0577878 0.0194962 0)
(-0.0678551 0.0220607 0)
(-0.0790544 0.0248022 0)
(-0.09142 0.0276912 0)
(-0.104962 0.0306854 0)
(-0.119659 0.0337287 0)
(-0.135458 0.0367511 0)
(-0.152262 0.0396686 0)
(-0.169934 0.0423849 0)
(-0.188292 0.0447937 0)
(-0.207112 0.0467819 0)
(-0.22613 0.048234 0)
(-0.245051 0.0490365 0)
(-0.263553 0.049083 0)
(-0.281302 0.048279 0)
(-0.297957 0.0465457 0)
(-0.313182 0.0438237 0)
(-0.326659 0.0400753 0)
(-0.33809 0.035287 0)
(-0.347205 0.0294702 0)
(-0.353767 0.0226632 0)
(-0.357574 0.0149325 0)
(-0.358461 0.0063753 0)
(-0.356294 -0.00287478 0)
(-0.350977 -0.0126568 0)
(-0.342461 -0.0227662 0)
(-0.330739 -0.0329486 0)
(-0.315856 -0.0429057 0)
(-0.297924 -0.0522942 0)
(-0.277134 -0.0607315 0)
(-0.253773 -0.0678095 0)
(-0.22824 -0.0731181 0)
(-0.201062 -0.0762787 0)
(-0.172895 -0.0769875 0)
(-0.144514 -0.0750636 0)
(-0.116784 -0.0704955 0)
(-0.0906095 -0.0634745 0)
(-0.0668612 -0.0544063 0)
(-0.0462919 -0.0438933 0)
(-0.0294529 -0.0326906 0)
(-0.0166238 -0.0216486 0)
(-0.00776913 -0.0116648 0)
(-0.00252485 -0.0036672 0)
(-0.000193132 0.00135325 0)
(0.000155236 0.00226935 0)
(3.46074e-05 -0.000531777 0)
(0.00037295 -0.00134824 0)
(0.000908623 -0.00191732 0)
(0.00155091 -0.00225613 0)
(0.00222659 -0.00239542 0)
(0.00288348 -0.00237057 0)
(0.00347902 -0.00221628 0)
(0.00397969 -0.00196342 0)
(0.00435913 -0.00163748 0)
(0.00459653 -0.00125814 0)
(0.00467494 -0.000839426 0)
(0.00457977 -0.000390156 0)
(0.00429739 8.55221e-05 0)
(0.00381379 0.000587539 0)
(0.00311348 0.00111938 0)
(0.00217839 0.00168762 0)
(0.000987001 0.00230157 0)
(-0.000486516 0.00297291 0)
(-0.00227303 0.00371542 0)
(-0.00440908 0.00454474 0)
(-0.00693738 0.0054781 0)
(-0.0099072 0.00653404 0)
(-0.0133745 0.00773198 0)
(-0.0174021 0.00909184 0)
(-0.022059 0.0106334 0)
(-0.0274199 0.0123755 0)
(-0.0335639 0.0143351 0)
(-0.0405728 0.0165261 0)
(-0.0485286 0.0189578 0)
(-0.0575104 0.0216334 0)
(-0.0675904 0.0245479 0)
(-0.0788292 0.0276861 0)
(-0.0912703 0.0310207 0)
(-0.104934 0.0345102 0)
(-0.119813 0.0380975 0)
(-0.135863 0.041709 0)
(-0.153001 0.0452549 0)
(-0.171102 0.0486295 0)
(-0.189992 0.0517144 0)
(-0.209457 0.0543815 0)
(-0.22924 0.0564977 0)
(-0.249048 0.0579308 0)
(-0.268564 0.0585544 0)
(-0.287453 0.0582547 0)
(-0.305379 0.0569345 0)
(-0.322007 0.0545181 0)
(-0.337022 0.0509535 0)
(-0.350132 0.046215 0)
(-0.361072 0.0403031 0)
(-0.369614 0.0332456 0)
(-0.37556 0.0250976 0)
(-0.378745 0.0159427 0)
(-0.379038 0.00589531 0)
(-0.376331 -0.00489683 0)
(-0.370544 -0.0162542 0)
(-0.36163 -0.0279532 0)
(-0.34957 -0.0397187 0)
(-0.334387 -0.0512262 0)
(-0.316157 -0.0620987 0)
(-0.295023 -0.0719118 0)
(-0.271222 -0.0802058 0)
(-0.245099 -0.08651 0)
(-0.217134 -0.0903794 0)
(-0.187949 -0.0914433 0)
(-0.158306 -0.0894624 0)
(-0.129086 -0.0843864 0)
(-0.101238 -0.0763991 0)
(-0.0757014 -0.0659393 0)
(-0.0533177 -0.0536874 0)
(-0.0347313 -0.0405176 0)
(-0.0203083 -0.0274305 0)
(-0.0100842 -0.0154887 0)
(-0.00374441 -0.00578554 0)
(-0.000638056 0.000531652 0)
(0.000124954 0.00220741 0)
(3.53007e-05 -0.000630376 0)
(0.000374911 -0.00157129 0)
(0.000906023 -0.00221158 0)
(0.00153383 -0.00258206 0)
(0.00218273 -0.00272232 0)
(0.00279977 -0.00267429 0)
(0.0033423 -0.00247775 0)
(0.00377686 -0.00216763 0)
(0.00407705 -0.00177253 0)
(0.00422166 -0.00131443 0)
(0.00419301 -0.0008088 0)
(0.00397534 -0.000265201 0)
(0.0035534 0.000312175 0)
(0.0029112 0.000923819 0)
(0.00203082 0.00157433 0)
(0.000891391 0.00227189 0)
(-0.000531839 0.00302786 0)
(-0.00226832 0.00385634 0)
(-0.00435296 0.00477391 0)
(-0.00682668 0.00579927 0)
(-0.00973695 0.00695291 0)
(-0.0131381 0.00825677 0)
(-0.0170913 0.00973369 0)
(-0.0216645 0.0114068 0)
(-0.0269318 0.013299 0)
(-0.0329727 0.0154313 0)
(-0.0398701 0.0178223 0)
(-0.0477084 0.0204863 0)
(-0.0565704 0.0234316 0)
(-0.0665339 0.0266581 0)
(-0.0776664 0.0301555 0)
(-0.0900205 0.0339005 0)
(-0.103627 0.0378545 0)
(-0.118491 0.0419622 0)
(-0.134582 0.0461491 0)
(-0.15183 0.0503221 0)
(-0.170124 0.0543692 0)
(-0.189304 0.0581624 0)
(-0.209167 0.0615606 0)
(-0.229465 0.0644148 0)
(-0.249913 0.0665742 0)
(-0.270201 0.0678927 0)
(-0.289997 0.0682359 0)
(-0.308967 0.0674871 0)
(-0.326779 0.0655524 0)
(-0.343122 0.0623641 0)
(-0.357709 0.0578828 0)
(-0.370284 0.0520977 0)
(-0.380624 0.0450261 0)
(-0.388544 0.0367126 0)
(-0.393887 0.0272282 0)
(-0.396525 0.0166711 0)
(-0.396355 0.00516884 0)
(-0.393289 -0.00712092 0)
(-0.387257 -0.0200067 0)
(-0.378204 -0.0332528 0)
(-0.366096 -0.0465697 0)
(-0.350922 -0.0596129 0)
(-0.332714 -0.0719782 0)
(-0.311563 -0.0832028 0)
(-0.287641 -0.0927776 0)
(-0.261232 -0.10017 0)
(-0.232756 -0.104864 0)
(-0.202793 -0.106413 0)
(-0.172082 -0.104506 0)
(-0.141513 -0.0990388 0)
(-0.112076 -0.0901731 0)
(-0.084785 -0.0783685 0)
(-0.060578 -0.0643765 0)
(-0.0402055 -0.0491904 0)
(-0.0241343 -0.0339662 0)
(-0.012484 -0.0199412 0)
(-0.00500088 -0.00838225 0)
(-0.00108883 -0.000597238 0)
(9.67366e-05 0.00203097 0)
(3.53852e-05 -0.000728639 0)
(0.000369574 -0.00179125 0)
(0.000885152 -0.00249793 0)
(0.00148468 -0.00289394 0)
(0.00209115 -0.00302842 0)
(0.00265135 -0.00295036 0)
(0.00312301 -0.00270483 0)
(0.00347313 -0.00233079 0)
(0.0036756 -0.00185987 0)
(0.00370914 -0.0013161 0)
(0.00355552 -0.000716237 0)
(0.00319797 -7.03195e-05 0)
(0.00261975 0.000617623 0)
(0.00180292 0.00134886 0)
(0.000727172 0.00212931 0)
(-0.000631182 0.00296898 0)
(-0.0023001 0.00388146 0)
(-0.00431263 0.0048835 0)
(-0.00670761 0.00599463 0)
(-0.00953026 0.00723677 0)
(-0.0128326 0.00863383 0)
(-0.0166735 0.0102112 0)
(-0.0211191 0.0119952 0)
(-0.0262419 0.0140122 0)
(-0.0321203 0.0162876 0)
(-0.0388371 0.0188447 0)
(-0.046478 0.0217029 0)
(-0.0551281 0.0248763 0)
(-0.0648692 0.0283706 0)
(-0.075775 0.0321814 0)
(-0.0879061 0.0362912 0)
(-0.101304 0.0406665 0)
(-0.115985 0.0452557 0)
(-0.131932 0.0499868 0)
(-0.149093 0.0547661 0)
(-0.16737 0.0594789 0)
(-0.18662 0.0639903 0)
(-0.206654 0.068149 0)
(-0.227237 0.0717923 0)
(-0.248096 0.074752 0)
(-0.268926 0.0768628 0)
(-0.289403 0.0779691 0)
(-0.309195 0.0779335 0)
(-0.327976 0.0766419 0)
(-0.345435 0.0740088 0)
(-0.361289 0.0699798 0)
(-0.375288 0.0645313 0)
(-0.38722 0.0576703 0)
(-0.396907 0.0494317 0)
(-0.404205 0.039876 0)
(-0.408998 0.0290878 0)
(-0.411188 0.0171763 0)
(-0.410698 0.00427775 0)
(-0.407453 -0.00944527 0)
(-0.401386 -0.023796 0)
(-0.392432 -0.0385332 0)
(-0.380532 -0.0533596 0)
(-0.365641 -0.0679172 0)
(-0.34774 -0.0817801 0)
(-0.326861 -0.0944522 0)
(-0.303108 -0.105377 0)
(-0.276693 -0.11396 0)
(-0.247969 -0.119609 0)
(-0.217458 -0.121792 0)
(-0.185868 -0.120114 0)
(-0.154088 -0.114399 0)
(-0.123146 -0.10477 0)
(-0.0941304 -0.0916908 0)
(-0.0680853 -0.0759756 0)
(-0.0458808 -0.0587347 0)
(-0.0281007 -0.0412852 0)
(-0.0149641 -0.0250488 0)
(-0.00628983 -0.0114765 0)
(-0.00154286 -0.00204204 0)
(7.08093e-05 0.0017397 0)
(3.49503e-05 -0.000824749 0)
(0.000357474 -0.00200372 0)
(0.000846977 -0.0027703 0)
(0.00140484 -0.00318451 0)
(0.00195363 -0.00330567 0)
(0.00244053 -0.00319021 0)
(0.00282408 -0.00288863 0)
(0.00307216 -0.00244391 0)
(0.00315931 -0.00189052 0)
(0.00306443 -0.00125437 0)
(0.00276899 -0.000553189 0)
(0.00225533 0.000202715 0)
(0.00150536 0.00100973 0)
(0.000499238 0.00187014 0)
(-0.000785668 0.00279141 0)
(-0.00237581 0.00378556 0)
(-0.0043023 0.00486861 0)
(-0.0066017 0.00606013 0)
(-0.00931667 0.00738276 0)
(-0.0124965 0.00886178 0)
(-0.0161974 0.0105246 0)
(-0.0204826 0.0124001 0)
(-0.0254224 0.0145179 0)
(-0.0310932 0.0169075 0)
(-0.0375767 0.0195966 0)
(-0.0449581 0.0226102 0)
(-0.0533239 0.0259678 0)
(-0.0627585 0.029682 0)
(-0.0733405 0.0337551 0)
(-0.0851372 0.0381766 0)
(-0.0981996 0.0429199 0)
(-0.112555 0.0479395 0)
(-0.128202 0.0531683 0)
(-0.145103 0.0585156 0)
(-0.163177 0.0638668 0)
(-0.1823 0.0690842 0)
(-0.202299 0.0740095 0)
(-0.222955 0.0784687 0)
(-0.244009 0.082279 0)
(-0.265166 0.0852562 0)
(-0.286109 0.0872244 0)
(-0.306512 0.0880236 0)
(-0.32605 0.0875183 0)
(-0.344415 0.085603 0)
(-0.361327 0.0822055 0)
(-0.376538 0.077288 0)
(-0.389842 0.070846 0)
(-0.40107 0.062905 0)
(-0.410088 0.0535171 0)
(-0.416794 0.0427571 0)
(-0.421107 0.0307198 0)
(-0.422957 0.017521 0)
(-0.422283 0.00330163 0)
(-0.419022 -0.0117762 0)
(-0.413104 -0.0275165 0)
(-0.404451 -0.0436793 0)
(-0.392979 -0.0599651 0)
(-0.378605 -0.076009 0)
(-0.36126 -0.0913694 0)
(-0.340913 -0.105522 0)
(-0.317596 -0.117867 0)
(-0.291441 -0.127747 0)
(-0.262725 -0.134491 0)
(-0.231901 -0.137474 0)
(-0.199631 -0.136202 0)
(-0.166792 -0.130411 0)
(-0.13444 -0.12016 0)
(-0.10374 -0.105902 0)
(-0.0758469 -0.0885004 0)
(-0.0517653 -0.0691782 0)
(-0.0322135 -0.0494186 0)
(-0.0175275 -0.030839 0)
(-0.0076129 -0.0150876 0)
(-0.00200091 -0.00381127 0)
(4.69797e-05 0.00133361 0)
(3.40636e-05 -0.000917026 0)
(0.000339061 -0.00220455 0)
(0.000792357 -0.00302278 0)
(0.00129555 -0.00344673 0)
(0.00177183 -0.00354627 0)
(0.0021694 -0.00338557 0)
(0.00244819 -0.00302062 0)
(0.00257736 -0.00249839 0)
(0.0025324 -0.00185598 0)
(0.0022927 -0.00112091 0)
(0.0018396 -0.000311655 0)
(0.00115477 0.000561528 0)
(0.000218841 0.0014957 0)
(-0.0009898 0.00249441 0)
(-0.00249605 0.00356687 0)
(-0.00432905 0.00472733 0)
(-0.00652296 0.00599444 0)
(-0.00911772 0.00739072 0)
(-0.0121596 0.00894206 0)
(-0.0157017 0.0106772 0)
(-0.0198042 0.012627 0)
(-0.024534 0.0148238 0)
(-0.029965 0.0173006 0)
(-0.0361765 0.0200894 0)
(-0.0432527 0.0232201 0)
(-0.0512797 0.0267183 0)
(-0.0603434 0.0306032 0)
(-0.0705256 0.0348846 0)
(-0.0818995 0.0395599 0)
(-0.0945238 0.0446109 0)
(-0.108437 0.05 0)
(-0.123651 0.0556676 0)
(-0.140144 0.061529 0)
(-0.157854 0.0674734 0)
(-0.176675 0.0733636 0)
(-0.196453 0.0790383 0)
(-0.216989 0.0843159 0)
(-0.238037 0.0890015 0)
(-0.259318 0.0928945 0)
(-0.280524 0.0957987 0)
(-0.301335 0.0975321 0)
(-0.321428 0.0979356 0)
(-0.340499 0.0968814 0)
(-0.358264 0.0942769 0)
(-0.374479 0.0900674 0)
(-0.388938 0.0842349 0)
(-0.401477 0.0767948 0)
(-0.411972 0.0677916 0)
(-0.420331 0.0572928 0)
(-0.426489 0.0453848 0)
(-0.430396 0.0321693 0)
(-0.432003 0.0177639 0)
(-0.431263 0.00231056 0)
(-0.42812 -0.0140343 0)
(-0.422499 -0.0310807 0)
(-0.414311 -0.0485952 0)
(-0.403446 -0.0662826 0)
(-0.389785 -0.0837769 0)
(-0.37321 -0.100627 0)
(-0.353626 -0.116287 0)
(-0.330991 -0.130118 0)
(-0.305355 -0.141402 0)
(-0.276905 -0.149388 0)
(-0.246014 -0.15335 0)
(-0.213284 -0.15268 0)
(-0.179562 -0.147006 0)
(-0.145922 -0.136305 0)
(-0.113598 -0.120992 0)
(-0.0838619 -0.101963 0)
(-0.0578657 -0.0805474 0)
(-0.0364816 -0.0583983 0)
(-0.0201818 -0.0373406 0)
(-0.00897554 -0.0192357 0)
(-0.00246602 -0.00591444 0)
(2.48748e-05 0.000812091 0)
(3.27756e-05 -0.00100391 0)
(0.0003147 -0.00238977 0)
(0.000722019 -0.00324968 0)
(0.00115789 -0.00367373 0)
(0.0015472 -0.0037426 0)
(0.00183989 -0.00352838 0)
(0.00199782 -0.00309257 0)
(0.00199185 -0.00248599 0)
(0.00179881 -0.00174817 0)
(0.0013988 -0.000907936 0)
(0.000773277 1.58097e-05 0)
(-9.66236e-05 0.00101313 0)
(-0.0012314 0.00208205 0)
(-0.00265433 0.00322763 0)
(-0.00439249 0.00446108 0)
(-0.00647755 0.00579905 0)
(-0.00894661 0.00726298 0)
(-0.0118428 0.0088785 0)
(-0.0152158 0.0106748 0)
(-0.0191221 0.0126841 0)
(-0.0236253 0.0149408 0)
(-0.0287957 0.0174805 0)
(-0.0347098 0.0203393 0)
(-0.0414492 0.0235514 0)
(-0.049099 0.0271483 0)
(-0.0577452 0.0311556 0)
(-0.0674714 0.0355909 0)
(-0.0783549 0.0404601 0)
(-0.0904613 0.0457542 0)
(-0.103839 0.0514454 0)
(-0.118512 0.0574835 0)
(-0.134473 0.0637927 0)
(-0.15168 0.070269 0)
(-0.170046 0.0767799 0)
(-0.189438 0.083165 0)
(-0.209676 0.0892392 0)
(-0.230536 0.0947991 0)
(-0.251752 0.0996307 0)
(-0.27303 0.103519 0)
(-0.294056 0.106261 0)
(-0.314513 0.107673 0)
(-0.334095 0.107602 0)
(-0.35252 0.105933 0)
(-0.369538 0.10259 0)
(-0.384944 0.0975396 0)
(-0.398575 0.0907848 0)
(-0.41031 0.0823613 0)
(-0.420066 0.072331 0)
(-0.427788 0.060775 0)
(-0.433443 0.0477884 0)
(-0.437006 0.0334762 0)
(-0.43845 0.0179541 0)
(-0.437736 0.00136074 0)
(-0.434814 -0.0161574 0)
(-0.429601 -0.0344204 0)
(-0.422001 -0.0532056 0)
(-0.411882 -0.0722283 0)
(-0.399091 -0.0911276 0)
(-0.383466 -0.10945 0)
(-0.364851 -0.126634 0)
(-0.343128 -0.142006 0)
(-0.31826 -0.154797 0)
(-0.290339 -0.164171 0)
(-0.259644 -0.169296 0)
(-0.226697 -0.169441 0)
(-0.192299 -0.164104 0)
(-0.157525 -0.153152 0)
(-0.123668 -0.136938 0)
(-0.0921182 -0.116368 0)
(-0.0641848 -0.0928651 0)
(-0.0409143 -0.0682549 0)
(-0.0229371 -0.0445829 0)
(-0.0103849 -0.0239419 0)
(-0.00294281 -0.00836323 0)
(3.97712e-06 0.000173498 0)
(3.11211e-05 -0.00108392 0)
(0.000284676 -0.00255556 0)
(0.000636555 -0.00344547 0)
(0.000992783 -0.00385883 0)
(0.00128104 -0.00388725 0)
(0.00145369 -0.00361086 0)
(0.00147518 -0.00309656 0)
(0.00131851 -0.00239885 0)
(0.000962176 -0.00155943 0)