/*--------------------------------*- C++ -*----------------------------------*\
  =========                 |
  \\      /  F ield         | OpenFOAM: The Open Source CFD Toolbox
   \\    /   O peration     | Website:  https://openfoam.org
    \\  /    A nd           | Version:  12
     \\/     M anipulation  |
\*---------------------------------------------------------------------------*/
FoamFile
{
    format      ascii;
    class       volScalarField;
    location    "0.1";
    object      k;
}
// * * * * * * * * * * * * * * * * * * * * * * * * * * * * * * * * * * * * * //

dimensions      [0 2 -2 0 0 0 0];

internalField   nonuniform List<scalar> 
900
(
2.74068e-10
2.06461e-09
4.33425e-09
6.9707e-09
9.83083e-09
1.27924e-08
1.57519e-08
1.86187e-08
2.13123e-08
2.37609e-08
2.59011e-08
2.76792e-08
2.9051e-08
2.99829e-08
3.04523e-08
3.04479e-08
2.99698e-08
2.903e-08
2.76514e-08
2.58682e-08
2.37246e-08
2.12747e-08
1.85817e-08
1.57174e-08
1.27621e-08
9.80595e-09
6.95209e-09
4.32218e-09
2.05866e-09
2.73252e-10
1.84617e-09
1.63989e-08
3.69834e-08
6.09457e-08
8.68093e-08
1.13498e-07
1.40117e-07
1.65874e-07
1.9006e-07
2.12036e-07
2.31241e-07
2.47193e-07
2.59499e-07
2.67859e-07
2.72069e-07
2.72029e-07
2.67742e-07
2.59312e-07
2.46945e-07
2.30947e-07
2.11713e-07
1.89725e-07
1.65546e-07
1.39812e-07
1.13231e-07
8.65918e-08
6.07851e-08
3.6882e-08
1.63526e-08
1.8408e-09
4.04389e-09
3.61826e-08
8.21503e-08
1.3606e-07
1.94509e-07
2.54979e-07
3.1538e-07
3.73878e-07
4.28833e-07
4.78783e-07
5.22441e-07
5.58709e-07
5.86688e-07
6.05694e-07
6.15265e-07
6.15172e-07
6.05421e-07
5.8625e-07
5.58131e-07
5.21757e-07
4.78032e-07
4.28057e-07
3.73118e-07
3.14676e-07
2.54364e-07
1.9401e-07
1.35694e-07
8.19203e-08
3.60784e-08
4.03193e-09
6.56486e-09
5.88305e-08
1.33855e-07
2.22159e-07
3.18181e-07
4.17748e-07
5.17362e-07
6.13949e-07
7.04761e-07
7.87349e-07
8.59562e-07
9.19566e-07
9.65863e-07
9.97312e-07
1.01314e-06
1.01298e-06
9.96826e-07
9.65085e-07
9.18541e-07
8.5835e-07
7.8602e-07
7.03389e-07
6.12608e-07
5.16122e-07
4.16669e-07
3.17308e-07
2.2152e-07
1.33455e-07
5.86501e-08
6.54425e-09
9.2463e-09
8.29056e-08
1.88802e-07
3.13667e-07
4.49683e-07
5.90933e-07
7.32426e-07
8.69757e-07
9.98974e-07
1.11656e-06
1.21941e-06
1.3049e-06
1.37086e-06
1.41567e-06
1.43821e-06
1.43795e-06
1.41489e-06
1.36962e-06
1.30326e-06
1.21747e-06
1.11443e-06
9.96786e-07
8.67623e-07
7.30458e-07
5.89223e-07
4.48303e-07
3.12659e-07
1.88173e-07
8.26226e-08
9.21407e-09
1.19727e-08
1.07378e-07
2.4464e-07
4.06647e-07
5.833e-07
7.66927e-07
9.51026e-07
1.12984e-06
1.29818e-06
1.45143e-06
1.58553e-06
1.69701e-06
1.78303e-06
1.84144e-06
1.87081e-06
1.8704e-06
1.84025e-06
1.78112e-06
1.69449e-06
1.58256e-06
1.44819e-06
1.29484e-06
1.12659e-06
9.48034e-07
7.64333e-07
5.81212e-07
4.05125e-07
2.43693e-07
1.06953e-07
1.19244e-08
1.4653e-08
1.31433e-07
2.99515e-07
4.98007e-07
7.14571e-07
9.39816e-07
1.16576e-06
1.38532e-06
1.5921e-06
1.7804e-06
1.94519e-06
2.08218e-06
2.18789e-06
2.25963e-06
2.29564e-06
2.29503e-06
2.25784e-06
2.18501e-06
2.07841e-06
1.94074e-06
1.77554e-06
1.58711e-06
1.38047e-06
1.16131e-06
9.35964e-07
7.11476e-07
4.95757e-07
2.98119e-07
1.30807e-07
1.45821e-08
1.72126e-08
1.54403e-07
3.51906e-07
5.85214e-07
8.39851e-07
1.10479e-06
1.37063e-06
1.62902e-06
1.87242e-06
2.09409e-06
2.28809e-06
2.44936e-06
2.57374e-06
2.65811e-06
2.70036e-06
2.69945e-06
2.65545e-06
2.56949e-06
2.44378e-06
2.28153e-06
2.08693e-06
1.86507e-06
1.62189e-06
1.36409e-06
1.09914e-06
8.35323e-07
5.81928e-07
3.49872e-07
1.53492e-07
1.71098e-08
1.95896e-08
1.75732e-07
4.00547e-07
6.66165e-07
9.56121e-07
1.25786e-06
1.56067e-06
1.85502e-06
2.13231e-06
2.38484e-06
2.60581e-06
2.78943e-06
2.93099e-06
3.02691e-06
3.07477e-06
3.07344e-06
3.023e-06
2.92477e-06
2.78127e-06
2.59621e-06
2.37438e-06
2.1216e-06
1.84465e-06
1.55116e-06
1.24967e-06
9.49567e-07
6.61419e-07
3.97614e-07
1.74421e-07
1.9442e-08
2.17326e-08
1.9496e-07
4.44393e-07
7.39121e-07
1.06088e-06
1.39573e-06
1.73179e-06
2.05844e-06
2.36613e-06
2.64628e-06
2.89135e-06
3.0949e-06
3.25169e-06
3.35776e-06
3.41045e-06
3.40854e-06
3.35212e-06
3.2427e-06
3.08312e-06
2.87751e-06
2.63122e-06
2.35071e-06
2.04353e-06
1.71815e-06
1.384e-06
1.05151e-06
7.32345e-07
4.40212e-07
1.93095e-07
2.15229e-08
2.35998e-08
2.11713e-07
4.82589e-07
8.02663e-07
1.1521e-06
1.51573e-06
1.88064e-06
2.23529e-06
2.56927e-06
2.87325e-06
3.13903e-06
3.35962e-06
3.52934e-06
3.64391e-06
3.70047e-06
3.69774e-06
3.63588e-06
3.51654e-06
3.34286e-06
3.11935e-06
2.85185e-06
2.54739e-06
2.21416e-06
1.86134e-06
1.49915e-06
1.13887e-06
7.93116e-07
4.76707e-07
2.09093e-07
2.33056e-08
2.51581e-08
2.25693e-07
5.14457e-07
8.55663e-07
1.22814e-06
1.61572e-06
2.00458e-06
2.3824e-06
2.73806e-06
3.0616e-06
3.34428e-06
3.57866e-06
3.75871e-06
3.8799e-06
3.93922e-06
3.9354e-06
3.86864e-06
3.74078e-06
3.5552e-06
3.31676e-06
3.03169e-06
2.70751e-06
2.35292e-06
1.97768e-06
1.59264e-06
1.20976e-06
8.42413e-07
5.06306e-07
2.22066e-07
2.47513e-08
2.6382e-08
2.36673e-07
5.3948e-07
8.97258e-07
1.28778e-06
1.69406e-06
2.10156e-06
2.49733e-06
2.86968e-06
3.20815e-06
3.50359e-06
3.7482e-06
3.93572e-06
4.06146e-06
4.1223e-06
4.11705e-06
4.04597e-06
3.91107e-06
3.71596e-06
3.46578e-06
3.16709e-06
2.82777e-06
2.45692e-06
2.06473e-06
1.6625e-06
1.26267e-06
8.79178e-07
5.28369e-07
2.31734e-07
2.58286e-08
2.72534e-08
2.44489e-07
5.57286e-07
9.26834e-07
1.33014e-06
1.74958e-06
2.17012e-06
2.57833e-06
2.96209e-06
3.3106e-06
3.61439e-06
3.86547e-06
4.05742e-06
4.18546e-06
4.24649e-06
4.2394e-06
4.16457e-06
4.02417e-06
3.822e-06
3.56344e-06
3.25528e-06
2.90568e-06
2.52396e-06
2.12062e-06
1.7072e-06
1.29644e-06
9.02604e-07
5.42411e-07
2.37883e-07
2.65138e-08
2.77608e-08
2.49039e-07
5.67639e-07
9.43993e-07
1.35463e-06
1.78154e-06
2.20933e-06
2.62427e-06
3.01398e-06
3.36744e-06
3.67503e-06
3.92865e-06
4.12185e-06
4.24987e-06
4.30965e-06
4.30028e-06
4.22224e-06
4.07788e-06
3.87119e-06
3.6077e-06
3.29439e-06
2.93952e-06
2.55256e-06
2.14408e-06
1.72572e-06
1.3103e-06
9.12147e-07
5.48106e-07
2.4037e-07
2.67909e-08
2.78983e-08
2.50269e-07
5.7042e-07
9.48542e-07
1.36097e-06
1.78955e-06
2.21871e-06
2.63459e-06
3.02469e-06
3.37793e-06
3.68467e-06
3.93683e-06
4.12804e-06
4.25365e-06
4.31074e-06
4.29864e-06
4.21797e-06
4.07124e-06
3.86261e-06
3.59773e-06
3.28362e-06
2.92859e-06
2.54208e-06
2.13458e-06
1.71763e-06
1.3039e-06
9.07568e-07
5.45308e-07
2.39132e-07
2.66528e-08
2.76657e-08
2.48179e-07
5.65629e-07
9.40482e-07
1.34919e-06
1.77364e-06
2.1983e-06
2.60933e-06
2.99428e-06
3.34213e-06
3.64336e-06
3.89006e-06
4.07604e-06
4.19683e-06
4.24977e-06
4.23447e-06
4.15174e-06
4.00425e-06
3.79627e-06
3.53351e-06
3.22299e-06
2.87292e-06
2.49255e-06
2.09215e-06
1.68295e-06
1.27727e-06
8.8889e-07
5.34032e-07
2.34175e-07
2.61004e-08
2.70658e-08
2.42793e-07
5.53321e-07
9.19903e-07
1.3194e-06
1.73397e-06
2.14829e-06
2.54872e-06
2.92301e-06
3.26038e-06
3.55154e-06
3.78888e-06
3.96649e-06
4.0802e-06
4.12768e-06
4.10885e-06
4.02471e-06
3.8781e-06
3.67338e-06
3.41625e-06
3.11364e-06
2.77354e-06
2.40491e-06
2.0176e-06
1.62235e-06
1.23093e-06
8.56469e-07
5.14496e-07
2.25595e-07
2.51442e-08
2.61055e-08
2.34174e-07
5.33638e-07
8.87044e-07
1.27195e-06
1.67101e-06
2.0693e-06
2.45353e-06
2.81185e-06
3.13381e-06
3.41054e-06
3.63482e-06
3.80115e-06
3.90569e-06
3.94657e-06
3.92401e-06
3.83921e-06
3.69519e-06
3.49635e-06
3.24832e-06
2.95783e-06
2.63256e-06
2.28103e-06
1.91253e-06
1.53714e-06
1.16587e-06
8.11017e-07
4.87128e-07
2.1358e-07
2.38054e-08
2.4796e-08
2.22421e-07
5.0681e-07
8.42292e-07
1.20741e-06
1.58552e-06
1.96228e-06
2.32495e-06
2.66219e-06
2.96409e-06
3.2223e-06
3.43011e-06
3.58254e-06
3.67614e-06
3.70957e-06
3.68332e-06
3.59883e-06
3.45923e-06
3.2689e-06
3.03336e-06
2.75903e-06
2.45319e-06
2.12378e-06
1.7794e-06
1.42934e-06
1.08366e-06
7.53622e-07
4.52586e-07
1.98422e-07
2.21163e-08
2.31514e-08
2.07662e-07
4.73126e-07
7.86128e-07
1.12647e-06
1.47842e-06
1.82842e-06
2.16445e-06
2.47585e-06
2.75339e-06
2.98938e-06
3.17775e-06
3.31409e-06
3.39541e-06
3.42096e-06
3.39142e-06
3.30845e-06
3.17524e-06
2.99612e-06
2.77635e-06
2.522e-06
2.23981e-06
1.93708e-06
1.62159e-06
1.30169e-06
9.86398e-07
6.85765e-07
4.11763e-07
1.80511e-07
2.01207e-08
2.11898e-08
1.90058e-07
4.32956e-07
7.19167e-07
1.03002e-06
1.35091e-06
1.66925e-06
1.97392e-06
2.25513e-06
2.50449e-06
2.71509e-06
2.88159e-06
3.00024e-06
3.06851e-06
3.08625e-06
3.05425e-06
2.97435e-06
2.84972e-06
2.6845e-06
2.48366e-06
2.2528e-06
1.99804e-06
1.72593e-06
1.44338e-06
1.15771e-06
8.76774e-07
6.09321e-07
3.65791e-07
1.60345e-07
1.78738e-08
1.89349e-08
1.69823e-07
3.86781e-07
6.42209e-07
9.19212e-07
1.20453e-06
1.48675e-06
1.75584e-06
2.00306e-06
2.22101e-06
2.40371e-06
2.54662e-06
2.64667e-06
2.70181e-06
2.71241e-06
2.67926e-06
2.60432e-06
2.49061e-06
2.342e-06
2.16304e-06
1.95876e-06
1.73461e-06
1.49633e-06
1.2499e-06
1.00157e-06
7.57987e-07
5.26528e-07
3.16015e-07
1.38515e-07
1.54415e-08
1.64185e-08
1.47239e-07
3.35246e-07
5.56321e-07
7.9559e-07
1.04134e-06
1.28356e-06
1.5135e-06
1.72366e-06
1.90777e-06
2.06088e-06
2.17929e-06
2.26061e-06
2.30327e-06
2.30797e-06
2.27546e-06
2.20765e-06
2.10732e-06
1.97792e-06
1.82346e-06
1.64834e-06
1.45727e-06
1.25515e-06
1.04701e-06
8.38036e-07
6.33675e-07
4.39925e-07
2.63961e-07
1.15689e-07
1.28983e-08
1.36841e-08
1.22695e-07
2.79229e-07
4.62965e-07
6.61268e-07
8.64206e-07
1.06335e-06
1.25147e-06
1.42245e-06
1.57128e-06
1.69406e-06
1.78797e-06
1.85124e-06
1.88276e-06
1.8833e-06
1.85352e-06
1.79514e-06
1.71055e-06
1.60266e-06
1.47485e-06
1.33082e-06
1.17446e-06
1.00984e-06
8.41052e-07
6.72263e-07
5.07776e-07
3.5226e-07
2.1128e-07
9.25898e-08
1.03248e-08
1.0792e-08
9.67318e-08
2.19956e-07
3.64187e-07
5.19239e-07
6.77166e-07
8.31347e-07
9.76212e-07
1.10715e-06
1.22044e-06
1.31327e-06
1.38359e-06
1.43017e-06
1.45237e-06
1.45067e-06
1.42571e-06
1.37886e-06
1.31198e-06
1.22737e-06
1.12768e-06
1.01583e-06
8.94894e-07
7.68065e-07
6.38553e-07
5.09568e-07
3.8436e-07
2.66378e-07
1.59684e-07
6.99689e-08
7.80453e-09
7.82828e-09
7.01173e-08
1.59183e-07
2.62951e-07
3.73873e-07
4.86181e-07
5.95194e-07
6.97076e-07
7.88715e-07
8.67646e-07
9.31999e-07
9.80452e-07
1.01219e-06
1.0269e-06
1.02472e-06
1.00622e-06
9.7231e-07
9.24296e-07
8.63802e-07
7.9271e-07
7.1311e-07
6.27238e-07
5.37411e-07
4.45968e-07
3.55228e-07
2.67495e-07
1.85146e-07
1.1091e-07
4.85917e-08
5.42304e-09
4.92164e-09
4.40009e-08
9.95531e-08
1.63774e-07
2.31884e-07
3.00363e-07
3.66452e-07
4.27945e-07
4.83077e-07
5.30457e-07
5.69025e-07
5.98019e-07
6.16962e-07
6.25647e-07
6.24143e-07
6.12822e-07
5.92043e-07
5.62668e-07
5.25655e-07
4.82137e-07
4.33389e-07
3.80796e-07
3.25812e-07
2.69923e-07
2.14606e-07
1.61316e-07
1.11501e-07
6.67526e-08
2.92546e-08
3.26958e-09
2.2854e-09
2.02661e-08
4.54377e-08
7.4164e-08
1.04346e-07
1.34502e-07
1.63494e-07
1.90416e-07
2.14538e-07
2.35279e-07
2.52189e-07
2.64934e-07
2.73298e-07
2.77171e-07
2.76569e-07
2.71671e-07
2.62507e-07
2.49513e-07
2.33105e-07
2.13776e-07
1.92088e-07
1.6866e-07
1.44154e-07
1.19253e-07
9.46461e-08
7.10113e-08
4.90124e-08
2.93424e-08
1.28982e-08
1.4518e-09
3.43052e-10
2.57855e-09
5.38226e-09
8.55663e-09
1.18939e-08
1.52293e-08
1.84364e-08
2.14156e-08
2.4087e-08
2.63865e-08
2.82637e-08
2.96809e-08
3.06129e-08
3.10466e-08
3.09839e-08
3.0454e-08
2.94531e-08
2.80266e-08
2.62171e-08
2.40785e-08
2.16728e-08
1.90684e-08
1.63387e-08
1.35599e-08
1.08092e-08
8.1638e-09
5.70112e-09
3.50251e-09
1.656e-09
2.20034e-10
)
;

boundaryField
{
    movingWall
    {
        type            kqRWallFunction;
        value           nonuniform List<scalar> 
30
(
3.43052e-10
2.57855e-09
5.38226e-09
8.55663e-09
1.18939e-08
1.52293e-08
1.84364e-08
2.14156e-08
2.4087e-08
2.63865e-08
2.82637e-08
2.96809e-08
3.06129e-08
3.10466e-08
3.09839e-08
3.0454e-08
2.94531e-08
2.80266e-08
2.62171e-08
2.40785e-08
2.16728e-08
1.90684e-08
1.63387e-08
1.35599e-08
1.08092e-08
8.1638e-09
5.70112e-09
3.50251e-09
1.656e-09
2.20034e-10
)
;
    }
    fixedWalls
    {
        type            kqRWallFunction;
        value           nonuniform List<scalar> 
90
(
2.74068e-10
1.84617e-09
4.04389e-09
6.56486e-09
9.2463e-09
1.19727e-08
1.4653e-08
1.72126e-08
1.95896e-08
2.17326e-08
2.35998e-08
2.51581e-08
2.6382e-08
2.72534e-08
2.77608e-08
2.78983e-08
2.76657e-08
2.70658e-08
2.61055e-08
2.4796e-08
2.31514e-08
2.11898e-08
1.89349e-08
1.64185e-08
1.36841e-08
1.0792e-08
7.82828e-09
4.92164e-09
2.2854e-09
3.43052e-10
2.73252e-10
1.8408e-09
4.03193e-09
6.54425e-09
9.21407e-09
1.19244e-08
1.45821e-08
1.71098e-08
1.9442e-08
2.15229e-08
2.33056e-08
2.47513e-08
2.58286e-08
2.65138e-08
2.67909e-08
2.66528e-08
2.61004e-08
2.51442e-08
2.38054e-08
2.21163e-08
2.01207e-08
1.78738e-08
1.54415e-08
1.28983e-08
1.03248e-08
7.80453e-09
5.42304e-09
3.26958e-09
1.4518e-09
2.20034e-10
2.74068e-10
2.06461e-09
4.33425e-09
6.9707e-09
9.83083e-09
1.27924e-08
1.57519e-08
1.86187e-08
2.13123e-08
2.37609e-08
2.59011e-08
2.76792e-08
2.9051e-08
2.99829e-08
3.04523e-08
3.04479e-08
2.99698e-08
2.903e-08
2.76514e-08
2.58682e-08
2.37246e-08
2.12747e-08
1.85817e-08
1.57174e-08
1.27621e-08
9.80595e-09
6.95209e-09
4.32218e-09
2.05866e-09
2.73252e-10
)
;
    }
    frontAndBack
    {
        type            empty;
    }
}


// ************************************************************************* //
