/*--------------------------------*- C++ -*----------------------------------*\
  =========                 |
  \\      /  F ield         | OpenFOAM: The Open Source CFD Toolbox
   \\    /   O peration     | Website:  https://openfoam.org
    \\  /    A nd           | Version:  12
     \\/     M anipulation  |
\*---------------------------------------------------------------------------*/
FoamFile
{
    format      ascii;
    class       volScalarField;
    location    "0.1";
    object      nut;
}
// * * * * * * * * * * * * * * * * * * * * * * * * * * * * * * * * * * * * * //

dimensions      [0 2 -1 0 0 0 0];

internalField   nonuniform List<scalar> 
900
(
1.27856e-15
3.85265e-14
8.08791e-14
1.30077e-13
1.83448e-13
2.38713e-13
2.93938e-13
3.47436e-13
3.97701e-13
4.43391e-13
4.8333e-13
5.16511e-13
5.4211e-13
5.595e-13
5.68259e-13
5.68176e-13
5.59255e-13
5.41717e-13
5.15992e-13
4.82715e-13
4.42714e-13
3.96998e-13
3.46745e-13
2.93294e-13
2.38147e-13
1.82984e-13
1.29729e-13
8.06537e-14
3.84154e-14
1.27475e-15
8.61261e-15
1.2672e-12
6.63653e-12
1.51721e-11
2.49274e-11
3.49568e-11
4.48319e-11
5.42814e-11
6.30818e-11
7.10322e-11
7.7952e-11
8.36839e-11
8.80973e-11
9.10916e-11
9.25988e-11
9.25847e-11
9.10503e-11
8.80313e-11
8.35973e-11
7.78502e-11
7.09214e-11
6.29688e-11
5.41729e-11
4.47342e-11
3.48752e-11
2.48659e-11
1.51331e-11
6.61883e-12
1.26369e-12
8.58755e-15
1.88654e-14
3.11121e-12
2.06349e-11
5.93747e-11
1.1542e-10
1.81053e-10
2.49914e-10
3.1774e-10
3.81693e-10
4.39745e-10
4.90344e-10
5.32258e-10
5.64518e-10
5.86398e-10
5.97413e-10
5.97323e-10
5.86135e-10
5.64102e-10
5.3172e-10
4.89724e-10
4.39089e-10
3.81047e-10
3.17147e-10
2.49411e-10
1.80665e-10
1.15158e-10
5.92313e-11
2.05814e-11
3.10254e-12
1.88096e-14
3.06266e-14
5.16684e-12
3.63986e-11
1.13901e-10
2.41134e-10
4.07126e-10
5.95721e-10
7.91823e-10
9.83373e-10
1.16123e-09
1.31849e-09
1.44996e-09
1.55174e-09
1.62102e-09
1.65599e-09
1.65576e-09
1.62034e-09
1.55067e-09
1.44859e-09
1.31695e-09
1.15963e-09
9.81854e-10
7.90479e-10
5.94624e-10
4.06312e-10
2.40607e-10
1.13625e-10
3.63004e-11
5.15159e-12
3.05304e-14
4.31369e-14
7.3315e-12
5.27327e-11
1.70471e-10
3.74966e-10
6.57641e-10
9.95796e-10
1.36247e-09
1.73236e-09
2.08412e-09
2.4006e-09
2.66844e-09
2.87757e-09
3.02072e-09
3.09323e-09
3.0928e-09
3.01949e-09
2.87564e-09
2.66601e-09
2.39788e-09
2.08135e-09
1.72976e-09
1.36019e-09
9.93952e-10
6.56284e-10
3.74092e-10
1.7002e-10
5.25751e-11
7.30744e-12
4.29865e-14
5.58576e-14
9.5232e-12
6.91068e-11
2.26664e-10
5.07696e-10
9.07889e-10
1.40075e-09
1.94924e-09
2.51478e-09
3.06215e-09
3.5614e-09
3.98833e-09
4.32414e-09
4.55518e-09
4.67253e-09
4.67184e-09
4.55317e-09
4.32102e-09
3.98439e-09
3.55704e-09
3.05771e-09
2.51062e-09
1.9456e-09
1.39781e-09
9.05736e-10
5.06323e-10
2.25963e-10
6.8866e-11
9.48685e-12
5.56322e-14
6.83641e-14
1.16732e-11
8.50772e-11
2.81063e-10
6.35429e-10
1.14811e-09
1.78986e-09
2.51508e-09
3.27307e-09
4.01515e-09
4.69833e-09
5.28677e-09
5.75212e-09
6.07341e-09
6.23688e-09
6.23576e-09
6.07016e-09
5.74707e-09
5.28043e-09
4.69129e-09
4.00801e-09
3.26638e-09
2.50926e-09
1.78518e-09
1.14472e-09
6.33302e-10
2.79997e-10
8.47167e-11
1.16195e-11
6.80333e-14
8.03083e-14
1.37239e-11
1.00255e-10
3.32495e-10
7.55544e-10
1.37303e-09
2.15322e-09
3.04291e-09
3.98049e-09
4.90499e-09
5.76119e-09
6.50212e-09
7.09009e-09
7.49694e-09
7.70402e-09
7.7022e-09
7.49163e-09
7.08187e-09
6.49179e-09
5.74973e-09
4.89341e-09
3.96968e-09
3.03356e-09
2.1458e-09
1.36773e-09
7.5228e-10
3.30891e-10
9.9722e-11
1.36453e-11
7.98285e-14
9.14008e-14
1.56266e-11
1.14306e-10
3.79935e-10
8.65875e-10
1.57881e-09
2.48456e-09
3.52305e-09
4.62294e-09
5.71226e-09
6.7248e-09
7.60357e-09
8.30235e-09
8.78639e-09
9.03258e-09
9.02963e-09
8.77782e-09
8.28907e-09
7.58691e-09
6.70635e-09
5.69365e-09
4.60565e-09
3.50823e-09
2.47294e-09
1.57064e-09
8.60929e-10
3.77551e-10
1.13526e-10
1.5513e-11
9.07118e-14
1.01402e-13
1.73411e-11
1.26946e-10
4.22504e-10
9.6457e-10
1.76229e-09
2.77912e-09
3.94877e-09
5.19133e-09
6.42521e-09
7.57463e-09
8.57383e-09
9.36919e-09
9.92023e-09
1.01999e-08
1.01953e-08
9.90666e-09
9.34819e-09
8.54752e-09
7.54554e-09
6.39595e-09
5.16428e-09
3.92575e-09
2.76126e-09
1.74991e-09
9.57196e-10
4.19009e-10
1.2582e-10
1.71787e-11
1.00423e-13
1.10117e-13
1.88345e-11
1.37943e-10
4.59469e-10
1.05007e-09
1.92083e-09
3.03297e-09
4.31476e-09
5.67887e-09
7.03551e-09
8.30077e-09
9.40151e-09
1.02779e-08
1.08847e-08
1.11917e-08
1.11846e-08
1.08639e-08
1.02457e-08
9.36115e-09
8.2562e-09
6.9908e-09
5.6377e-09
4.27994e-09
3.00619e-09
1.90247e-09
1.03928e-09
4.54428e-10
1.36339e-10
1.86054e-11
1.08744e-13
1.17391e-13
2.00804e-11
1.47109e-10
4.9024e-10
1.12111e-09
2.05228e-09
3.24295e-09
4.61677e-09
6.08023e-09
7.53675e-09
8.89579e-09
1.00782e-08
1.10193e-08
1.167e-08
1.19976e-08
1.19869e-08
1.16389e-08
1.09713e-08
1.00182e-08
8.82958e-09
7.47046e-09
6.01937e-09
4.56554e-09
3.20381e-09
2.02569e-09
1.10566e-09
4.83101e-10
1.44863e-10
1.97621e-11
1.15492e-13
1.23104e-13
2.10587e-11
1.54303e-10
5.14361e-10
1.17671e-09
2.15496e-09
3.40658e-09
4.85148e-09
6.39126e-09
7.92397e-09
9.35396e-09
1.05976e-08
1.15863e-08
1.22685e-08
1.26096e-08
1.25943e-08
1.22237e-08
1.15171e-08
1.0511e-08
9.2586e-09
7.82862e-09
6.30389e-09
4.77821e-09
3.35088e-09
2.11737e-09
1.15506e-09
5.04451e-10
1.51213e-10
2.06239e-11
1.20521e-13
1.27172e-13
2.17552e-11
1.59422e-10
5.31507e-10
1.21617e-09
2.22765e-09
3.52206e-09
5.01648e-09
6.60889e-09
8.19351e-09
9.67106e-09
1.09548e-08
1.19737e-08
1.26745e-08
1.30218e-08
1.30004e-08
1.26119e-08
1.18769e-08
1.08337e-08
9.53775e-09
8.06032e-09
6.48704e-09
4.91453e-09
3.44484e-09
2.17581e-09
1.1865e-09
5.18033e-10
1.55251e-10
2.1172e-11
1.2372e-13
1.2954e-13
2.21606e-11
1.62399e-10
5.41469e-10
1.23903e-09
2.26957e-09
3.58821e-09
5.11015e-09
6.73111e-09
8.34294e-09
9.84425e-09
1.11466e-08
1.2178e-08
1.28844e-08
1.32302e-08
1.32011e-08
1.27993e-08
1.20465e-08
1.09822e-08
9.66317e-09
8.16211e-09
6.56583e-09
4.9721e-09
3.48392e-09
2.19983e-09
1.19932e-09
5.23542e-10
1.56886e-10
2.13934e-11
1.25014e-13
1.30182e-13
2.22704e-11
1.63205e-10
5.44144e-10
1.24508e-09
2.28032e-09
3.60441e-09
5.13165e-09
6.75681e-09
8.3709e-09
9.87198e-09
1.11714e-08
1.21973e-08
1.28961e-08
1.32328e-08
1.31945e-08
1.27841e-08
1.20241e-08
1.09548e-08
9.63343e-09
8.13269e-09
6.53917e-09
4.95002e-09
3.46742e-09
2.18895e-09
1.19323e-09
5.20849e-10
1.56075e-10
2.12826e-11
1.2437e-13
1.29096e-13
2.20846e-11
1.61838e-10
5.39537e-10
1.2343e-09
2.25992e-09
3.57069e-09
5.08098e-09
6.68599e-09
8.27739e-09
9.75422e-09
1.10291e-08
1.20316e-08
1.27096e-08
1.30296e-08
1.29806e-08
1.25663e-08
1.18099e-08
1.07518e-08
9.44873e-09
7.97227e-09
6.40723e-09
4.84841e-09
3.39543e-09
2.14322e-09
1.16825e-09
5.09963e-10
1.52823e-10
2.08402e-11
1.21791e-13
1.26295e-13
2.16052e-11
1.58313e-10
5.27685e-10
1.20678e-09
2.20842e-09
3.48706e-09
4.95811e-09
6.51856e-09
8.06231e-09
9.49096e-09
1.07199e-08
1.16814e-08
1.23259e-08
1.26223e-08
1.25615e-08
1.21485e-08
1.14066e-08
1.0376e-08
9.11187e-09
7.68343e-09
6.17222e-09
4.66904e-09
3.26922e-09
2.06346e-09
1.12486e-09
4.91089e-10
1.47191e-10
2.00745e-11
1.17328e-13
1.21812e-13
2.08378e-11
1.52667e-10
5.08697e-10
1.16271e-09
2.12616e-09
3.35398e-09
4.76364e-09
6.25531e-09
7.72672e-09
9.08366e-09
1.02457e-08
1.11494e-08
1.17482e-08
1.20147e-08
1.19418e-08
1.15357e-08
1.08198e-08
9.83302e-09
8.62824e-09
7.2711e-09
5.83841e-09
4.41532e-09
3.09131e-09
1.95132e-09
1.06395e-09
4.64631e-10
1.39302e-10
1.90024e-11
1.11079e-13
1.157e-13
1.9791e-11
1.44961e-10
4.82756e-10
1.10247e-09
2.01369e-09
3.1722e-09
4.49851e-09
5.89744e-09
7.27218e-09
8.53439e-09
9.60943e-09
1.04392e-08
1.09812e-08
1.12125e-08
1.11283e-08
1.07355e-08
1.00574e-08
9.13107e-09
8.00589e-09
6.7427e-09
5.41219e-09
4.09241e-09
2.86549e-09
1.80929e-09
9.86928e-10
4.3121e-10
1.29343e-10
1.76498e-11
1.03195e-13
1.08023e-13
1.8476e-11
1.35269e-10
4.50073e-10
1.02645e-09
1.87161e-09
2.9425e-09
4.16373e-09
5.44625e-09
6.7005e-09
7.84571e-09
8.81454e-09
9.55559e-09
1.00311e-08
1.02237e-08
1.013e-08
9.75809e-09
9.13042e-09
8.28123e-09
7.25553e-09
6.10807e-09
4.90211e-09
3.70719e-09
2.59686e-09
1.64072e-09
8.95684e-10
3.91669e-10
1.1757e-10
1.60515e-11
9.38814e-14
9.88679e-14
1.69065e-11
1.23682e-10
4.10913e-10
9.35142e-10
1.70064e-09
2.66584e-09
3.76056e-09
4.9035e-09
6.01418e-09
7.02119e-09
7.8661e-09
8.50515e-09
8.90659e-09
9.05839e-09
8.95877e-09
8.61655e-09
8.05252e-09
7.29732e-09
6.39044e-09
5.37935e-09
4.31863e-09
3.26822e-09
2.29169e-09
1.44979e-09
7.92579e-10
3.47068e-10
1.04306e-10
1.4252e-11
8.33954e-14
8.83448e-14
1.5101e-11
1.10323e-10
3.65617e-10
8.2919e-10
1.50176e-09
2.34357e-09
3.29093e-09
4.27195e-09
5.2172e-09
6.0665e-09
6.77178e-09
7.29793e-09
7.61991e-09
7.73101e-09
7.63063e-09
7.32787e-09
6.84112e-09
6.19641e-09
5.42663e-09
4.5709e-09
3.67398e-09
2.78526e-09
1.95724e-09
1.2413e-09
6.80366e-10
2.98654e-10
8.99332e-11
1.23037e-11
7.20449e-14
7.66021e-14
1.30837e-11
9.53504e-11
3.14639e-10
7.09465e-10
1.27637e-09
1.97787e-09
2.75821e-09
3.55677e-09
4.31723e-09
4.99229e-09
5.54548e-09
5.95114e-09
6.19141e-09
6.26405e-09
6.1695e-09
5.91642e-09
5.51996e-09
5.00068e-09
4.384e-09
3.69978e-09
2.98215e-09
2.26912e-09
1.6014e-09
1.02049e-09
5.62051e-10
2.47805e-10
7.48795e-11
1.02662e-11
6.01776e-14
6.38426e-14
1.08878e-11
7.89818e-11
2.58598e-10
5.77216e-10
1.02673e-09
1.57283e-09
2.1693e-09
2.76903e-09
3.3306e-09
3.82091e-09
4.21561e-09
4.4987e-09
4.6594e-09
4.69842e-09
4.61713e-09
4.42286e-09
4.12688e-09
3.74371e-09
3.29089e-09
2.78874e-09
2.26044e-09
1.73216e-09
1.23269e-09
7.92746e-10
4.407e-10
1.95948e-10
5.95981e-11
8.20313e-12
4.81693e-14
5.03486e-14
8.55902e-12
6.1511e-11
1.98349e-10
4.34393e-10
7.5712e-10
1.13712e-09
1.54e-09
1.93432e-09
2.29462e-09
2.60203e-09
2.84364e-09
3.01171e-09
3.10189e-09
3.11545e-09
3.05458e-09
2.92443e-09
2.73205e-09
2.48615e-09
2.19686e-09
1.87565e-09
1.53568e-09
1.1919e-09
8.61526e-10
5.63872e-10
3.19327e-10
1.44458e-10
4.45392e-11
6.1802e-12
3.64105e-14
3.65212e-14
6.16105e-12
4.33365e-11
1.35176e-10
2.84771e-10
4.77517e-10
6.9227e-10
9.09408e-10
1.11365e-09
1.29414e-09
1.44361e-09
1.55762e-09
1.63381e-09
1.67151e-09
1.67144e-09
1.63532e-09
1.56573e-09
1.4662e-09
1.34085e-09
1.19434e-09
1.0318e-09
8.58709e-10
6.8115e-10
5.06217e-10
3.42677e-10
2.01448e-10
9.46287e-11
3.01212e-11
4.26248e-12
2.52997e-14
2.29606e-14
3.78428e-12
2.50443e-11
7.18308e-11
1.38916e-10
2.16114e-10
2.94882e-10
3.69591e-10
4.36727e-10
4.94103e-10
5.40377e-10
5.74778e-10
5.96929e-10
6.06805e-10
6.04714e-10
5.91266e-10
5.67109e-10
5.3341e-10
4.91398e-10
4.42444e-10
3.88018e-10
3.2969e-10
2.69109e-10
2.08075e-10
1.48745e-10
9.40717e-11
4.82399e-11
1.67366e-11
2.5127e-12
1.52531e-14
1.06618e-14
1.56584e-12
8.18014e-12
1.86025e-11
3.02904e-11
4.19694e-11
5.30501e-11
6.31765e-11
7.21123e-11
7.96859e-11
8.57714e-11
9.0281e-11
9.31644e-11
9.44041e-11
9.4024e-11
9.20802e-11
8.86102e-11
8.37883e-11
7.77772e-11
7.07614e-11
6.2945e-11
5.45474e-11
4.57975e-11
3.69249e-11
2.81519e-11
1.96945e-11
1.18322e-11
5.15715e-12
9.90001e-13
6.77279e-15
1.6004e-15
4.81177e-14
1.00437e-13
1.59673e-13
2.21948e-13
2.84191e-13
3.44039e-13
3.99632e-13
4.49483e-13
4.92393e-13
5.27422e-13
5.53869e-13
5.71261e-13
5.79354e-13
5.78182e-13
5.68293e-13
5.49616e-13
5.22995e-13
4.8923e-13
4.49321e-13
4.04428e-13
3.55828e-13
3.0489e-13
2.53035e-13
2.01705e-13
1.5234e-13
1.06386e-13
6.53583e-14
3.09016e-14
1.02648e-15
)
;

boundaryField
{
    movingWall
    {
        type            nutkWallFunction;
        Cmu             0.09;
        kappa           0.41;
        E               9.8;
        value           uniform 0;
    }
    fixedWalls
    {
        type            nutkWallFunction;
        Cmu             0.09;
        kappa           0.41;
        E               9.8;
        value           uniform 0;
    }
    frontAndBack
    {
        type            empty;
    }
}


// ************************************************************************* //
