/*--------------------------------*- C++ -*----------------------------------*\
  =========                 |
  \\      /  F ield         | OpenFOAM: The Open Source CFD Toolbox
   \\    /   O peration     | Website:  https://openfoam.org
    \\  /    A nd           | Version:  12
     \\/     M anipulation  |
\*---------------------------------------------------------------------------*/
FoamFile
{
    format      ascii;
    class       surfaceScalarField;
    location    "0.1";
    object      phi;
}
// * * * * * * * * * * * * * * * * * * * * * * * * * * * * * * * * * * * * * //

dimensions      [0 3 -1 0 0 0 0];

internalField   nonuniform List<scalar> 
1740
(
1.15777e-10
-1.1464e-10
6.56784e-10
-5.4137e-10
1.6195e-09
-9.63093e-10
2.90866e-09
-1.28915e-09
4.41164e-09
-1.50298e-09
6.02153e-09
-1.6098e-09
7.64499e-09
-1.62339e-09
9.20556e-09
-1.56052e-09
1.06436e-08
-1.43799e-09
1.19147e-08
-1.27097e-09
1.2987e-08
-1.07221e-09
1.38388e-08
-8.51819e-10
1.44564e-08
-6.17433e-10
1.4831e-08
-3.74577e-10
1.49583e-08
-1.27174e-10
1.48365e-08
1.21815e-10
1.44668e-08
3.69751e-10
1.38532e-08
6.13614e-10
1.30039e-08
8.49363e-10
1.19326e-08
1.07131e-09
1.0661e-08
1.27165e-09
9.22099e-09
1.44006e-09
7.65738e-09
1.56363e-09
6.03036e-09
1.62706e-09
4.41691e-09
1.61346e-09
2.91085e-09
1.50608e-09
1.61962e-09
1.29125e-09
6.55628e-10
9.63982e-10
1.14325e-10
5.41284e-10
1.14326e-10
6.20998e-10
-7.35982e-10
2.24143e-09
-2.16192e-09
4.64749e-09
-3.36928e-09
7.62191e-09
-4.26352e-09
1.09483e-08
-4.82934e-09
1.4428e-08
-5.08942e-09
1.78887e-08
-5.08399e-09
2.1188e-08
-4.85981e-09
2.42136e-08
-4.46352e-09
2.68804e-08
-3.93767e-09
2.91268e-08
-3.31852e-09
3.09102e-08
-2.63525e-09
3.2203e-08
-1.91015e-09
3.2988e-08
-1.1595e-09
3.32559e-08
-3.95044e-10
3.30034e-08
3.74343e-10
3.22325e-08
1.14067e-09
3.09513e-08
1.89485e-09
2.91759e-08
2.62477e-09
2.69336e-08
3.31361e-09
2.42668e-08
3.93846e-09
2.12373e-08
4.46951e-09
1.79311e-08
4.86989e-09
1.44615e-08
5.0966e-09
1.09722e-08
5.10272e-09
7.63684e-09
4.84147e-09
4.65516e-09
4.27292e-09
2.24412e-09
3.375e-09
6.21416e-10
2.16396e-09
7.35696e-10
9.57787e-10
-1.69377e-09
3.31337e-09
-4.51742e-09
6.64723e-09
-6.70315e-09
1.06136e-08
-8.22983e-09
1.49185e-08
-9.13424e-09
1.93155e-08
-9.4864e-09
2.36038e-08
-9.37228e-09
2.7626e-08
-8.88197e-09
3.12639e-08
-8.10139e-09
3.44332e-08
-7.10701e-09
3.70774e-08
-5.96275e-09
3.91611e-08
-4.71897e-09
4.06639e-08
-3.41292e-09
4.15749e-08
-2.07053e-09
4.18889e-08
-7.09062e-10
4.16037e-08
6.596e-10
4.07191e-08
2.02525e-09
3.92384e-08
3.37556e-09
3.71707e-08
4.69247e-09
3.45354e-08
5.94892e-09
3.13675e-08
7.10632e-09
2.77241e-08
8.11295e-09
2.36904e-08
8.90355e-09
1.93864e-08
9.40061e-09
1.49716e-08
9.51752e-09
1.0649e-08
9.16405e-09
6.6673e-09
8.25464e-09
3.32194e-09
6.72034e-09
9.59754e-10
4.52611e-09
1.69538e-09
1.11905e-09
-2.8127e-09
3.80801e-09
-7.20628e-09
7.51307e-09
-1.04082e-08
1.17915e-08
-1.25082e-08
1.62934e-08
-1.36362e-08
2.07498e-08
-1.39428e-08
2.49624e-08
-1.3585e-08
2.8794e-08
-1.27136e-08
3.21581e-08
-1.14655e-08
3.50081e-08
-9.9571e-09
3.73268e-08
-8.28154e-09
3.9116e-08
-6.50818e-09
4.03871e-08
-4.68402e-09
4.11535e-08
-2.83697e-09
4.14249e-08
-9.8047e-10
4.12035e-08
8.80921e-10
4.04833e-08
2.74542e-09
3.92512e-08
4.60768e-09
3.74909e-08
6.4528e-09
3.5189e-08
8.25078e-09
3.23431e-08
9.9522e-09
2.8971e-08
1.14851e-08
2.51207e-08
1.27539e-08
2.08814e-08
1.36399e-08
1.63939e-08
1.40051e-08
1.18602e-08
1.36977e-08
7.55318e-09
1.25616e-08
3.82585e-09
1.04477e-08
1.12331e-09
7.22863e-09
2.81861e-09
1.14132e-09
-3.95389e-09
3.77931e-09
-9.84421e-09
7.26716e-09
-1.38961e-08
1.11043e-08
-1.63453e-08
1.4921e-08
-1.74529e-08
1.84623e-08
-1.74843e-08
2.15718e-08
-1.66945e-08
2.41739e-08
-1.53158e-08
2.62561e-08
-1.35479e-08
2.78515e-08
-1.15526e-08
2.90212e-08
-9.45122e-09
2.98383e-08
-7.32537e-09
3.03746e-08
-5.22041e-09
3.06888e-08
-3.15124e-09
3.08182e-08
-1.10993e-09
3.07737e-08
9.2542e-10
3.05381e-08
2.98097e-09
3.00685e-08
5.07731e-09
2.93014e-08
7.21984e-09
2.81621e-08
9.39015e-09
2.65756e-08
1.15386e-08
2.44815e-08
1.35792e-08
2.18493e-08
1.53861e-08
1.86955e-08
1.67937e-08
1.51011e-08
1.75994e-08
1.12293e-08
1.75696e-08
7.34135e-09
1.64495e-08
3.81308e-09
1.39759e-08
1.14963e-09
9.89206e-09
3.96817e-09
1.01727e-09
-4.97102e-09
3.16898e-09
-1.19959e-08
5.73907e-09
-1.64662e-08
8.20722e-09
-1.88135e-08
1.02299e-08
-1.94757e-08
1.1618e-08
-1.88724e-08
1.23116e-08
-1.73882e-08
1.23539e-08
-1.53581e-08
1.18635e-08
-1.30575e-08
1.10074e-08
-1.06965e-08
9.97504e-09
-8.41896e-09
8.95527e-09
-6.30566e-09
8.11577e-09
-4.38096e-09
7.58685e-09
-2.62237e-09
7.44941e-09
-9.72536e-10
7.72782e-09
6.46981e-10
8.38769e-09
2.32107e-09
9.33891e-09
4.12607e-09
1.04435e-08
6.1152e-09
1.15285e-08
8.30522e-09
1.24023e-08
1.06648e-08
1.28758e-08
1.31057e-08
1.27856e-08
1.54763e-08
1.20196e-08
1.75598e-08
1.05433e-08
1.90757e-08
8.42713e-09
1.96858e-08
5.87145e-09
1.90052e-08
3.23034e-09
1.66171e-08
1.0328e-09
1.20896e-08
5.00091e-09
7.034e-10
-5.6743e-09
1.79675e-09
-1.30892e-08
2.51877e-09
-1.71882e-08
2.37594e-09
-1.86707e-08
1.11258e-09
-1.82123e-08
-1.32366e-09
-1.64362e-08
-4.81877e-09
-1.38931e-08
-9.13188e-09
-1.10451e-08
-1.39353e-08
-8.25415e-09
-1.88542e-08
-5.77766e-09
-2.35033e-08
-3.76989e-09
-2.75203e-08
-2.28873e-09
-3.05943e-08
-1.30701e-09
-3.24889e-08
-7.27797e-10
-3.30589e-08
-4.02592e-10
-3.22601e-08
-1.51875e-10
-3.01524e-08
2.13303e-10
-2.68955e-08
8.69181e-10
-2.27381e-08
1.95779e-09
-1.79999e-08
3.56699e-09
-1.30479e-08
5.71283e-09
-8.26739e-09
8.32517e-09
-4.02842e-09
1.12373e-08
-6.48939e-10
1.41804e-08
1.64381e-09
1.67829e-08
2.7527e-09
1.85769e-08
2.74844e-09
1.90095e-08
1.90496e-09
1.74605e-08
7.31486e-10
1.32631e-08
5.73237e-09
1.18451e-10
-5.79266e-09
-6.51596e-10
-1.23191e-08
-3.07662e-09
-1.47632e-08
-7.55566e-09
-1.41917e-08
-1.41695e-08
-1.15985e-08
-2.27336e-08
-7.87199e-09
-3.28536e-08
-3.77311e-09
-4.39824e-08
8.37217e-11
-5.54766e-08
3.24001e-09
-6.66539e-08
5.39969e-09
-7.68436e-08
6.41978e-09
-8.54326e-08
6.30017e-09
-9.19046e-08
5.16498e-09
-9.58719e-08
3.2395e-09
-9.70978e-08
8.23254e-10
-9.551e-08
-1.7397e-09
-9.12047e-08
-4.09197e-09
-8.44411e-08
-5.89449e-09
-7.56258e-08
-6.85753e-09
-6.52891e-08
-6.76972e-09
-5.40522e-08
-5.52409e-09
-4.2587e-08
-3.14001e-09
-3.15696e-08
2.19883e-10
-2.16291e-08
4.23987e-09
-1.32922e-08
8.44596e-09
-6.9271e-09
1.22119e-08
-2.68881e-09
1.47712e-08
-4.66114e-10
1.52378e-08
1.6768e-10
1.26293e-08
5.90005e-09
-8.60353e-10
-4.93229e-09
-4.64062e-09
-8.53886e-09
-1.20415e-08
-7.36234e-09
-2.3264e-08
-2.96919e-09
-3.8088e-08
3.22552e-09
-5.59524e-08
9.99239e-09
-7.60352e-08
1.63097e-08
-9.73348e-08
2.13833e-08
-1.18752e-07
2.46569e-08
-1.39163e-07
2.58108e-08
-1.57493e-07
2.47503e-08
-1.72779e-07
2.15853e-08
-1.84216e-07
1.66023e-08
-1.91208e-07
1.02311e-08
-1.9339e-07
3.00564e-09
-1.90652e-07
-4.47764e-09
-1.8314e-07
-1.16037e-08
-1.71251e-07
-1.77835e-08
-1.55612e-07
-2.24973e-08
-1.37045e-07
-2.53359e-08
-1.16531e-07
-2.60384e-08
-9.51469e-08
-2.45242e-08
-7.40079e-08
-2.09191e-08
-5.4195e-08
-1.5573e-08
-3.66798e-08
-9.06927e-09
-2.22448e-08
-2.22312e-09
-1.14052e-08
3.93153e-09
-4.33191e-09
8.16451e-09
-7.76676e-10
9.07407e-09
5.1234e-09
-2.40332e-09
-2.52901e-09
-1.08092e-08
-1.33093e-10
-2.57318e-08
7.56027e-09
-4.7018e-08
1.8317e-08
-7.39664e-08
3.01739e-08
-1.05445e-07
4.14706e-08
-1.40004e-07
5.08688e-08
-1.75992e-07
5.73714e-08
-2.11664e-07
6.03287e-08
-2.45284e-07
5.94311e-08
-2.75221e-07
5.46872e-08
-3.00028e-07
4.63923e-08
-3.18513e-07
3.50875e-08
-3.29793e-07
2.15113e-08
-3.33334e-07
6.54574e-09
-3.2897e-07
-8.8416e-09
-3.16916e-07
-2.36577e-08
-2.97754e-07
-3.69452e-08
-2.72409e-07
-4.7842e-08
-2.42106e-07
-5.56389e-08
-2.08313e-07
-5.98316e-08
-1.7267e-07
-6.01678e-08
-1.36903e-07
-5.66854e-08
-1.02735e-07
-4.97414e-08
-7.17752e-08
-4.00292e-08
-4.54157e-08
-2.85826e-08
-2.47196e-08
-1.67646e-08
-1.0311e-08
-6.24406e-09
-2.2657e-09
1.0288e-09
2.85776e-09
-4.73772e-09
2.20857e-09
-1.99993e-08
1.51283e-08
-4.59233e-08
3.34843e-08
-8.17717e-08
5.41653e-08
-1.26108e-07
7.45098e-08
-1.76962e-07
9.23251e-08
-2.31994e-07
1.059e-07
-2.88641e-07
1.14019e-07
-3.44273e-07
1.1596e-07
-3.96319e-07
1.11478e-07
-4.42398e-07
1.00766e-07
-4.8042e-07
8.44135e-08
-5.08672e-07
6.33397e-08
-5.25893e-07
3.87328e-08
-5.31321e-07
1.19734e-08
-5.2472e-07
-1.54425e-08
-5.06393e-07
-4.19851e-08
-4.77166e-07
-6.61719e-08
-4.38359e-07
-8.66488e-08
-3.91731e-07
-1.02267e-07
-3.39405e-07
-1.12157e-07
-2.8378e-07
-1.15792e-07
-2.2742e-07
-1.13045e-07
-1.72929e-07
-1.04233e-07
-1.22813e-07
-9.0145e-08
-7.93361e-08
-7.20598e-08
-4.43657e-08
-5.1735e-08
-1.92218e-08
-3.13879e-08
-4.51848e-09
-1.36745e-08
-1.66062e-09
-8.15608e-09
1.03644e-08
-3.3289e-08
4.02611e-08
-7.48714e-08
7.50667e-08
-1.31252e-07
1.10546e-07
-1.9991e-07
1.43167e-07
-2.77684e-07
1.70099e-07
-3.60992e-07
1.89208e-07
-4.46033e-07
1.9906e-07
-5.28981e-07
1.98908e-07
-6.06159e-07
1.88656e-07
-6.74196e-07
1.68804e-07
-7.30159e-07
1.40376e-07
-7.71659e-07
1.0484e-07
-7.96942e-07
6.40165e-08
-8.0495e-07
1.99813e-08
-7.95353e-07
-2.50394e-08
-7.68565e-07
-6.87736e-08
-7.25726e-07
-1.09011e-07
-6.68665e-07
-1.43709e-07
-5.99836e-07
-1.71097e-07
-5.22222e-07
-1.89771e-07
-4.39226e-07
-1.98789e-07
-3.54526e-07
-1.97745e-07
-2.71921e-07
-1.86837e-07
-1.95149e-07
-1.66918e-07
-1.27688e-07
-1.3952e-07
-7.25607e-08
-1.06862e-07
-3.21176e-08
-7.18308e-08
-7.81914e-09
-3.79728e-08
-9.47963e-09
-1.30265e-08
2.33907e-08
-5.20173e-08
7.92517e-08
-1.15358e-07
1.38407e-07
-2.00026e-07
1.95214e-07
-3.01945e-07
2.45086e-07
-4.16297e-07
2.84452e-07
-5.37814e-07
3.10724e-07
-6.61039e-07
3.22284e-07
-7.80575e-07
3.18444e-07
-8.91307e-07
2.99388e-07
-9.88587e-07
2.66084e-07
-1.0684e-06
2.20192e-07
-1.12751e-06
1.63944e-07
-1.16352e-06
1.0003e-07
-1.17501e-06
3.1465e-08
-1.16151e-06
-3.85377e-08
-1.12357e-06
-1.06706e-07
-1.06274e-06
-1.69847e-07
-9.81471e-07
-2.24977e-07
-8.83102e-07
-2.69465e-07
-7.71718e-07
-3.01155e-07
-6.52016e-07
-3.1849e-07
-5.29138e-07
-3.20623e-07
-4.08463e-07
-3.07513e-07
-2.9538e-07
-2.80001e-07
-1.95038e-07
-2.39862e-07
-1.12073e-07
-1.89827e-07
-5.03227e-08
-1.33581e-07
-1.25282e-08
-7.57671e-08
-2.20077e-08
-1.97987e-08
4.3189e-08
-7.78028e-08
1.37256e-07
-1.70713e-07
2.31317e-07
-2.93513e-07
3.18014e-07
-4.3995e-07
3.91523e-07
-6.02954e-07
4.47456e-07
-7.75011e-07
4.82781e-07
-9.48502e-07
4.95775e-07
-1.11601e-06
4.85954e-07
-1.27059e-06
4.53969e-07
-1.406e-06
4.01491e-07
-1.51687e-06
3.31065e-07
-1.59889e-06
2.45967e-07
-1.64891e-06
1.50049e-07
-1.66502e-06
4.75707e-08
-1.6466e-06
-5.69591e-08
-1.59435e-06
-1.58954e-07
-1.51028e-06
-2.53921e-07
-1.39763e-06
-3.37628e-07
-1.26081e-06
-4.06277e-07
-1.1053e-06
-4.56671e-07
-9.37411e-07
-4.86377e-07
-7.64158e-07
-4.93875e-07
-5.92974e-07
-4.78697e-07
-4.31429e-07
-4.41545e-07
-2.86913e-07
-3.84378e-07
-1.66279e-07
-3.10461e-07
-7.54667e-08
-2.24393e-07
-1.90939e-08
-1.3214e-07
-4.11014e-08
-2.90064e-08
7.21951e-08
-1.1254e-07
2.20789e-07
-2.44792e-07
3.63569e-07
-4.17919e-07
4.91141e-07
-6.22691e-07
5.96295e-07
-8.49035e-07
6.738e-07
-1.08651e-06
7.20258e-07
-1.32474e-06
7.34005e-07
-1.55377e-06
7.14983e-07
-1.76439e-06
6.6459e-07
-1.9484e-06
5.855e-07
-2.09881e-06
4.81477e-07
-2.21003e-06
3.57184e-07
-2.27797e-06
2.17985e-07
-2.30014e-06
6.97447e-08
-2.27573e-06
-8.13683e-08
-2.2056e-06
-2.29085e-07
-2.09228e-06
-3.67238e-07
-1.93994e-06
-4.89971e-07
-1.75427e-06
-5.91947e-07
-1.54238e-06
-6.6856e-07
-1.31261e-06
-7.16146e-07
-1.0743e-06
-7.32191e-07
-8.37473e-07
-7.15522e-07
-6.12534e-07
-6.66484e-07
-4.09829e-07
-5.87083e-07
-2.39204e-07
-4.81086e-07
-1.09513e-07
-3.54084e-07
-2.80631e-08
-2.13589e-07
-6.91643e-08
-4.12634e-08
1.13458e-07
-1.5837e-07
3.37895e-07
-3.41881e-07
5.4708e-07
-5.80039e-07
7.293e-07
-8.59615e-07
8.75871e-07
-1.16661e-06
9.80795e-07
-1.48686e-06
1.0405e-06
-1.80653e-06
1.05367e-06
-2.11257e-06
1.02103e-06
-2.39307e-06
9.45089e-07
-2.63751e-06
8.29945e-07
-2.83703e-06
6.80993e-07
-2.98454e-06
5.04693e-07
-3.07488e-06
3.08329e-07
-3.10492e-06
9.97763e-08
-3.07355e-06
-1.12734e-07
-2.9818e-06
-3.20838e-07
-2.83276e-06
-5.16276e-07
-2.6316e-06
-6.91133e-07
-2.38546e-06
-8.38084e-07
-2.10336e-06
-9.50654e-07
-1.79602e-06
-1.02349e-06
-1.47556e-06
-1.05264e-06
-1.15527e-06
-1.03582e-06
-8.49095e-07
-9.72654e-07
-5.71237e-07
-8.64941e-07
-3.35521e-07
-7.16802e-07
-1.54773e-07
-5.34832e-07
-4.00902e-08
-3.28272e-07
-1.09254e-07
-5.72504e-08
1.70708e-07
-2.17608e-07
4.98253e-07
-4.66518e-07
7.95989e-07
-7.86893e-07
1.04968e-06
-1.16023e-06
1.2492e-06
-1.56748e-06
1.38805e-06
-1.98984e-06
1.46286e-06
-2.40929e-06
1.47312e-06
-2.80912e-06
1.42086e-06
-3.17429e-06
1.31027e-06
-3.49172e-06
1.14737e-06
-3.75044e-06
9.39713e-07
-3.94177e-06
6.96023e-07
-4.05939e-06
4.25953e-07
-4.09943e-06
1.39809e-07
-4.06046e-06
-1.51699e-07
-3.9436e-06
-4.37696e-07
-3.75249e-06
-7.07392e-07
-3.49328e-06
-9.5034e-07
-3.17465e-06
-1.15672e-06
-2.80767e-06
-1.31763e-06
-2.40572e-06
-1.42544e-06
-1.98421e-06
-1.47416e-06
-1.56027e-06
-1.45976e-06
-1.15229e-06
-1.38063e-06
-7.79355e-07
-1.23788e-06
-4.60499e-07
-1.03566e-06
-2.13911e-07
-7.8142e-07
-5.59457e-08
-4.86237e-07
-1.652e-07
-7.76961e-08
2.48404e-07
-2.92649e-07
7.13206e-07
-6.23217e-07
1.12656e-06
-1.04517e-06
1.47163e-06
-1.53312e-06
1.73716e-06
-2.0617e-06
1.91663e-06
-2.6064e-06
2.00756e-06
-3.1443e-06
2.01103e-06
-3.65457e-06
1.93113e-06
-4.11878e-06
1.77448e-06
-4.52114e-06
1.54973e-06
-4.8486e-06
1.26717e-06
-5.0909e-06
9.3832e-07
-5.24059e-06
5.75643e-07
-5.29305e-06
1.92269e-07
-5.24649e-06
-1.98253e-07
-5.10202e-06
-5.82171e-07
-4.86364e-06
-9.45767e-07
-4.53838e-06
-1.27561e-06
-4.13627e-06
-1.55883e-06
-3.67042e-06
-1.78347e-06
-3.15698e-06
-1.93889e-06
-2.61491e-06
-2.01622e-06
-2.06582e-06
-2.00886e-06
-1.53339e-06
-1.91306e-06
-1.04282e-06
-1.72845e-06
-6.19885e-07
-1.45859e-06
-2.89922e-07
-1.11138e-06
-7.6524e-08
-6.99635e-07
-2.41724e-07
-1.03361e-07
3.51764e-07
-3.85848e-07
9.95693e-07
-8.16125e-07
1.55683e-06
-1.36046e-06
2.01596e-06
-1.98462e-06
2.36133e-06
-2.65537e-06
2.58737e-06
-3.34146e-06
2.69366e-06
-4.01447e-06
2.68404e-06
-4.64918e-06
2.56584e-06
-5.22383e-06
2.34912e-06
-5.72015e-06
2.04606e-06
-6.12333e-06
1.67035e-06
-6.42186e-06
1.23685e-06
-6.60741e-06
7.61198e-07
-6.67476e-06
2.59619e-07
-6.62173e-06
-2.51288e-07
-6.4492e-06
-7.54695e-07
-6.16126e-06
-1.23371e-06
-5.76532e-06
-1.67155e-06
-5.27233e-06
-2.05181e-06
-4.697e-06
-2.3588e-06
-4.05793e-06
-2.57796e-06
-3.37767e-06
-2.69648e-06
-2.6826e-06
-2.70393e-06
-2.00254e-06
-2.59311e-06
-1.37011e-06
-2.36088e-06
-8.19701e-07
-2.009e-06
-3.86115e-07
-1.54497e-06
-1.02859e-07
-9.82891e-07
-3.44583e-07
-1.35049e-07
4.86814e-07
-4.99467e-07
1.36011e-06
-1.0487e-06
2.10607e-06
-1.73639e-06
2.70365e-06
-2.51701e-06
3.14194e-06
-3.34768e-06
3.41805e-06
-4.18951e-06
3.53548e-06
-5.00822e-06
3.50275e-06
-5.77448e-06
3.3321e-06
-6.46383e-06
3.03847e-06
-7.05638e-06
2.6386e-06
-7.53644e-06
2.15041e-06
-7.89206e-06
1.59247e-06
-8.11469e-06
9.83831e-07
-8.19887e-06
3.43794e-07
-8.14206e-06
-3.08097e-07
-7.94469e-06
-9.52066e-07
-7.6103e-06
-1.5681e-06
-7.14586e-06
-2.13599e-06
-6.5622e-06
-2.63547e-06
-5.87453e-06
-3.04647e-06
-5.10296e-06
-3.34953e-06
-4.27293e-06
-3.52651e-06
-3.41542e-06
-3.56144e-06
-2.56688e-06
-3.44165e-06
-1.76867e-06
-3.15909e-06
-1.06598e-06
-2.7117e-06
-5.06109e-07
-2.10484e-06
-1.36162e-07
-1.35284e-06
-4.80745e-07
-1.73713e-07
6.60527e-07
-6.35823e-07
1.82222e-06
-1.32359e-06
2.79383e-06
-2.17375e-06
3.55382e-06
-3.1263e-06
4.09448e-06
-4.1269e-06
4.41864e-06
-5.12829e-06
4.53688e-06
-6.09081e-06
4.46526e-06
-6.98215e-06
4.22344e-06
-7.77678e-06
3.8331e-06
-8.45504e-06
3.31687e-06
-9.00218e-06
2.69755e-06
-9.40742e-06
1.99771e-06
-9.66317e-06
1.23959e-06
-9.76448e-06
4.45105e-07
-9.70869e-06
-3.63895e-07
-9.49535e-06
-1.1654e-06
-9.12659e-06
-1.93686e-06
-8.60751e-06
-2.65507e-06
-7.94699e-06
-3.29598e-06
-7.15871e-06
-3.83476e-06
-6.26215e-06
-4.24609e-06
-5.28379e-06
-4.50487e-06
-4.25801e-06
-4.58722e-06
-3.22757e-06
-4.47208e-06
-2.24357e-06
-4.14309e-06
-1.36444e-06
-3.59083e-06
-6.53925e-07
-2.81535e-06
-1.77929e-07
-1.82883e-06
-6.58674e-07
-2.20763e-07
8.81291e-07
-7.9791e-07
2.39937e-06
-1.64299e-06
3.63891e-06
-2.66967e-06
4.5805e-06
-3.79937e-06
5.22419e-06
-4.9645e-06
5.58377e-06
-6.1097e-06
5.68208e-06
-7.19163e-06
5.5472e-06
-8.17783e-06
5.20963e-06
-9.04495e-06
4.70022e-06
-9.77693e-06
4.04885e-06
-1.03631e-05
3.28368e-06
-1.07964e-05
2.43101e-06
-1.10722e-05
1.51546e-06
-1.11875e-05
5.60401e-07
-1.11399e-05
-4.11527e-07
-1.09276e-05
-1.37768e-06
-1.055e-05
-2.3145e-06
-1.00083e-05
-3.19682e-06
-9.30664e-06
-3.9976e-06
-8.45382e-06
-4.68758e-06
-7.46486e-06
-5.23505e-06
-6.36356e-06
-5.60616e-06
-5.18452e-06
-5.76627e-06
-3.97489e-06
-5.68171e-06
-2.79541e-06
-5.32256e-06
-1.72014e-06
-4.66611e-06
-8.34334e-07
-3.70116e-06
-2.30192e-07
-2.43298e-06
-8.88866e-07
-2.78845e-07
1.16014e-06
-9.90933e-07
3.11146e-06
-2.00975e-06
4.65773e-06
-3.21653e-06
5.78727e-06
-4.50907e-06
6.51673e-06
-5.80559e-06
6.88029e-06
-7.04491e-06
6.92141e-06
-8.18447e-06
6.68675e-06
-9.19706e-06
6.22222e-06
-1.00673e-05
5.57044e-06
-1.0788e-05
4.76955e-06
-1.13573e-05
3.85298e-06
-1.17757e-05
2.84945e-06
-1.20444e-05
1.7842e-06
-1.21639e-05
6.79908e-07
-1.21331e-05
-4.42346e-07
-1.1949e-05
-1.56181e-06
-1.16068e-05
-2.65672e-06
-1.11008e-05
-3.70278e-06
-1.04265e-05
-4.67195e-06
-9.58245e-06
-5.53159e-06
-8.57378e-06
-6.24372e-06
-7.4151e-06
-6.76484e-06
-6.13488e-06
-7.04649e-06
-4.77945e-06
-7.03714e-06
-3.41657e-06
-6.68544e-06
-2.13704e-06
-5.94564e-06
-1.0537e-06
-4.7845e-06
-2.96133e-07
-3.19054e-06
-1.185e-06
-3.53547e-07
1.51368e-06
-1.22529e-06
3.98319e-06
-2.42866e-06
5.86111e-06
-3.79821e-06
7.15682e-06
-5.20297e-06
7.92148e-06
-6.54928e-06
8.2266e-06
-7.77719e-06
8.14932e-06
-8.8541e-06
7.76366e-06
-9.76779e-06
7.13591e-06
-1.05196e-05
6.32224e-06
-1.11186e-05
5.3686e-06
-1.15778e-05
4.31209e-06
-1.19101e-05
3.18175e-06
-1.2126e-05
2.00016e-06
-1.22316e-05
7.85459e-07
-1.22274e-05
-4.46504e-07
-1.21089e-05
-1.68031e-06
-1.18663e-05
-2.89934e-06
-1.14852e-05
-4.08387e-06
-1.09483e-05
-5.20882e-06
-1.02383e-05
-6.24157e-06
-9.34181e-06
-7.14026e-06
-8.25429e-06
-7.85236e-06
-6.98695e-06
-8.31383e-06
-5.57421e-06
-8.44988e-06
-4.08247e-06
-8.17719e-06
-2.61622e-06
-7.41189e-06
-1.32152e-06
-6.0792e-06
-3.81423e-07
-4.13064e-06
-1.56642e-06
-4.57119e-07
1.9708e-06
-1.52098e-06
5.04706e-06
-2.90397e-06
7.2441e-06
-4.37428e-06
8.62712e-06
-5.77167e-06
9.31888e-06
-7.00261e-06
9.45754e-06
-8.02541e-06
9.17212e-06
-8.83444e-06
8.5727e-06
-9.44735e-06
7.74882e-06
-9.89433e-06
6.76922e-06
-1.02099e-05
5.6842e-06
-1.04268e-05
4.529e-06
-1.0573e-05
3.3279e-06
-1.06697e-05
2.09686e-06
-1.07303e-05
8.46074e-07
-1.07592e-05
-4.17614e-07
-1.07511e-05
-1.6884e-06
-1.06911e-05
-2.95931e-06
-1.05552e-05
-4.21977e-06
-1.03113e-05
-5.45276e-06
-9.9212e-06
-6.63167e-06
-9.34471e-06
-7.71675e-06
-8.54574e-06
-8.65133e-06
-7.50147e-06
-9.35809e-06
-6.21484e-06
-9.73651e-06
-4.72921e-06
-9.66282e-06
-3.14899e-06
-8.9921e-06
-1.65269e-06
-7.5755e-06
-4.97309e-07
-5.28603e-06
-2.06373e-06
-6.14272e-07
2.58508e-06
-1.90683e-06
6.33961e-06
-3.41442e-06
8.75169e-06
-4.82079e-06
1.00335e-05
-5.95798e-06
1.04561e-05
-6.76767e-06
1.02672e-05
-7.26225e-06
9.6667e-06
-7.49226e-06
8.80271e-06
-7.5229e-06
7.77946e-06
-7.42109e-06
6.66741e-06
-7.24899e-06
5.5121e-06
-7.06051e-06
4.34052e-06
-6.89898e-06
3.16637e-06
-6.79624e-06
1.99412e-06
-6.77229e-06
8.22125e-07
-6.83507e-06
-3.54835e-07
-6.98013e-06
-1.54334e-06
-7.19026e-06
-2.74919e-06
-7.4349e-06
-3.97512e-06
-7.66974e-06
-5.21792e-06
-7.83679e-06
-6.46462e-06
-7.86604e-06
-7.6875e-06
-7.67998e-06
-8.83739e-06
-7.20264e-06
-9.83544e-06
-6.37555e-06
-1.05636e-05
-5.18379e-06
-1.08546e-05
-3.68623e-06
-1.04897e-05
-2.06391e-06
-9.19782e-06
-6.65953e-07
-6.68398e-06
-2.72968e-06
-8.55225e-07
3.4403e-06
-2.37206e-06
7.85644e-06
-3.78719e-06
1.01668e-05
-4.72482e-06
1.09711e-05
-5.10305e-06
1.08343e-05
-4.98429e-06
1.01485e-05
-4.48453e-06
9.16694e-06
-3.73249e-06
8.05068e-06
-2.8489e-06
6.89586e-06
-1.93774e-06
5.75625e-06
-1.08325e-06
4.65761e-06
-3.5031e-07
3.60758e-06
2.13584e-07
2.60248e-06
5.75734e-07
1.63197e-06
7.15974e-07
6.81884e-07
6.25269e-07
-2.64131e-07
3.05423e-07
-1.22349e-06
-2.30114e-07
-2.21365e-06
-9.54409e-07
-3.25083e-06
-1.82418e-06
-4.34814e-06
-2.77625e-06
-5.51255e-06
-3.72399e-06
-6.73977e-06
-4.55525e-06
-8.00612e-06
-5.13449e-06
-9.2562e-06
-5.31331e-06
-1.03848e-05
-4.957e-06
-1.12109e-05
-3.99391e-06
-1.14528e-05
-2.51223e-06
-1.06795e-05
-9.07396e-07
-8.28881e-06
-3.63708e-06
-1.16984e-06
4.61014e-06
-2.62975e-06
9.31636e-06
-3.20996e-06
1.0747e-05
-2.76336e-06
1.05245e-05
-1.51615e-06
9.58709e-06
2.49068e-07
8.38325e-06
2.27891e-06
7.1371e-06
4.3726e-06
5.95698e-06
6.38171e-06
4.88675e-06
8.20302e-06
3.93494e-06
9.76869e-06
3.09194e-06
1.1036e-05
2.34024e-06
1.19787e-05
1.65977e-06
1.25808e-05
1.02987e-06
1.28327e-05
4.30037e-07
1.27287e-05
-1.60131e-07
1.22664e-05
-7.61256e-07
1.14477e-05
-1.39491e-06
1.02803e-05
-2.08344e-06
8.78263e-06
-2.85045e-06
6.99015e-06
-3.72008e-06
4.96492e-06
-4.71453e-06
2.80742e-06
-5.84862e-06
6.70107e-07
-7.11889e-06
-1.23165e-06
-8.48303e-06
-2.61759e-06
-9.82494e-06
-3.17419e-06
-1.08962e-05
-2.6509e-06
-1.12028e-05
-1.19377e-06
-9.74594e-06
-4.83085e-06
-1.72916e-06
6.3393e-06
-1.19909e-06
8.78629e-06
1.45187e-06
8.09608e-06
5.12519e-06
6.85119e-06
9.12889e-06
5.58339e-06
1.30647e-05
4.44742e-06
1.67095e-05
3.4923e-06
1.99488e-05
2.71768e-06
2.27362e-05
2.09936e-06
2.50651e-05
1.6061e-06
2.6948e-05
1.20895e-06
2.84049e-05
8.83338e-07
2.94557e-05
6.08966e-07
3.01166e-05
3.69047e-07
3.03973e-05
1.49326e-07
3.03003e-05
-6.31188e-08
2.98193e-05
-2.80329e-07
2.89414e-05
-5.16942e-07
2.76449e-05
-7.86978e-07
2.59029e-05
-1.10846e-06
2.36866e-05
-1.50379e-06
2.09725e-05
-2.00044e-06
1.7755e-05
-2.63108e-06
1.40673e-05
-3.43118e-06
1.00146e-05
-4.43029e-06
5.82228e-06
-5.63265e-06
1.91162e-06
-6.9855e-06
-9.75361e-07
-8.31582e-06
-1.67888e-06
-9.04242e-06
-6.50973e-06
6.3393e-06
1.51256e-05
2.32217e-05
3.00729e-05
3.56563e-05
4.01037e-05
4.3596e-05
4.63137e-05
4.8413e-05
5.00191e-05
5.12281e-05
5.21114e-05
5.27204e-05
5.30894e-05
5.32387e-05
5.31756e-05
5.28953e-05
5.23784e-05
5.15914e-05
5.04829e-05
4.89791e-05
4.69787e-05
4.43476e-05
4.09164e-05
3.64861e-05
3.08535e-05
2.3868e-05
1.55522e-05
6.50973e-06
)
;

boundaryField
{
    movingWall
    {
        type            calculated;
        value           uniform 0;
    }
    fixedWalls
    {
        type            calculated;
        value           uniform 0;
    }
    frontAndBack
    {
        type            empty;
    }
}


// ************************************************************************* //
