/*--------------------------------*- C++ -*----------------------------------*\
  =========                 |
  \\      /  F ield         | OpenFOAM: The Open Source CFD Toolbox
   \\    /   O peration     | Website:  https://openfoam.org
    \\  /    A nd           | Version:  12
     \\/     M anipulation  |
\*---------------------------------------------------------------------------*/
FoamFile
{
    format      ascii;
    class       volScalarField;
    location    "0.2";
    object      epsilon;
}
// * * * * * * * * * * * * * * * * * * * * * * * * * * * * * * * * * * * * * //

dimensions      [0 2 -3 0 0 0 0];

internalField   nonuniform List<scalar> 
900
(
1.15851e-11
5.76397e-11
1.24403e-10
2.01991e-10
2.85274e-10
3.70625e-10
4.55064e-10
5.36003e-10
6.11169e-10
6.7858e-10
7.36552e-10
7.83704e-10
8.18969e-10
8.41594e-10
8.51155e-10
8.47592e-10
8.31088e-10
8.02138e-10
7.6152e-10
7.10271e-10
6.4967e-10
5.81216e-10
5.0661e-10
4.27743e-10
3.46698e-10
2.65775e-10
1.87575e-10
1.15249e-10
5.33187e-11
1.0712e-11
5.766e-11
4.55909e-11
6.80282e-11
1.00665e-10
1.3766e-10
1.76339e-10
2.14956e-10
2.52151e-10
2.86788e-10
3.17905e-10
3.44693e-10
3.66493e-10
3.82801e-10
3.93261e-10
3.97672e-10
3.96006e-10
3.88348e-10
3.7493e-10
3.56117e-10
3.32398e-10
3.04375e-10
2.72758e-10
2.38359e-10
2.02094e-10
1.65001e-10
1.28291e-10
9.35055e-11
6.30261e-11
4.21596e-11
5.32986e-11
1.24622e-10
6.81507e-11
6.95029e-11
8.56842e-11
1.07945e-10
1.32842e-10
1.58482e-10
1.83587e-10
2.07189e-10
2.28514e-10
2.46934e-10
2.61951e-10
2.73189e-10
2.80384e-10
2.83386e-10
2.82177e-10
2.76816e-10
2.67471e-10
2.54409e-10
2.37986e-10
2.18645e-10
1.96917e-10
1.73421e-10
1.48888e-10
1.24198e-10
1.00498e-10
7.94818e-11
6.42765e-11
6.29079e-11
1.15037e-10
2.02817e-10
1.01101e-10
8.59358e-11
9.11783e-11
1.04702e-10
1.22085e-10
1.41062e-10
1.60213e-10
1.78532e-10
1.95256e-10
2.09793e-10
2.21682e-10
2.30583e-10
2.36258e-10
2.38577e-10
2.37521e-10
2.3314e-10
2.2558e-10
2.15072e-10
2.01929e-10
1.86543e-10
1.69395e-10
1.51063e-10
1.32256e-10
1.13884e-10
9.72265e-11
8.43337e-11
7.92386e-11
9.30852e-11
1.86781e-10
2.8736e-10
1.38708e-10
1.08649e-10
1.05097e-10
1.12115e-10
1.24233e-10
1.38769e-10
1.54108e-10
1.69148e-10
1.83083e-10
1.953e-10
2.05336e-10
2.12853e-10
2.17615e-10
2.19495e-10
2.18475e-10
2.146e-10
2.08008e-10
1.98919e-10
1.87635e-10
1.74538e-10
1.60101e-10
1.4491e-10
1.29712e-10
1.15503e-10
1.03737e-10
9.68446e-11
9.98177e-11
1.27283e-10
2.63772e-10
3.74867e-10
1.78404e-10
1.34268e-10
1.23082e-10
1.24784e-10
1.3278e-10
1.43962e-10
1.56514e-10
1.69221e-10
1.81207e-10
1.91827e-10
2.00595e-10
2.07161e-10
2.11283e-10
2.12832e-10
2.11787e-10
2.08192e-10
2.02183e-10
1.93981e-10
1.83888e-10
1.72293e-10
1.59684e-10
1.46678e-10
1.34071e-10
1.22955e-10
1.14969e-10
1.1292e-10
1.22823e-10
1.63016e-10
3.42628e-10
4.62562e-10
2.1854e-10
1.60967e-10
1.4292e-10
1.40086e-10
1.44691e-10
1.53188e-10
1.63551e-10
1.74457e-10
1.84968e-10
1.94391e-10
2.02212e-10
2.08062e-10
2.11688e-10
2.1296e-10
2.1185e-10
2.08403e-10
2.0276e-10
1.95147e-10
1.85872e-10
1.75339e-10
1.64058e-10
1.52678e-10
1.42051e-10
1.33365e-10
1.28438e-10
1.30459e-10
1.46493e-10
1.98653e-10
4.20554e-10
5.48012e-10
2.57827e-10
1.87524e-10
1.63241e-10
1.56455e-10
1.58198e-10
1.64481e-10
1.73075e-10
1.82543e-10
1.91882e-10
2.00354e-10
2.07421e-10
2.12695e-10
2.1591e-10
2.16933e-10
2.1573e-10
2.12348e-10
2.06933e-10
1.99718e-10
1.91022e-10
1.81266e-10
1.70981e-10
1.60849e-10
1.51778e-10
1.45049e-10
1.42642e-10
1.48139e-10
1.69633e-10
2.32913e-10
4.95102e-10
6.29033e-10
2.95176e-10
2.13004e-10
1.83074e-10
1.72825e-10
1.72131e-10
1.76567e-10
1.83703e-10
1.91998e-10
2.00384e-10
2.08084e-10
2.14532e-10
2.19323e-10
2.22179e-10
2.22966e-10
2.21646e-10
2.18268e-10
2.12982e-10
2.0603e-10
1.97744e-10
1.88558e-10
1.79026e-10
1.69862e-10
1.6202e-10
1.56876e-10
1.56553e-10
1.65017e-10
1.91327e-10
2.64717e-10
5.64105e-10
7.03653e-10
3.29628e-10
2.36642e-10
2.01669e-10
1.88403e-10
1.85642e-10
1.88535e-10
1.94468e-10
2.01798e-10
2.09399e-10
2.16459e-10
2.22386e-10
2.26762e-10
2.29296e-10
2.29855e-10
2.28396e-10
2.24973e-10
2.19741e-10
2.12949e-10
2.04941e-10
1.96166e-10
1.87197e-10
1.78776e-10
1.719e-10
1.68022e-10
1.69411e-10
1.80369e-10
2.10839e-10
2.93144e-10
6.25665e-10
7.70114e-10
3.60343e-10
2.57793e-10
2.18424e-10
2.02578e-10
1.98084e-10
1.99701e-10
2.04646e-10
2.11186e-10
2.1814e-10
2.24665e-10
2.30149e-10
2.3416e-10
2.36397e-10
2.36733e-10
2.35117e-10
2.31609e-10
2.26369e-10
2.19655e-10
2.1182e-10
2.03325e-10
1.94761e-10
1.86894e-10
1.80761e-10
1.77872e-10
1.80632e-10
1.93629e-10
2.27568e-10
3.17417e-10
6.78158e-10
8.26868e-10
3.86587e-10
2.7591e-10
2.32844e-10
2.14858e-10
2.0895e-10
2.09536e-10
2.13686e-10
2.19586e-10
2.26011e-10
2.32089e-10
2.37192e-10
2.40879e-10
2.42841e-10
2.42957e-10
2.41169e-10
2.37543e-10
2.32245e-10
2.25539e-10
2.17788e-10
2.09464e-10
2.01171e-10
1.93695e-10
1.88108e-10
1.85959e-10
1.89769e-10
2.04355e-10
2.41036e-10
3.36902e-10
7.20254e-10
8.72591e-10
4.07738e-10
2.90535e-10
2.44524e-10
2.24854e-10
2.17842e-10
2.1763e-10
2.21161e-10
2.26557e-10
2.32556e-10
2.38265e-10
2.43044e-10
2.46443e-10
2.48151e-10
2.48048e-10
2.46077e-10
2.42308e-10
2.3691e-10
2.30156e-10
2.22414e-10
2.14166e-10
2.06028e-10
1.98798e-10
1.93577e-10
1.91941e-10
1.96492e-10
2.12217e-10
2.50878e-10
3.51116e-10
7.50935e-10
9.06198e-10
4.23285e-10
3.013e-10
2.53145e-10
2.32261e-10
2.24457e-10
2.23672e-10
2.26751e-10
2.31771e-10
2.3744e-10
2.42852e-10
2.47358e-10
2.50504e-10
2.51981e-10
2.51667e-10
2.49508e-10
2.45575e-10
2.40045e-10
2.33192e-10
2.25394e-10
2.17138e-10
2.09048e-10
2.01934e-10
1.96911e-10
1.9557e-10
2.00564e-10
2.16978e-10
2.56839e-10
3.5972e-10
7.69486e-10
9.26847e-10
4.32836e-10
3.07924e-10
2.58469e-10
2.36854e-10
2.28575e-10
2.27439e-10
2.30231e-10
2.34996e-10
2.40429e-10
2.45614e-10
2.49901e-10
2.52831e-10
2.54104e-10
2.53592e-10
2.51245e-10
2.47137e-10
2.41448e-10
2.34459e-10
2.2655e-10
2.18215e-10
2.1008e-10
2.02961e-10
1.9798e-10
1.96729e-10
2.01875e-10
2.1853e-10
2.58801e-10
3.62559e-10
7.75585e-10
9.33962e-10
4.36123e-10
3.10216e-10
2.60336e-10
2.3849e-10
2.30056e-10
2.28793e-10
2.3146e-10
2.36095e-10
2.41386e-10
2.46419e-10
2.50545e-10
2.53304e-10
2.54405e-10
2.53718e-10
2.51194e-10
2.46911e-10
2.41052e-10
2.33898e-10
2.25833e-10
2.17353e-10
2.09087e-10
2.01849e-10
1.96759e-10
1.954e-10
2.00413e-10
2.16867e-10
2.56765e-10
3.59643e-10
7.69264e-10
9.27271e-10
4.33022e-10
3.08097e-10
2.58685e-10
2.37117e-10
2.28857e-10
2.27693e-10
2.30403e-10
2.35033e-10
2.40283e-10
2.45244e-10
2.49272e-10
2.51913e-10
2.52883e-10
2.52049e-10
2.49368e-10
2.44918e-10
2.38881e-10
2.3154e-10
2.2328e-10
2.14595e-10
2.06114e-10
1.98646e-10
1.93298e-10
1.91634e-10
1.96236e-10
2.12058e-10
2.5082e-10
3.51105e-10
7.50815e-10
9.06693e-10
4.23501e-10
3.01549e-10
2.53511e-10
2.32738e-10
2.24988e-10
2.24158e-10
2.27085e-10
2.31847e-10
2.37164e-10
2.42142e-10
2.4615e-10
2.48737e-10
2.49631e-10
2.48695e-10
2.45889e-10
2.41289e-10
2.35078e-10
2.27535e-10
2.19043e-10
2.10097e-10
2.01319e-10
1.9351e-10
1.87754e-10
1.8559e-10
1.89504e-10
2.04279e-10
2.41174e-10
3.3724e-10
7.20874e-10
8.72408e-10
4.07647e-10
2.90641e-10
2.44877e-10
2.25423e-10
2.18529e-10
2.18281e-10
2.2162e-10
2.26668e-10
2.32181e-10
2.37286e-10
2.41366e-10
2.43983e-10
2.44868e-10
2.43885e-10
2.40995e-10
2.36272e-10
2.29894e-10
2.22138e-10
2.13384e-10
2.04118e-10
1.9496e-10
1.86696e-10
1.80378e-10
1.77515e-10
1.8047e-10
1.93794e-10
2.28138e-10
3.18482e-10
6.80372e-10
8.25013e-10
3.85748e-10
2.75594e-10
2.32993e-10
2.15386e-10
2.09702e-10
2.10305e-10
2.14262e-10
2.19769e-10
2.25622e-10
2.30979e-10
2.3524e-10
2.37979e-10
2.38933e-10
2.37968e-10
2.35041e-10
2.30226e-10
2.23693e-10
2.15716e-10
2.06665e-10
1.97022e-10
1.87394e-10
1.78551e-10
1.71513e-10
1.67745e-10
1.69467e-10
1.80955e-10
2.12117e-10
2.95389e-10
6.30505e-10
7.65363e-10
3.58213e-10
2.56721e-10
2.18149e-10
2.02922e-10
1.9882e-10
2.00565e-10
2.05378e-10
2.11541e-10
2.17903e-10
2.23656e-10
2.28222e-10
2.31191e-10
2.32301e-10
2.31423e-10
2.28512e-10
2.23636e-10
2.1696e-10
2.08748e-10
1.99363e-10
1.89275e-10
1.79078e-10
1.69525e-10
1.61597e-10
1.56702e-10
1.56916e-10
1.66194e-10
1.93597e-10
2.6863e-10
5.72694e-10
6.94624e-10
3.25602e-10
2.34453e-10
2.0075e-10
1.8845e-10
1.86333e-10
1.89548e-10
1.95489e-10
2.02538e-10
2.09607e-10
2.15925e-10
2.20938e-10
2.24254e-10
2.25616e-10
2.24896e-10
2.22048e-10
2.17135e-10
2.10316e-10
2.01845e-10
1.92074e-10
1.81461e-10
1.70582e-10
1.60168e-10
1.51164e-10
1.44895e-10
1.4332e-10
1.50021e-10
1.73146e-10
2.38961e-10
5.08546e-10
6.14284e-10
2.88637e-10
2.0936e-10
1.81348e-10
1.72546e-10
1.72872e-10
1.77935e-10
1.85326e-10
1.93539e-10
2.01548e-10
2.08627e-10
2.14247e-10
2.18036e-10
2.19745e-10
2.19245e-10
2.16497e-10
2.11553e-10
2.04568e-10
1.95788e-10
1.85553e-10
1.74308e-10
1.62607e-10
1.51155e-10
1.40859e-10
1.32948e-10
1.29274e-10
1.33027e-10
1.51399e-10
2.0722e-10
4.39815e-10
5.26182e-10
2.48223e-10
1.82184e-10
1.60695e-10
1.56014e-10
1.59327e-10
1.66698e-10
1.75934e-10
1.85645e-10
1.94878e-10
2.02948e-10
2.09358e-10
2.13753e-10
2.15897e-10
2.15665e-10
2.1303e-10
2.08031e-10
2.00822e-10
1.91638e-10
1.80811e-10
1.68766e-10
1.56047e-10
1.43333e-10
1.31481e-10
1.21629e-10
1.15497e-10
1.15905e-10
1.29073e-10
1.74307e-10
3.68371e-10
4.32543e-10
2.05486e-10
1.53911e-10
1.39831e-10
1.40031e-10
1.47003e-10
1.57267e-10
1.68854e-10
1.80495e-10
1.9131e-10
2.00659e-10
2.08074e-10
2.13222e-10
2.15882e-10
2.15934e-10
2.13378e-10
2.08228e-10
2.00651e-10
1.90885e-10
1.79257e-10
1.66183e-10
1.52183e-10
1.37885e-10
1.24101e-10
1.1192e-10
1.02887e-10
9.94964e-11
1.06989e-10
1.41197e-10
2.96173e-10
3.36053e-10
1.61867e-10
1.25931e-10
1.20316e-10
1.26419e-10
1.37953e-10
1.51916e-10
1.66556e-10
1.80723e-10
1.93604e-10
2.04618e-10
2.13328e-10
2.19417e-10
2.2268e-10
2.23007e-10
2.20431e-10
2.14936e-10
2.06716e-10
1.96024e-10
1.83191e-10
1.68636e-10
1.5287e-10
1.36514e-10
1.20329e-10
1.0528e-10
9.27195e-11
8.49125e-11
8.61541e-11
1.08959e-10
2.25269e-10
2.40046e-10
1.19347e-10
1.00407e-10
1.04814e-10
1.18318e-10
1.35792e-10
1.54669e-10
1.73443e-10
1.911e-10
2.06891e-10
2.20245e-10
2.30741e-10
2.38077e-10
2.4206e-10
2.42598e-10
2.39775e-10
2.33547e-10
2.24147e-10
2.11867e-10
1.97065e-10
1.80184e-10
1.61753e-10
1.42393e-10
1.22842e-10
1.04008e-10
8.70979e-11
7.39134e-11
6.79916e-11
7.88855e-11
1.57829e-10
1.48927e-10
8.1137e-11
8.14945e-11
9.86599e-11
1.22199e-10
1.48104e-10
1.74321e-10
1.99493e-10
2.22641e-10
2.4303e-10
2.6009e-10
2.7339e-10
2.82623e-10
2.87599e-10
2.88241e-10
2.84721e-10
2.76938e-10
2.65216e-10
2.49919e-10
2.31478e-10
2.10411e-10
1.87323e-10
1.629e-10
1.37919e-10
1.13276e-10
9.00659e-11
6.98198e-11
5.5205e-11
5.28989e-11
9.63115e-11
6.92841e-11
5.44614e-11
7.99434e-11
1.1635e-10
1.56718e-10
1.97948e-10
2.3812e-10
2.75852e-10
3.10062e-10
3.39882e-10
3.64621e-10
3.83749e-10
3.96889e-10
4.03814e-10
4.04444e-10
3.99125e-10
3.87627e-10
3.70496e-10
3.48255e-10
3.21514e-10
2.91006e-10
2.57565e-10
2.22116e-10
1.8567e-10
1.49316e-10
1.14247e-10
8.18621e-11
5.41594e-11
3.54624e-11
4.41486e-11
1.40107e-11
6.92279e-11
1.47557e-10
2.3592e-10
3.28025e-10
4.19743e-10
5.07967e-10
5.90189e-10
6.64324e-10
7.28649e-10
7.81772e-10
8.22623e-10
8.50444e-10
8.64789e-10
8.65501e-10
8.53405e-10
8.27952e-10
7.90421e-10
7.41917e-10
6.83772e-10
6.17561e-10
5.45074e-10
4.6828e-10
3.89301e-10
3.10374e-10
2.33841e-10
1.62149e-10
9.79594e-11
4.47017e-11
8.98862e-12
)
;

boundaryField
{
    movingWall
    {
        type            epsilonWallFunction;
        value           nonuniform List<scalar> 
30
(
1.40107e-11
6.92279e-11
1.47557e-10
2.3592e-10
3.28025e-10
4.19743e-10
5.07967e-10
5.90189e-10
6.64324e-10
7.28649e-10
7.81772e-10
8.22623e-10
8.50444e-10
8.64789e-10
8.65501e-10
8.53405e-10
8.27952e-10
7.90421e-10
7.41917e-10
6.83772e-10
6.17561e-10
5.45074e-10
4.6828e-10
3.89301e-10
3.10374e-10
2.33841e-10
1.62149e-10
9.79594e-11
4.47017e-11
8.98862e-12
)
;
    }
    fixedWalls
    {
        type            epsilonWallFunction;
        value           nonuniform List<scalar> 
90
(
1.15851e-11
5.766e-11
1.24622e-10
2.02817e-10
2.8736e-10
3.74867e-10
4.62562e-10
5.48012e-10
6.29033e-10
7.03653e-10
7.70114e-10
8.26868e-10
8.72591e-10
9.06198e-10
9.26847e-10
9.33962e-10
9.27271e-10
9.06693e-10
8.72408e-10
8.25013e-10
7.65363e-10
6.94624e-10
6.14284e-10
5.26182e-10
4.32543e-10
3.36053e-10
2.40046e-10
1.48927e-10
6.92841e-11
1.40107e-11
1.0712e-11
5.32986e-11
1.15037e-10
1.86781e-10
2.63772e-10
3.42628e-10
4.20554e-10
4.95102e-10
5.64105e-10
6.25665e-10
6.78158e-10
7.20254e-10
7.50935e-10
7.69486e-10
7.75585e-10
7.69264e-10
7.50815e-10
7.20874e-10
6.80372e-10
6.30505e-10
5.72694e-10
5.08546e-10
4.39815e-10
3.68371e-10
2.96173e-10
2.25269e-10
1.57829e-10
9.63115e-11
4.41486e-11
8.98862e-12
1.15851e-11
5.76397e-11
1.24403e-10
2.01991e-10
2.85274e-10
3.70625e-10
4.55064e-10
5.36003e-10
6.11169e-10
6.7858e-10
7.36552e-10
7.83704e-10
8.18969e-10
8.41594e-10
8.51155e-10
8.47592e-10
8.31088e-10
8.02138e-10
7.6152e-10
7.10271e-10
6.4967e-10
5.81216e-10
5.0661e-10
4.27743e-10
3.46698e-10
2.65775e-10
1.87575e-10
1.15249e-10
5.33187e-11
1.0712e-11
)
;
    }
    frontAndBack
    {
        type            empty;
    }
}


// ************************************************************************* //
