/*--------------------------------*- C++ -*----------------------------------*\
  =========                 |
  \\      /  F ield         | OpenFOAM: The Open Source CFD Toolbox
   \\    /   O peration     | Website:  https://openfoam.org
    \\  /    A nd           | Version:  12
     \\/     M anipulation  |
\*---------------------------------------------------------------------------*/
FoamFile
{
    format      ascii;
    class       volScalarField;
    location    "0.2";
    object      k;
}
// * * * * * * * * * * * * * * * * * * * * * * * * * * * * * * * * * * * * * //

dimensions      [0 2 -2 0 0 0 0];

internalField   nonuniform List<scalar> 
900
(
5.8223e-16
2.89677e-15
6.25208e-15
1.01514e-14
1.43369e-14
1.86263e-14
2.287e-14
2.69377e-14
3.07153e-14
3.41031e-14
3.70166e-14
3.93863e-14
4.11586e-14
4.22957e-14
4.27762e-14
4.25971e-14
4.17677e-14
4.03127e-14
3.82714e-14
3.56958e-14
3.26502e-14
2.92099e-14
2.54605e-14
2.14969e-14
1.74239e-14
1.3357e-14
9.42687e-15
5.792e-15
2.67962e-15
5.38351e-16
2.89779e-15
2.48926e-14
5.5428e-14
9.05949e-14
1.28248e-13
1.668e-13
2.04922e-13
2.41453e-13
2.75373e-13
3.05788e-13
3.31942e-13
3.53212e-13
3.69118e-13
3.7932e-13
3.83627e-13
3.82013e-13
3.74558e-13
3.61489e-13
3.43158e-13
3.20033e-13
2.9269e-13
2.61805e-13
2.28144e-13
1.92557e-13
1.55979e-13
1.19441e-13
8.41002e-14
5.13322e-14
2.30194e-14
2.67861e-15
6.2631e-15
5.5505e-14
1.24719e-13
2.04778e-13
2.90605e-13
3.78503e-13
4.65414e-13
5.48682e-13
6.25976e-13
6.95264e-13
7.54819e-13
8.03229e-13
8.39403e-13
8.6257e-13
8.72299e-13
8.68548e-13
8.515e-13
8.21673e-13
7.79871e-13
7.27163e-13
6.64863e-13
5.94506e-13
5.17836e-13
4.36787e-13
3.53488e-13
2.70288e-13
1.8984e-13
1.15347e-13
5.12583e-14
5.78136e-15
1.01929e-14
9.093e-14
2.05247e-13
3.3803e-13
4.80668e-13
6.26873e-13
7.71477e-13
9.10019e-13
1.03859e-12
1.15381e-12
1.25279e-12
1.33318e-12
1.3932e-12
1.43154e-12
1.44752e-12
1.44108e-12
1.41255e-12
1.36278e-12
1.29313e-12
1.20538e-12
1.10173e-12
9.84725e-13
8.57269e-13
7.22582e-13
5.84211e-13
4.46085e-13
3.1267e-13
1.89391e-13
8.37788e-14
9.38698e-15
1.44418e-14
1.29136e-13
2.92203e-13
4.82206e-13
6.86706e-13
8.96538e-13
1.10417e-12
1.30312e-12
1.48771e-12
1.65306e-12
1.79502e-12
1.91021e-12
1.99607e-12
2.05075e-12
2.07327e-12
2.06364e-12
2.02229e-12
1.95051e-12
1.85025e-12
1.72409e-12
1.57519e-12
1.40723e-12
1.22439e-12
1.03129e-12
8.33044e-13
6.35329e-13
4.44613e-13
2.68758e-13
1.1859e-13
1.32563e-14
1.88395e-14
1.68643e-13
3.82142e-13
6.31457e-13
9.00222e-13
1.17626e-12
1.44954e-12
1.71142e-12
1.95435e-12
2.17184e-12
2.35841e-12
2.50962e-12
2.6221e-12
2.69344e-12
2.72238e-12
2.70902e-12
2.65394e-12
2.55887e-12
2.42645e-12
2.26008e-12
2.06396e-12
1.84296e-12
1.60257e-12
1.34892e-12
1.08873e-12
8.29518e-13
5.79822e-13
3.50003e-13
1.54212e-13
1.72193e-14
2.32468e-14
2.08217e-13
4.72229e-13
7.81002e-13
1.11426e-12
1.45682e-12
1.79609e-12
2.1212e-12
2.4227e-12
2.69247e-12
2.92365e-12
3.11073e-12
3.24954e-12
3.33711e-12
3.37198e-12
3.35431e-12
3.28492e-12
3.16601e-12
3.00089e-12
2.79388e-12
2.55021e-12
2.27595e-12
1.97796e-12
1.66383e-12
1.34195e-12
1.02163e-12
7.13463e-13
4.30259e-13
1.89398e-13
2.11356e-14
2.75412e-14
2.46767e-13
5.59975e-13
9.2667e-13
1.32279e-12
1.7302e-12
2.13379e-12
2.5205e-12
2.87898e-12
3.19946e-12
3.47378e-12
3.69536e-12
3.85926e-12
3.962e-12
4.00194e-12
3.9794e-12
3.89542e-12
3.75271e-12
3.5553e-12
3.30841e-12
3.01831e-12
2.69227e-12
2.33845e-12
1.96591e-12
1.5846e-12
1.20555e-12
8.41328e-13
5.0702e-13
2.23049e-13
2.48821e-14
3.1613e-14
2.83312e-13
6.43145e-13
1.06473e-12
1.52041e-12
1.98925e-12
2.45372e-12
2.89865e-12
3.31086e-12
3.67902e-12
3.99368e-12
4.24728e-12
4.43419e-12
4.55045e-12
4.59434e-12
4.56637e-12
4.4678e-12
4.30193e-12
4.07348e-12
3.78857e-12
3.45448e-12
3.07963e-12
2.67342e-12
2.24626e-12
1.80955e-12
1.37593e-12
9.59704e-13
5.78063e-13
2.54192e-13
2.835e-14
3.53632e-14
3.16967e-13
7.19724e-13
1.19182e-12
1.70229e-12
2.22758e-12
2.7479e-12
3.24613e-12
3.70735e-12
4.1188e-12
4.46983e-12
4.75203e-12
4.95915e-12
5.0868e-12
5.1333e-12
5.09934e-12
4.98651e-12
4.79864e-12
4.5412e-12
4.22111e-12
3.84666e-12
3.4273e-12
2.97358e-12
2.49712e-12
2.01061e-12
1.52806e-12
1.06534e-12
6.4144e-13
2.81972e-13
3.14438e-14
3.87033e-14
3.46938e-13
7.87909e-13
1.30495e-12
1.86412e-12
2.43948e-12
3.00925e-12
3.55448e-12
4.05871e-12
4.50787e-12
4.89032e-12
5.19686e-12
5.42076e-12
5.55729e-12
5.60491e-12
5.56452e-12
5.43805e-12
5.22988e-12
4.94617e-12
4.59467e-12
4.18451e-12
3.72611e-12
3.23101e-12
2.71187e-12
2.18246e-12
1.65795e-12
1.15546e-12
6.95486e-13
3.05658e-13
3.40819e-14
4.15555e-14
3.72529e-13
8.46118e-13
1.40149e-12
2.00211e-12
2.61999e-12
3.23155e-12
3.8163e-12
4.35643e-12
4.83677e-12
5.24482e-12
5.57079e-12
5.80757e-12
5.95019e-12
5.99737e-12
5.95023e-12
5.81106e-12
5.58479e-12
5.27822e-12
4.89982e-12
4.45951e-12
3.96852e-12
3.43922e-12
2.8851e-12
2.32078e-12
1.76232e-12
1.22779e-12
7.38836e-13
3.24651e-13
3.61975e-14
4.38535e-14
3.93145e-13
8.92996e-13
1.47918e-12
2.11302e-12
2.76483e-12
3.40953e-12
4.02533e-12
4.59333e-12
5.09749e-12
5.52467e-12
5.86464e-12
6.11007e-12
6.25586e-12
6.30109e-12
6.24705e-12
6.09646e-12
5.85475e-12
5.5293e-12
5.12921e-12
4.66506e-12
4.14872e-12
3.59322e-12
3.01266e-12
2.42226e-12
1.83867e-12
1.2806e-12
7.70447e-13
3.38492e-13
3.77394e-14
4.55424e-14
4.08295e-13
9.27427e-13
1.53617e-12
2.19421e-12
2.87052e-12
3.53886e-12
4.17644e-12
4.76357e-12
5.2836e-12
5.72296e-12
6.07117e-12
6.32085e-12
6.46686e-12
6.50872e-12
6.4479e-12
6.28752e-12
6.03345e-12
5.69358e-12
5.27751e-12
4.79635e-12
4.26249e-12
3.68938e-12
3.09152e-12
2.48447e-12
1.88517e-12
1.31263e-12
7.8957e-13
3.46857e-13
3.86717e-14
4.65802e-14
4.17601e-13
9.48551e-13
1.57103e-12
2.24362e-12
2.93435e-12
3.6162e-12
4.26573e-12
4.86275e-12
5.39028e-12
5.83458e-12
6.18513e-12
6.43465e-12
6.57803e-12
6.61532e-12
6.54807e-12
6.37978e-12
6.11678e-12
5.76735e-12
5.34151e-12
4.8507e-12
4.3076e-12
3.72592e-12
3.1203e-12
2.50637e-12
1.90107e-12
1.32334e-12
7.95886e-13
3.49603e-13
3.89783e-14
4.69377e-14
4.20802e-13
9.55769e-13
1.58276e-12
2.25981e-12
2.95446e-12
3.63928e-12
4.29056e-12
4.88793e-12
5.41441e-12
5.85633e-12
6.20336e-12
6.44842e-12
6.58659e-12
6.61845e-12
6.5456e-12
6.37191e-12
6.10397e-12
5.75034e-12
5.32125e-12
4.82835e-12
4.28443e-12
3.70323e-12
3.09933e-12
2.48821e-12
1.88652e-12
1.31284e-12
7.89444e-13
3.46746e-13
3.86606e-14
4.66015e-14
4.17779e-13
9.48827e-13
1.57096e-12
2.24225e-12
2.93018e-12
3.60735e-12
4.25011e-12
4.83833e-12
5.35527e-12
5.78762e-12
6.12541e-12
6.36191e-12
6.49248e-12
6.5182e-12
6.44077e-12
6.26436e-12
5.99567e-12
5.64335e-12
5.21769e-12
4.73033e-12
4.19401e-12
3.62231e-12
3.02955e-12
2.4308e-12
1.84218e-12
1.2816e-12
7.7053e-13
3.38416e-13
3.77334e-14
4.55673e-14
4.08493e-13
9.2762e-13
1.53544e-12
2.1906e-12
2.86106e-12
3.51981e-12
4.14375e-12
4.7133e-12
5.21237e-12
5.62822e-12
5.95146e-12
6.17585e-12
6.29711e-12
6.31671e-12
6.2363e-12
6.06024e-12
5.79523e-12
5.44986e-12
5.03433e-12
4.56007e-12
4.03958e-12
3.4861e-12
2.91348e-12
2.33619e-12
1.76961e-12
1.23071e-12
7.39803e-13
3.24901e-13
3.62287e-14
4.38443e-14
3.93019e-13
8.92303e-13
1.47642e-12
2.10524e-12
2.74764e-12
3.37754e-12
3.97276e-12
4.51468e-12
4.98812e-12
5.3812e-12
5.68522e-12
5.89448e-12
6.00516e-12
6.01892e-12
5.93739e-12
5.76496e-12
5.5082e-12
5.17546e-12
4.77662e-12
4.32277e-12
3.82595e-12
3.29888e-12
2.7548e-12
2.20741e-12
1.67113e-12
1.16177e-12
6.98227e-13
3.06622e-13
3.41932e-14
4.14623e-14
3.71631e-13
8.43508e-13
1.39499e-12
1.98772e-12
2.59203e-12
3.18321e-12
3.74044e-12
4.24641e-12
4.68714e-12
5.05179e-12
5.33248e-12
5.52413e-12
5.62341e-12
5.63199e-12
5.55146e-12
5.38609e-12
5.14215e-12
4.82757e-12
4.45174e-12
4.02518e-12
3.55931e-12
3.06618e-12
2.55825e-12
2.0483e-12
1.54968e-12
1.07685e-12
6.47032e-13
2.84119e-13
3.1687e-14
3.84645e-14
3.4471e-13
7.82098e-13
1.29256e-12
1.84013e-12
2.39706e-12
2.94047e-12
3.45132e-12
3.91393e-12
4.31576e-12
4.64716e-12
4.90117e-12
5.07335e-12
5.16089e-12
5.16527e-12
5.08801e-12
4.93313e-12
4.70643e-12
4.41525e-12
4.06829e-12
3.67534e-12
3.24701e-12
2.79451e-12
2.32939e-12
1.86342e-12
1.40875e-12
9.7838e-13
5.87685e-13
2.58032e-13
2.87817e-14
3.49094e-14
3.1278e-13
7.09256e-13
1.17113e-12
1.66534e-12
2.16661e-12
2.65433e-12
3.11156e-12
3.52456e-12
3.88239e-12
4.17671e-12
4.4015e-12
4.55294e-12
4.6288e-12
4.63012e-12
4.55842e-12
4.41728e-12
4.2119e-12
3.94888e-12
3.63606e-12
3.2823e-12
2.89726e-12
2.49114e-12
2.07445e-12
1.65786e-12
1.25225e-12
8.69104e-13
5.21838e-13
2.29088e-13
2.55578e-14
3.08718e-14
2.76509e-13
6.26501e-13
1.03322e-12
1.4671e-12
1.90577e-12
2.33128e-12
2.72913e-12
3.08765e-12
3.39764e-12
3.65208e-12
3.84593e-12
3.97594e-12
4.04042e-12
4.0399e-12
3.97587e-12
3.85134e-12
3.67081e-12
3.44001e-12
3.16579e-12
2.85592e-12
2.51893e-12
2.16388e-12
1.80011e-12
1.4371e-12
1.08441e-12
7.52001e-13
4.51291e-13
1.98076e-13
2.21036e-14
2.64441e-14
2.36723e-13
5.35717e-13
8.8204e-13
1.25011e-12
1.62091e-12
1.97947e-12
2.3139e-12
2.61469e-12
2.87439e-12
3.0873e-12
3.24928e-12
3.35767e-12
3.41116e-12
3.4099e-12
3.35534e-12
3.24965e-12
3.0967e-12
2.90126e-12
2.66906e-12
2.40667e-12
2.12137e-12
1.82091e-12
1.51335e-12
1.20686e-12
9.09666e-13
6.3021e-13
3.77952e-13
1.6584e-13
1.85131e-14
2.17381e-14
1.94422e-13
4.39204e-13
7.21501e-13
1.02019e-12
1.31993e-12
1.60892e-12
1.8779e-12
2.11952e-12
2.328e-12
2.49887e-12
2.62889e-12
2.71589e-12
2.75881e-12
2.75764e-12
2.71373e-12
2.6283e-12
2.50463e-12
2.34649e-12
2.15845e-12
1.94582e-12
1.71448e-12
1.47078e-12
1.22136e-12
9.73027e-13
7.32587e-13
5.06981e-13
3.03809e-13
1.33261e-13
1.48846e-14
1.68889e-14
1.50819e-13
3.39778e-13
5.56454e-13
7.84537e-13
1.01254e-12
1.23182e-12
1.43563e-12
1.61863e-12
1.77656e-12
1.90612e-12
2.00483e-12
2.07104e-12
2.10387e-12
2.10325e-12
2.07035e-12
2.00561e-12
1.91167e-12
1.79133e-12
1.64802e-12
1.48575e-12
1.30898e-12
1.1226e-12
9.31735e-13
7.41702e-13
5.57865e-13
3.85655e-13
2.30915e-13
1.01259e-13
1.13213e-14
1.20639e-14
1.07412e-13
2.40962e-13
3.92988e-13
5.52155e-13
7.10737e-13
8.63005e-13
1.00448e-12
1.13157e-12
1.24137e-12
1.33159e-12
1.40051e-12
1.44692e-12
1.47017e-12
1.47014e-12
1.4478e-12
1.40305e-12
1.33787e-12
1.25415e-12
1.15426e-12
1.04094e-12
9.17306e-13
7.86757e-13
6.52915e-13
5.19551e-13
3.90522e-13
2.69757e-13
1.61427e-13
7.07999e-14
7.93193e-15
7.48454e-15
6.61492e-14
1.47374e-13
2.39053e-13
3.34592e-13
4.29594e-13
5.20783e-13
6.05567e-13
6.81826e-13
7.47826e-13
8.02177e-13
8.43814e-13
8.71994e-13
8.86292e-13
8.86596e-13
8.73585e-13
8.46973e-13
8.08013e-13
7.5784e-13
6.97844e-13
6.29664e-13
5.55154e-13
4.76352e-13
3.95443e-13
3.14718e-13
2.36548e-13
1.6337e-13
9.77731e-14
4.29521e-14
4.84029e-15
3.48198e-15
2.98148e-14
6.56496e-14
1.05803e-13
1.47554e-13
1.89069e-13
2.28958e-13
2.66097e-13
2.99554e-13
3.2856e-13
3.52494e-13
3.70879e-13
3.83378e-13
3.89793e-13
3.90061e-13
3.84518e-13
3.72954e-13
3.55946e-13
3.33994e-13
3.07702e-13
2.77781e-13
2.45041e-13
2.10371e-13
1.74727e-13
1.3912e-13
1.04603e-13
7.22755e-14
4.33063e-14
1.91145e-14
2.21876e-15
7.04132e-16
3.47916e-15
7.41572e-15
1.18565e-14
1.64854e-14
2.10948e-14
2.55287e-14
2.96609e-14
3.33866e-14
3.66194e-14
3.92892e-14
4.13422e-14
4.27404e-14
4.34614e-14
4.34971e-14
4.28892e-14
4.16101e-14
3.97238e-14
3.72862e-14
3.43641e-14
3.10365e-14
2.73935e-14
2.35342e-14
1.95649e-14
1.55983e-14
1.17521e-14
8.14908e-15
4.9231e-15
2.24655e-15
4.51738e-16
)
;

boundaryField
{
    movingWall
    {
        type            kqRWallFunction;
        value           nonuniform List<scalar> 
30
(
7.04132e-16
3.47916e-15
7.41572e-15
1.18565e-14
1.64854e-14
2.10948e-14
2.55287e-14
2.96609e-14
3.33866e-14
3.66194e-14
3.92892e-14
4.13422e-14
4.27404e-14
4.34614e-14
4.34971e-14
4.28892e-14
4.16101e-14
3.97238e-14
3.72862e-14
3.43641e-14
3.10365e-14
2.73935e-14
2.35342e-14
1.95649e-14
1.55983e-14
1.17521e-14
8.14908e-15
4.9231e-15
2.24655e-15
4.51738e-16
)
;
    }
    fixedWalls
    {
        type            kqRWallFunction;
        value           nonuniform List<scalar> 
90
(
5.8223e-16
2.89779e-15
6.2631e-15
1.01929e-14
1.44418e-14
1.88395e-14
2.32468e-14
2.75412e-14
3.1613e-14
3.53632e-14
3.87033e-14
4.15555e-14
4.38535e-14
4.55424e-14
4.65802e-14
4.69377e-14
4.66015e-14
4.55673e-14
4.38443e-14
4.14623e-14
3.84645e-14
3.49094e-14
3.08718e-14
2.64441e-14
2.17381e-14
1.68889e-14
1.20639e-14
7.48454e-15
3.48198e-15
7.04132e-16
5.38351e-16
2.67861e-15
5.78136e-15
9.38698e-15
1.32563e-14
1.72193e-14
2.11356e-14
2.48821e-14
2.835e-14
3.14438e-14
3.40819e-14
3.61975e-14
3.77394e-14
3.86717e-14
3.89783e-14
3.86606e-14
3.77334e-14
3.62287e-14
3.41932e-14
3.1687e-14
2.87817e-14
2.55578e-14
2.21036e-14
1.85131e-14
1.48846e-14
1.13213e-14
7.93193e-15
4.84029e-15
2.21876e-15
4.51738e-16
5.8223e-16
2.89677e-15
6.25208e-15
1.01514e-14
1.43369e-14
1.86263e-14
2.287e-14
2.69377e-14
3.07153e-14
3.41031e-14
3.70166e-14
3.93863e-14
4.11586e-14
4.22957e-14
4.27762e-14
4.25971e-14
4.17677e-14
4.03127e-14
3.82714e-14
3.56958e-14
3.26502e-14
2.92099e-14
2.54605e-14
2.14969e-14
1.74239e-14
1.3357e-14
9.42687e-15
5.792e-15
2.67962e-15
5.38351e-16
)
;
    }
    frontAndBack
    {
        type            empty;
    }
}


// ************************************************************************* //
