/*--------------------------------*- C++ -*----------------------------------*\
  =========                 |
  \\      /  F ield         | OpenFOAM: The Open Source CFD Toolbox
   \\    /   O peration     | Website:  https://openfoam.org
    \\  /    A nd           | Version:  12
     \\/     M anipulation  |
\*---------------------------------------------------------------------------*/
FoamFile
{
    format      ascii;
    class       volScalarField;
    location    "0.2";
    object      nut;
}
// * * * * * * * * * * * * * * * * * * * * * * * * * * * * * * * * * * * * * //

dimensions      [0 2 -1 0 0 0 0];

internalField   nonuniform List<scalar> 
900
(
2.63348e-21
1.31024e-20
2.82787e-20
4.59157e-20
6.4847e-20
8.42486e-20
1.03443e-19
1.21842e-19
1.38928e-19
1.54252e-19
1.67429e-19
1.78148e-19
1.86164e-19
1.91307e-19
1.93481e-19
1.9267e-19
1.88919e-19
1.82338e-19
1.73105e-19
1.61455e-19
1.4768e-19
1.32119e-19
1.1516e-19
9.72325e-20
7.88098e-20
6.04148e-20
4.26386e-20
2.61978e-20
1.21202e-20
2.43501e-21
1.3107e-20
1.22322e-18
4.06454e-18
7.33787e-18
1.07532e-17
1.41999e-17
1.7582e-17
2.08089e-17
2.3797e-17
2.6472e-17
2.87696e-17
3.0637e-17
3.20331e-17
3.29286e-17
3.3307e-17
3.31662e-17
3.25132e-17
3.13677e-17
2.97603e-17
2.77315e-17
2.53308e-17
2.26163e-17
1.9653e-17
1.65122e-17
1.32706e-17
1.00082e-17
6.80768e-18
3.76272e-18
1.13119e-18
1.21156e-20
2.83286e-20
4.06853e-18
2.01422e-17
4.40463e-17
7.04123e-17
9.70613e-17
1.2301e-16
1.47585e-16
1.70212e-16
1.90384e-16
2.07658e-16
2.21667e-16
2.32124e-16
2.38825e-16
2.41654e-16
2.40607e-16
2.35733e-16
2.27177e-16
2.15157e-16
1.99966e-16
1.81956e-16
1.61537e-16
1.39163e-16
1.15325e-16
9.05475e-17
6.54243e-17
4.08085e-17
1.86295e-17
3.75894e-18
2.61496e-20
4.61033e-20
7.36037e-18
4.41187e-17
1.12788e-16
1.98599e-16
2.89693e-16
3.79734e-16
4.65207e-16
5.43772e-16
6.13626e-16
6.73297e-16
7.21594e-16
7.576e-16
7.80663e-16
7.90423e-16
7.86897e-16
7.7025e-16
7.40959e-16
6.99751e-16
6.47583e-16
5.85615e-16
5.15194e-16
4.37843e-16
3.55306e-16
2.69723e-16
1.84201e-16
1.04331e-16
4.07402e-17
6.78626e-18
4.24582e-20
6.53214e-20
1.08202e-17
7.07271e-17
1.99121e-16
3.78548e-16
5.82293e-16
7.90718e-16
9.9171e-16
1.17764e-15
1.3433e-15
1.48483e-15
1.59934e-15
1.68467e-15
1.73932e-15
1.7625e-15
1.75432e-15
1.71514e-15
1.64611e-15
1.5489e-15
1.42576e-15
1.27943e-15
1.11322e-15
9.31064e-16
7.37939e-16
5.40735e-16
3.50192e-16
1.83709e-16
6.51263e-17
9.94425e-18
5.99593e-20
8.5213e-20
1.43474e-17
9.78862e-17
2.91566e-16
5.84496e-16
9.37821e-16
1.31358e-15
1.68422e-15
2.03138e-15
2.34273e-15
2.60959e-15
2.82579e-15
2.98699e-15
3.09024e-15
3.13403e-15
3.11864e-15
3.04481e-15
2.91472e-15
2.73165e-15
2.49999e-15
2.22526e-15
1.91431e-15
1.57585e-15
1.22146e-15
8.67642e-16
5.38657e-16
2.67954e-16
8.97645e-17
1.31295e-17
7.78846e-20
1.05147e-19
1.78543e-17
1.24684e-16
3.84107e-16
7.97671e-16
1.32013e-15
1.89528e-15
2.476e-15
3.02799e-15
3.52733e-15
3.95747e-15
4.30687e-15
4.56765e-15
4.73465e-15
4.80523e-15
4.77994e-15
4.66002e-15
4.44922e-15
4.15319e-15
3.77958e-15
3.33822e-15
2.84165e-15
2.30622e-15
1.75394e-15
1.21528e-15
7.31365e-16
3.51164e-16
1.13733e-16
1.62516e-17
9.55983e-20
1.24572e-19
2.12563e-17
1.50496e-16
4.73438e-16
1.00655e-15
1.70308e-15
2.49131e-15
3.30356e-15
4.08652e-15
4.80135e-15
5.42061e-15
5.92519e-15
6.3022e-15
6.54332e-15
6.64443e-15
6.60645e-15
6.43134e-15
6.12493e-15
5.69612e-15
5.15699e-15
4.52328e-15
3.81532e-15
3.0597e-15
2.29172e-15
1.55799e-15
9.16999e-16
4.30034e-16
1.3639e-16
1.92242e-17
1.12544e-19
1.42989e-19
2.44733e-17
1.74773e-16
5.57308e-16
1.20382e-15
2.06901e-15
3.0689e-15
4.11641e-15
5.13839e-15
6.07918e-15
6.89843e-15
7.56785e-15
8.06839e-15
8.3878e-15
8.5202e-15
8.4669e-15
8.23078e-15
7.82034e-15
7.24845e-15
6.53266e-15
5.69592e-15
4.76786e-15
3.78688e-15
2.80281e-15
1.87858e-15
1.08836e-15
5.02331e-16
1.57187e-16
2.19677e-17
1.2823e-19
1.59951e-19
2.74312e-17
1.97007e-16
6.33907e-16
1.38428e-15
2.40564e-15
3.60457e-15
4.87672e-15
6.1299e-15
7.29135e-15
8.30711e-15
9.13888e-15
9.7608e-15
1.01563e-14
1.03177e-14
1.02466e-14
9.94733e-15
9.43125e-15
8.71581e-15
7.82469e-15
6.78869e-15
5.64739e-15
4.45138e-15
3.26471e-15
2.16537e-15
1.24046e-15
5.66315e-16
1.75632e-16
2.44103e-17
1.42223e-19
1.75059e-19
3.00628e-17
2.16732e-16
7.01667e-16
1.54383e-15
2.70389e-15
4.08112e-15
5.55636e-15
7.02024e-15
8.38396e-15
9.58036e-15
1.05613e-14
1.12941e-14
1.17578e-14
1.19432e-14
1.18526e-14
1.14914e-14
1.08745e-14
1.0024e-14
8.96983e-15
7.7507e-15
6.41581e-15
5.02719e-15
3.66164e-15
2.41007e-15
1.3696e-15
6.20559e-16
1.91297e-16
2.64901e-17
1.54156e-19
1.8796e-19
3.23084e-17
2.33527e-16
7.59202e-16
1.67906e-15
2.95665e-15
4.48546e-15
6.13411e-15
7.77854e-15
9.31588e-15
1.06672e-14
1.17754e-14
1.26018e-14
1.31214e-14
1.3324e-14
1.32126e-14
1.27941e-14
1.20868e-14
1.11172e-14
9.92129e-15
8.54491e-15
7.04585e-15
5.49597e-15
3.98251e-15
2.60672e-15
1.47295e-15
6.63909e-16
2.03825e-16
2.81561e-17
1.63725e-19
1.98353e-19
3.41167e-17
2.47026e-16
8.05309e-16
1.78711e-15
3.15819e-15
4.80744e-15
6.5938e-15
8.38144e-15
1.00561e-14
1.15291e-14
1.27362e-14
1.36339e-14
1.41939e-14
1.44058e-14
1.42732e-14
1.38048e-14
1.30219e-14
1.19553e-14
1.06459e-14
9.14546e-15
7.51874e-15
5.84518e-15
4.21976e-15
2.75117e-15
1.54848e-15
6.9549e-16
2.12944e-16
2.9369e-17
1.70699e-19
2.05993e-19
3.54453e-17
2.56923e-16
8.38978e-16
1.86563e-15
3.30393e-15
5.03915e-15
6.92317e-15
8.81149e-15
1.05815e-14
1.21379e-14
1.3411e-14
1.43542e-14
1.49369e-14
1.51498e-14
1.49967e-14
1.44883e-14
1.36484e-14
1.25112e-14
1.11214e-14
9.53517e-15
7.82207e-15
6.06653e-15
4.36834e-15
2.84059e-15
1.59475e-15
7.14675e-16
2.18455e-16
3.01009e-17
1.74916e-19
2.10686e-19
3.62612e-17
2.62979e-16
8.59413e-16
1.91275e-15
3.3903e-15
5.17467e-15
7.11322e-15
9.05622e-15
1.08763e-14
1.2474e-14
1.37775e-14
1.47388e-14
1.53258e-14
1.55313e-14
1.53593e-14
1.48224e-14
1.39465e-14
1.27682e-14
1.13346e-14
9.70436e-15
7.94929e-15
6.15599e-15
4.42603e-15
2.87385e-15
1.61122e-15
7.2123e-16
2.20282e-16
3.03399e-17
1.76302e-19
2.12304e-19
3.65417e-17
2.65023e-16
8.66044e-16
1.92716e-15
3.41481e-15
5.20992e-15
7.15801e-15
9.10766e-15
1.09303e-14
1.25262e-14
1.38233e-14
1.47743e-14
1.53475e-14
1.55383e-14
1.53509e-14
1.47993e-14
1.3911e-14
1.27234e-14
1.12845e-14
9.65326e-15
7.90134e-15
6.11472e-15
4.39384e-15
2.85163e-15
1.59823e-15
7.15275e-16
2.18448e-16
3.0088e-17
1.74865e-19
2.10783e-19
3.62765e-17
2.62984e-16
8.58624e-16
1.9083e-15
3.37651e-15
5.14361e-15
7.05593e-15
8.96403e-15
1.07419e-14
1.22926e-14
1.35468e-14
1.44599e-14
1.50018e-14
1.5171e-14
1.49719e-14
1.44204e-14
1.35437e-14
1.23791e-14
1.09736e-14
9.38439e-15
7.68058e-15
5.94475e-15
4.27338e-15
2.77503e-15
1.55642e-15
6.97091e-16
2.13039e-16
2.93567e-17
1.70672e-19
2.06105e-19
3.54616e-17
2.56817e-16
8.36971e-16
1.85568e-15
3.27444e-15
4.97426e-15
6.8052e-15
8.62365e-15
1.03101e-14
1.17737e-14
1.29506e-14
1.38005e-14
1.42964e-14
1.44396e-14
1.4235e-14
1.36988e-14
1.2858e-14
1.17481e-14
1.04135e-14
8.90772e-15
7.29509e-15
5.6522e-15
4.06889e-15
2.64671e-15
1.48723e-15
6.6731e-16
2.04242e-16
2.81712e-17
1.63866e-19
1.98312e-19
3.41025e-17
2.46553e-16
8.01153e-16
1.76949e-15
3.10923e-15
4.70356e-15
6.40941e-15
8.09292e-15
9.64474e-15
1.09832e-14
1.2052e-14
1.28166e-14
1.32544e-14
1.33688e-14
1.31652e-14
1.26597e-14
1.18777e-14
1.08522e-14
9.62328e-15
8.2392e-15
6.75735e-15
5.24617e-15
3.78652e-15
2.47044e-15
1.3927e-15
6.26823e-16
1.92326e-16
2.65684e-17
1.54659e-19
1.87538e-19
3.22227e-17
2.32354e-16
7.51689e-16
1.65096e-15
2.88351e-15
4.33636e-15
5.87681e-15
7.38446e-15
8.76348e-15
9.94399e-15
1.0879e-14
1.15407e-14
1.19115e-14
1.19963e-14
1.18008e-14
1.13406e-14
1.06385e-14
9.7234e-15
8.63047e-15
7.40113e-15
6.08444e-15
4.73888e-15
3.43423e-15
2.25103e-15
1.27538e-15
5.76744e-16
1.77631e-16
2.4595e-17
1.43323e-19
1.73979e-19
2.98544e-17
2.14438e-16
6.89275e-16
1.50179e-15
2.60099e-15
3.8799e-15
5.21984e-15
6.51738e-15
7.69296e-15
8.69036e-15
9.47295e-15
1.00199e-14
1.03191e-14
1.03758e-14
1.0196e-14
9.79367e-15
9.18852e-15
8.40487e-15
7.47175e-15
6.42308e-15
5.29866e-15
4.14592e-15
3.02199e-15
1.99429e-15
1.13826e-15
5.18372e-16
1.60558e-16
2.23068e-17
1.30182e-19
1.57899e-19
2.70417e-17
1.93104e-16
6.14886e-16
1.32451e-15
2.26732e-15
3.34528e-15
4.45736e-15
5.52007e-15
6.47195e-15
7.27123e-15
7.89174e-15
8.31928e-15
8.5469e-15
8.57917e-15
8.42215e-15
8.08765e-15
7.59149e-15
6.95303e-15
6.19493e-15
5.34339e-15
4.42877e-15
3.48707e-15
2.56211e-15
1.7072e-15
9.84726e-16
4.53141e-16
1.41547e-16
1.9766e-17
1.156e-19
1.39636e-19
2.38402e-17
1.6873e-16
5.29808e-16
1.12269e-15
1.89085e-15
2.74896e-15
3.61704e-15
4.43334e-15
5.15488e-15
5.75379e-15
6.2134e-15
6.52519e-15
6.68615e-15
6.69966e-15
6.57136e-15
6.31027e-15
5.9283e-15
5.43974e-15
4.86113e-15
4.21131e-15
3.51185e-15
2.78794e-15
2.07041e-15
1.39809e-15
8.18682e-16
3.82594e-16
1.21069e-16
1.70403e-17
9.99767e-20
1.19609e-19
2.0318e-17
1.41776e-16
4.3573e-16
9.01524e-16
1.48412e-15
2.11549e-15
2.73894e-15
3.31436e-15
3.81567e-15
4.22682e-15
4.53867e-15
4.74688e-15
4.85065e-15
4.85228e-15
4.75636e-15
4.56866e-15
4.29766e-15
3.95306e-15
3.54596e-15
3.08881e-15
2.5955e-15
2.08197e-15
1.56767e-15
1.07775e-15
6.44816e-16
3.08399e-16
9.96051e-17
1.42006e-17
8.37364e-20
9.83235e-20
1.65558e-17
1.12799e-16
3.35052e-16
6.68929e-16
1.06664e-15
1.4814e-15
1.87965e-15
2.24003e-15
2.54958e-15
2.80073e-15
2.98929e-15
3.1134e-15
3.17301e-15
3.16955e-15
3.10617e-15
2.98576e-15
2.81378e-15
2.59601e-15
2.33911e-15
2.05049e-15
1.73836e-15
1.41194e-15
1.08183e-15
7.61351e-16
4.69463e-16
2.32497e-16
7.76436e-17
1.13195e-17
6.73246e-20
7.639e-20
1.26472e-17
8.25085e-17
2.31621e-16
4.38185e-16
6.68859e-16
8.98943e-16
1.1137e-15
1.30474e-15
1.4672e-15
1.59808e-15
1.69571e-15
1.75933e-15
1.78896e-15
1.78528e-15
1.75008e-15
1.68433e-15
1.59109e-15
1.47328e-15
1.33434e-15
1.1781e-15
1.00876e-15
8.3083e-16
6.49316e-16
4.70276e-16
3.02086e-16
1.57641e-16
5.57018e-17
8.46929e-18
5.12071e-20
5.45661e-20
8.70043e-18
5.20444e-17
1.32612e-16
2.31907e-16
3.348e-16
4.33377e-16
5.23563e-16
6.03038e-16
6.70355e-16
7.24569e-16
7.65046e-16
7.91429e-16
8.03628e-16
8.01812e-16
7.86783e-16
7.58604e-16
7.18677e-16
6.68157e-16
6.08468e-16
5.41223e-16
4.68186e-16
3.91233e-16
3.12326e-16
2.33577e-16
1.57589e-16
8.86067e-17
3.44936e-17
5.71888e-18
3.58769e-20
3.38533e-20
4.8537e-18
2.39859e-17
5.21305e-17
8.24531e-17
1.12148e-16
1.40025e-16
1.6544e-16
1.87925e-16
2.07102e-16
2.22669e-16
2.34398e-16
2.42137e-16
2.45815e-16
2.45437e-16
2.41231e-16
2.33131e-16
2.21554e-16
2.06823e-16
1.89343e-16
1.69586e-16
1.48074e-16
1.25366e-16
1.02043e-16
7.86951e-17
5.59141e-17
3.4404e-17
1.55849e-17
3.1388e-18
2.18931e-20
1.57493e-20
1.46899e-18
4.85204e-18
8.65912e-18
1.25032e-17
1.62529e-17
1.98133e-17
2.31017e-17
2.60461e-17
2.85853e-17
3.06694e-17
3.22597e-17
3.33294e-17
3.38633e-17
3.38571e-17
3.33401e-17
3.22952e-17
3.0777e-17
2.88286e-17
2.65035e-17
2.38642e-17
2.09814e-17
1.79321e-17
1.47985e-17
1.16658e-17
8.61968e-18
5.74304e-18
3.11653e-18
9.27262e-19
1.00357e-20
3.18486e-21
1.57366e-20
3.3542e-20
5.36282e-20
7.45652e-20
9.54139e-20
1.15469e-19
1.34159e-19
1.51011e-19
1.65633e-19
1.77709e-19
1.86995e-19
1.93319e-19
1.9658e-19
1.96742e-19
1.93992e-19
1.88206e-19
1.79675e-19
1.68649e-19
1.55432e-19
1.40381e-19
1.23904e-19
1.06447e-19
8.84939e-20
7.05528e-20
5.31557e-20
3.6859e-20
2.22677e-20
1.01614e-20
2.04325e-21
)
;

boundaryField
{
    movingWall
    {
        type            nutkWallFunction;
        Cmu             0.09;
        kappa           0.41;
        E               9.8;
        value           uniform 0;
    }
    fixedWalls
    {
        type            nutkWallFunction;
        Cmu             0.09;
        kappa           0.41;
        E               9.8;
        value           uniform 0;
    }
    frontAndBack
    {
        type            empty;
    }
}


// ************************************************************************* //
