/*--------------------------------*- C++ -*----------------------------------*\
  =========                 |
  \\      /  F ield         | OpenFOAM: The Open Source CFD Toolbox
   \\    /   O peration     | Website:  https://openfoam.org
    \\  /    A nd           | Version:  12
     \\/     M anipulation  |
\*---------------------------------------------------------------------------*/
FoamFile
{
    format      ascii;
    class       volScalarField;
    location    "0.2";
    object      p;
}
// * * * * * * * * * * * * * * * * * * * * * * * * * * * * * * * * * * * * * //

dimensions      [0 2 -2 0 0 0 0];

internalField   nonuniform List<scalar> 
900
(
-1.19078e-08
-0.0059735
-0.0162021
-0.0279327
-0.0385436
-0.0462564
-0.0499527
-0.0490151
-0.0432245
-0.0326783
-0.017723
0.00109933
0.0230952
0.0474558
0.0732919
0.0996625
0.125598
0.150137
0.172356
0.191404
0.206542
0.21719
0.222981
0.223815
0.219936
0.212004
0.201193
0.189336
0.179091
0.173169
0.0059088
-0.000116409
-0.00905095
-0.0187446
-0.0273319
-0.0334276
-0.0360987
-0.0348044
-0.0293325
-0.0197419
-0.0063117
0.0105014
0.0301009
0.0517821
0.0747657
0.0982207
0.121292
0.143132
0.162931
0.179946
0.193541
0.203227
0.208704
0.209913
0.207085
0.200798
0.192034
0.182228
0.173282
0.167316
0.0162706
0.00868675
-0.000497711
-0.00926566
-0.0165991
-0.0215908
-0.0235429
-0.0220333
-0.0168948
-0.00817827
0.00388019
0.018891
0.0363401
0.0556163
0.0760389
0.0968788
0.117387
0.136819
0.154465
0.169677
0.181904
0.190722
0.195876
0.197313
0.195216
0.190041
0.182533
0.173651
0.164459
0.156951
0.0287122
0.0185349
0.00764367
-0.00159773
-0.00883684
-0.0135769
-0.0153404
-0.0138406
-0.00898629
-0.000858206
0.0103127
0.0241663
0.0402354
0.0579675
0.0767465
0.0959133
0.114789
0.132698
0.148993
0.163081
0.174453
0.182712
0.187603
0.18904
0.187129
0.182192
0.174755
0.165375
0.154468
0.144375
0.0409941
0.0278275
0.0145452
0.00407243
-0.0037458
-0.00874444
-0.0106354
-0.00926312
-0.00462465
0.00315005
0.0138114
0.027004
0.0422823
0.059127
0.0769627
0.0951749
0.113129
0.130193
0.145753
0.159244
0.17017
0.178131
0.182847
0.184176
0.182134
0.176913
0.168856
0.158201
0.144875
0.131787
0.0515785
0.0353046
0.01934
0.0072505
-0.00151055
-0.00704208
-0.00921258
-0.00798603
-0.00344869
0.00421033
0.0147084
0.0276776
0.0426757
0.059198
0.0766903
0.0945632
0.112207
0.12901
0.144375
0.15774
0.168602
0.176536
0.181219
0.18244
0.180124
0.174342
0.165291
0.152957
0.136896
0.120674
0.0593585
0.0399548
0.0211805
0.00727574
-0.00261645
-0.00880645
-0.0112911
-0.0101411
-0.00553012
0.00228816
0.0129878
0.0261755
0.0413974
0.0581481
0.0758789
0.094009
0.111937
0.129054
0.14476
0.15848
0.169686
0.177911
0.182772
0.183985
0.181378
0.174916
0.164673
0.150443
0.131493
0.112085
0.0634579
0.0409211
0.0192834
0.00347914
-0.00760797
-0.0144645
-0.0171955
-0.0159692
-0.0110451
-0.00274572
0.0085518
0.0224183
0.038377
0.0559091
0.0744586
0.0934402
0.112247
0.130259
0.146859
0.161444
0.173443
0.182334
0.187665
0.189064
0.186263
0.179126
0.167627
0.151397
0.12947
0.106838
0.0631085
0.0374185
0.0128924
-0.00482063
-0.0170709
-0.0245027
-0.027319
-0.0257813
-0.0202365
-0.0110807
0.00125052
0.0162836
0.0335097
0.0523871
0.0723432
0.092778
0.113068
0.132574
0.150648
0.166646
0.179941
0.189945
0.196118
0.197996
0.195205
0.187511
0.17479
0.156535
0.131568
0.105646
0.0575621
0.0286661
0.00123197
-0.0183477
-0.0316521
-0.0394797
-0.042131
-0.0399638
-0.0334177
-0.0229694
-0.00912057
0.00760351
0.0266548
0.0474621
0.0694295
0.0919363
0.114337
0.135962
0.156128
0.174137
0.189298
0.200939
0.208424
0.211176
0.208707
0.200673
0.186855
0.166603
0.138534
0.109213
0.0460239
0.0138315
-0.0165342
-0.0378962
-0.0520741
-0.0600315
-0.0621757
-0.0589718
-0.0509632
-0.0387173
-0.0228102
-0.00382582
0.0176433
0.0409927
0.0656004
0.0908224
0.115988
0.140396
0.163318
0.184
0.201673
0.215568
0.224936
0.229072
0.227352
0.219304
0.204597
0.182426
0.151185
0.11831
0.0275981
-0.00801828
-0.041342
-0.0643571
-0.0791506
-0.0868759
-0.0880682
-0.0833198
-0.0732954
-0.0586669
-0.0400954
-0.0182296
0.00629034
0.0328258
0.06073
0.0893375
0.117954
0.145848
0.172246
0.196331
0.21725
0.234124
0.24607
0.25223
0.251817
0.244201
0.228912
0.204954
0.170467
0.133838
0.00123966
-0.0379637
-0.0742687
-0.0987498
-0.113805
-0.12082
-0.120492
-0.11357
-0.100868
-0.0831792
-0.061262
-0.0358357
-0.00758888
0.0228092
0.054693
0.0873823
0.120167
0.152291
0.182941
0.211238
0.236235
0.256931
0.272291
0.281271
0.282883
0.276294
0.260849
0.235312
0.197512
0.156888
-0.0342978
-0.0772853
-0.116579
-0.142256
-0.157093
-0.162767
-0.160191
-0.150319
-0.134144
-0.112609
-0.0865791
-0.0568505
-0.0241571
0.0108096
0.0473771
0.0848635
0.122557
0.159691
0.195425
0.228819
0.258834
0.284337
0.304112
0.316897
0.321448
0.316672
0.30166
0.274856
0.233702
0.188806
-0.0805246
-0.127527
-0.169783
-0.196264
-0.21022
-0.213718
-0.207963
-0.194173
-0.173569
-0.147269
-0.116264
-0.081426
-0.0435267
-0.00326514
0.0386997
0.0817027
0.125053
0.168006
0.209703
0.249158
0.285247
0.316694
0.342082
0.359885
0.368542
0.366616
0.352844
0.325241
0.280745
0.231269
-0.139302
-0.190586
-0.235711
-0.262416
-0.274572
-0.274776
-0.264633
-0.245712
-0.219521
-0.187387
-0.150437
-0.109616
-0.0657206
-0.019433
0.02863
0.077859
0.12762
0.1772
0.225761
0.272306
0.315637
0.354336
0.386763
0.411082
0.425335
0.42763
0.416218
0.388513
0.340778
0.286395
-0.21297
-0.268832
-0.316618
-0.342679
-0.351737
-0.347129
-0.331019
-0.30544
-0.272254
-0.233036
-0.189056
-0.14132
-0.0906189
-0.0375804
0.0172524
0.073362
0.130218
0.187201
0.243539
0.298255
0.350105
0.397546
0.438705
0.471384
0.49314
0.501483
0.493986
0.467221
0.416511
0.356886
-0.304551
-0.365302
-0.415328
-0.439422
-0.443524
-0.432025
-0.407869
-0.373697
-0.33181
-0.284056
-0.231846
-0.176214
-0.117906
-0.057458
0.00471332
0.0682683
0.132837
0.197939
0.262929
0.326909
0.388646
0.446505
0.498385
0.541694
0.573397
0.590232
0.588839
0.56458
0.511429
0.446252
-0.418069
-0.48398
-0.535438
-0.555521
-0.551969
-0.530705
-0.495758
-0.450547
-0.397896
-0.33994
-0.278198
-0.213685
-0.147036
-0.0786236
-0.0086442
0.062787
0.135526
0.209324
0.28374
0.358039
0.431081
0.501205
0.566125
0.62284
0.667631
0.696251
0.704063
0.684689
0.630103
0.559167
-0.559092
-0.630243
-0.681612
-0.694469
-0.679299
-0.644283
-0.594922
-0.535604
-0.46973
-0.399698
-0.327062
-0.252726
-0.177116
-0.100337
-0.0222909
0.0572147
0.138359
0.221217
0.305657
0.391217
0.476965
0.561336
0.641951
0.715443
0.777346
0.822199
0.843662
0.832833
0.778652
0.702033
-0.735639
-0.811558
-0.859971
-0.86048
-0.827834
-0.773519
-0.705001
-0.627786
-0.545831
-0.461695
-0.376824
-0.291858
-0.206879
-0.121604
-0.0355307
0.0519425
0.141417
0.233398
0.32818
0.425718
0.525457
0.626107
0.725382
0.819686
0.903836
0.970929
1.01247
1.01589
0.965466
0.883927
-0.959745
-1.03856
-1.07859
-1.05848
-0.999745
-0.918435
-0.824645
-0.724982
-0.623767
-0.523476
-0.425198
-0.32908
-0.23467
-0.141148
-0.0474842
0.047442
0.144756
0.2455
0.350533
0.460401
0.575137
0.694
0.815101
0.934927
1.0478
1.14521
1.21616
1.24286
1.20232
1.11822
-1.25033
-1.32683
-1.34806
-1.29389
-1.19636
-1.07769
-0.950958
-0.823617
-0.69985
-0.581585
-0.469137
-0.361839
-0.258457
-0.157458
-0.0571565
0.0441899
0.148321
0.256923
0.371556
0.49354
0.623774
0.76243
0.908484
1.05904
1.2085
1.34725
1.46101
1.52543
1.50616
1.42552
-1.63882
-1.69979
-1.68204
-1.57192
-1.41687
-1.24747
-1.07879
-0.918129
-0.76882
-0.631417
-0.504817
-0.387088
-0.275927
-0.168901
-0.0635528
0.0425561
0.151846
0.266723
0.389559
0.522647
0.668049
0.827322
1.00099
1.18765
1.38274
1.57706
1.75289
1.87836
1.90202
1.83937
-2.17913
-2.19276
-2.09718
-1.8955
-1.65699
-1.41998
-1.1992
-1.00015
-0.823539
-0.667196
-0.527742
-0.401461
-0.284679
-0.173907
-0.0658458
0.0426637
0.154731
0.273503
0.40223
0.544322
0.703311
0.882669
1.08536
1.31288
1.5637
1.83086
2.09604
2.31883
2.42688
2.4163
-2.95752
-2.85514
-2.61061
-2.26256
-1.90548
-1.58065
-1.29842
-1.0583
-0.855138
-0.682303
-0.533154
-0.40167
-0.282575
-0.171253
-0.0635838
0.0442506
0.155973
0.275412
0.406659
0.554297
0.723548
0.920319
1.15103
1.42195
1.7376
2.09761
2.48926
2.86678
3.13223
3.24554
-4.10955
-3.75133
-3.22914
-2.65346
-2.13503
-1.70415
-1.35629
-1.07755
-0.853042
-0.669601
-0.516426
-0.384878
-0.268049
-0.160304
-0.0568623
0.0465634
0.154114
0.270142
0.399376
0.547456
0.721296
0.929534
1.18296
1.49465
1.87934
2.35068
2.91191
3.52842
4.08373
4.46463
-6.02935
-4.99862
-3.90633
-2.99006
-2.27813
-1.74013
-1.33766
-1.03462
-0.802327
-0.619808
-0.471991
-0.347955
-0.239604
-0.140709
-0.046215
0.0482631
0.146951
0.254418
0.375566
0.516667
0.685868
0.894168
1.15678
1.49489
1.93753
2.52135
3.28521
4.2568
5.40053
6.47205
-10.1524
-6.84808
-4.49176
-3.10238
-2.21184
-1.60817
-1.19236
-0.899072
-0.684824
-0.522182
-0.393628
-0.2875
-0.195677
-0.112196
-0.0323941
0.0476115
0.131856
0.224359
0.32955
0.453519
0.60446
0.794141
1.0403
1.37079
1.82986
2.48456
3.43679
4.90127
7.33972
10.7156
-17.7771
-9.30084
-4.95576
-3.03603
-1.99912
-1.37039
-0.976461
-0.718264
-0.538817
-0.406855
-0.304504
-0.220784
-0.148485
-0.0825266
-0.0190543
0.0449782
0.113176
0.188656
0.274957
0.377337
0.503093
0.663256
0.875845
1.17241
1.61065
2.29272
3.40056
5.41834
9.87753
18.4522
)
;

boundaryField
{
    movingWall
    {
        type            zeroGradient;
    }
    fixedWalls
    {
        type            zeroGradient;
    }
    frontAndBack
    {
        type            empty;
    }
}


// ************************************************************************* //
