/*--------------------------------*- C++ -*----------------------------------*\
  =========                 |
  \\      /  F ield         | OpenFOAM: The Open Source CFD Toolbox
   \\    /   O peration     | Website:  https://openfoam.org
    \\  /    A nd           | Version:  12
     \\/     M anipulation  |
\*---------------------------------------------------------------------------*/
FoamFile
{
    format      ascii;
    class       volScalarField;
    location    "0.9";
    object      p;
}
// * * * * * * * * * * * * * * * * * * * * * * * * * * * * * * * * * * * * * //

dimensions      [0 2 -2 0 0 0 0];

internalField   nonuniform List<scalar> 
900
(
4.47877e-08
6.46841e-05
0.000135883
0.000180058
0.000181567
0.00013357
3.37227e-05
-0.000117124
-0.0003157
-0.000557128
-0.000835518
-0.00114444
-0.00147718
-0.00182694
-0.00218693
-0.00255034
-0.00291041
-0.00326031
-0.00359322
-0.00390232
-0.00418084
-0.00442233
-0.00462086
-0.00477155
-0.00487113
-0.00491877
-0.00491686
-0.00487231
-0.00480086
-0.00473613
-0.000187046
-9.14206e-05
-6.89807e-06
3.31172e-05
2.54578e-05
-2.94881e-05
-0.000131303
-0.000278312
-0.000467305
-0.000693956
-0.000953187
-0.00123946
-0.00154694
-0.00186964
-0.00220151
-0.00253645
-0.00286835
-0.00319109
-0.00349862
-0.00378491
-0.00404411
-0.00427067
-0.00445948
-0.00460622
-0.00470768
-0.00476221
-0.00476942
-0.00472898
-0.0046441
-0.00454824
-0.000231101
-0.000102863
3.99395e-06
4.81614e-05
3.47804e-05
-2.92103e-05
-0.000140142
-0.000294689
-0.000488801
-0.000717841
-0.000976807
-0.00126047
-0.00156343
-0.00188023
-0.00220535
-0.00253324
-0.00285836
-0.00317516
-0.00347811
-0.0037617
-0.00402054
-0.00424938
-0.00444318
-0.00459731
-0.00470773
-0.00477112
-0.00478384
-0.004739
-0.00463149
-0.00450275
-8.94417e-06
0.000134283
0.000248576
0.000286851
0.000258205
0.000173578
3.92008e-05
-0.000139869
-0.000358373
-0.000610894
-0.000892029
-0.00119643
-0.00151884
-0.00185404
-0.00219689
-0.0025423
-0.00288517
-0.00322039
-0.00354279
-0.00384715
-0.00412815
-0.00438041
-0.00459851
-0.004777
-0.00491062
-0.00499433
-0.00502192
-0.0049825
-0.00486702
-0.0047228
0.000535046
0.000667736
0.000761645
0.000769564
0.000703135
0.000575947
0.000396367
0.000171118
-9.33137e-05
-0.000390676
-0.000715106
-0.00106111
-0.00142355
-0.00179752
-0.00217835
-0.00256149
-0.00294239
-0.00331648
-0.00367904
-0.00402513
-0.00434954
-0.0046467
-0.0049107
-0.00513522
-0.00531376
-0.00543959
-0.00550436
-0.00549453
-0.00539853
-0.00526401
0.00145293
0.00154391
0.00158186
0.0015262
0.00139086
0.0011915
0.000938575
0.000640548
0.000305156
-6.05714e-05
-0.000450414
-0.0008589
-0.00128121
-0.00171305
-0.00215049
-0.00258985
-0.00302749
-0.00345969
-0.00388246
-0.0042914
-0.00468158
-0.00504739
-0.00538251
-0.00567978
-0.00593138
-0.00612884
-0.00626168
-0.00631425
-0.00627271
-0.00617849
0.00280107
0.00280934
0.00274434
0.00258116
0.00233618
0.00202677
0.00166571
0.00126336
0.000828737
0.000369488
-0.000108082
-0.000598897
-0.00109894
-0.00160504
-0.00211463
-0.0026255
-0.00313555
-0.00364251
-0.00414369
-0.00463576
-0.00511449
-0.00557458
-0.0060095
-0.00641136
-0.006771
-0.00707792
-0.0073193
-0.00747766
-0.00753672
-0.00752288
0.00464269
0.00451178
0.00427999
0.00395094
0.00354361
0.00307663
0.00256527
0.00202205
0.00145722
0.00087867
0.0002923
-0.000297882
-0.000889453
-0.00148126
-0.00207304
-0.00266507
-0.0032578
-0.00385139
-0.00444541
-0.00503841
-0.00562761
-0.00620862
-0.00677514
-0.00731881
-0.00782908
-0.00829315
-0.00869554
-0.00901736
-0.00923962
-0.00936131
0.00704336
0.00669451
0.00620871
0.00563631
0.00499887
0.00431527
0.00360342
0.00287812
0.00215041
0.001428
0.000715476
1.47056e-05
-0.000674717
-0.00135501
-0.0020297
-0.00270304
-0.00337953
-0.00406326
-0.00475744
-0.00546384
-0.0061823
-0.00691029
-0.00764249
-0.00837053
-0.00908264
-0.00976347
-0.0103946
-0.0109566
-0.0114277
-0.0117617
0.01006
0.00938463
0.00852654
0.00760885
0.00665513
0.00568262
0.00471167
0.00375922
0.00283666
0.00195029
0.00110201
0.000289954
-0.000490954
-0.00124831
-0.00199148
-0.00273091
-0.00347729
-0.00424079
-0.00503033
-0.00585281
-0.0067124
-0.00760994
-0.00854234
-0.00950206
-0.0104765
-0.0114478
-0.0123944
-0.0132978
-0.0141339
-0.0147864
0.0137233
0.0125739
0.0111857
0.00979051
0.00841269
0.00706461
0.00576835
0.00454245
0.0033974
0.00233642
0.00135668
0.000450141
-0.000395558
-0.00119619
-0.00196994
-0.00273641
-0.00351554
-0.00432657
-0.00518703
-0.00611167
-0.00711153
-0.00819305
-0.00935721
-0.0105988
-0.0119053
-0.0132563
-0.0146276
-0.0160045
-0.0173614
-0.0184766
0.0180095
0.0161899
0.0140649
0.0120243
0.0100905
0.00826595
0.00657292
0.00503033
0.00364581
0.00241686
0.00133282
0.000376141
-0.000476503
-0.00125292
-0.00198411
-0.00270291
-0.00344265
-0.00423571
-0.0051122
-0.00609857
-0.00721628
-0.00848058
-0.00989939
-0.0114721
-0.0131877
-0.0150241
-0.0169555
-0.018975
-0.0210572
-0.0228278
0.0228004
0.0200549
0.0169284
0.0140337
0.0113869
0.00897298
0.0068115
0.00491955
0.00329874
0.00193699
0.000811498
-0.000109514
-0.000865243
-0.00150069
-0.00206498
-0.00260961
-0.00318671
-0.00384727
-0.00463936
-0.00560628
-0.0067849
-0.00820389
-0.00988221
-0.0118273
-0.0140325
-0.0164753
-0.0191301
-0.0220043
-0.0250761
-0.0277546
0.0278251
0.0238282
0.0193686
0.0153672
0.011827
0.00870428
0.00601123
0.00375937
0.00193957
0.000524669
-0.00052627
-0.0012655
-0.0017546
-0.00206245
-0.00226312
-0.00243373
-0.00265228
-0.00299543
-0.00353626
-0.00434195
-0.00547149
-0.00697341
-0.00888364
-0.011223
-0.0139931
-0.0171739
-0.0207435
-0.0247328
-0.0291288
-0.0330397
0.0325805
0.0269269
0.0207295
0.0153251
0.0106934
0.00674622
0.00348104
0.000898014
-0.00102962
-0.0023518
-0.00313561
-0.00346195
-0.00342307
-0.00312016
-0.00266076
-0.0021563
-0.00171946
-0.00146155
-0.0014898
-0.0019044
-0.00279559
-0.00424063
-0.00630092
-0.00901833
-0.0124092
-0.0164608
-0.0211604
-0.0265758
-0.0327105
-0.0382634
0.0362232
0.0284213
0.0200055
0.0128636
0.00693658
0.00207036
-0.00176348
-0.00458496
-0.0064483
-0.00743668
-0.00765381
-0.00721961
-0.00626728
-0.00494051
-0.00339057
-0.00177356
-0.000247526
0.00103052
0.00190781
0.0022393
0.00189143
0.000746031
-0.0012957
-0.00430807
-0.00833208
-0.0133701
-0.0194278
-0.0266287
-0.035004
-0.0427051
0.0374277
0.0268971
0.0157113
0.00647225
-0.000938104
-0.00676978
-0.0110932
-0.0139618
-0.015471
-0.0157514
-0.0149567
-0.0132586
-0.0108436
-0.00790952
-0.00466305
-0.00131676
0.00191372
0.00481273
0.00716809
0.0087751
0.00944113
0.00899058
0.00727032
0.00415701
-0.000430272
-0.00652206
-0.0141566
-0.02354
-0.0347473
-0.0452093
0.0342034
0.0202793
0.00571416
-0.00598073
-0.0150118
-0.0217651
-0.0263772
-0.0289542
-0.0296524
-0.0286684
-0.0262229
-0.0225549
-0.0179175
-0.0125756
-0.00680339
-0.000882096
0.0049021
0.0102608
0.0149064
0.0185568
0.0209401
0.0218011
0.0209087
0.0180659
0.0131284
0.00601624
-0.00336474
-0.0153409
-0.0300547
-0.0440021
0.0236604
0.0056072
-0.0129767
-0.0274422
-0.0381245
-0.0456014
-0.0501107
-0.051841
-0.0510373
-0.0479868
-0.0429988
-0.0363966
-0.0285146
-0.0196966
-0.0102951
-0.000670669
0.00880854
0.0177677
0.0258275
0.0326078
0.0377328
0.0408387
0.0415832
0.0396597
0.0348236
0.0269105
0.0157325
0.000787589
-0.0181694
-0.0364373
0.00171053
-0.0212569
-0.0444832
-0.0619186
-0.0740853
-0.0818314
-0.0855517
-0.0855625
-0.082238
-0.0759899
-0.067242
-0.056421
-0.0439552
-0.0302759
-0.0158196
-0.00103118
0.0136328
0.0277017
0.0406906
0.0521013
0.0614258
0.0681547
0.0717889
0.0718592
0.0679632
0.0597936
0.0470051
0.0288355
0.00488123
-0.0186406
-0.0373344
-0.0660198
-0.0944241
-0.114792
-0.127925
-0.135062
-0.136844
-0.13379
-0.126462
-0.115443
-0.101303
-0.0845903
-0.0658344
-0.045553
-0.0242609
-0.00248125
0.019246
0.040356
0.060255
0.0783128
0.0938607
0.106202
0.114619
0.118403
0.116905
0.109575
0.0958025
0.0744257
0.0447886
0.0150097
-0.101351
-0.136537
-0.170442
-0.193251
-0.206204
-0.211134
-0.209084
-0.200895
-0.18741
-0.169447
-0.147758
-0.123024
-0.0958693
-0.066878
-0.0366186
-0.00567129
0.0253644
0.0558815
0.0852005
0.112536
0.13704
0.157797
0.173796
0.183982
0.187321
0.182858
0.169519
0.145507
0.109733
0.0726819
-0.201399
-0.243776
-0.283048
-0.306913
-0.317378
-0.317242
-0.308231
-0.291706
-0.268932
-0.241043
-0.209007
-0.173634
-0.13559
-0.0954892
-0.0539107
-0.011394
0.0315163
0.0741811
0.115868
0.155754
0.192839
0.225903
0.253561
0.274288
0.286467
0.28847
0.278419
0.253438
0.211639
0.166418
-0.353658
-0.403617
-0.447075
-0.468771
-0.472196
-0.461858
-0.440661
-0.410805
-0.374167
-0.332259
-0.286253
-0.237017
-0.185201
-0.131377
-0.0760404
-0.0195726
0.0376972
0.0953378
0.15273
0.209022
0.263086
0.313499
0.35851
0.395984
0.423467
0.438205
0.43692
0.414814
0.3684
0.314562
-0.583783
-0.640597
-0.684333
-0.696541
-0.683886
-0.654043
-0.611903
-0.560895
-0.503713
-0.442169
-0.377559
-0.3109
-0.24276
-0.173265
-0.102335
-0.0299156
0.0439623
0.119158
0.195354
0.27197
0.348069
0.422223
0.492366
0.555716
0.608772
0.647288
0.665332
0.65457
0.608166
0.54674
-0.938128
-0.996574
-1.02899
-1.0148
-0.967751
-0.901337
-0.823562
-0.739252
-0.651981
-0.564121
-0.476725
-0.389908
-0.303412
-0.216733
-0.129233
-0.0402369
0.0509088
0.144788
0.241828
0.342149
0.44541
0.550613
0.65584
0.757976
0.852482
0.933199
0.99106
1.01113
0.978299
0.915675
-1.50656
-1.54615
-1.53538
-1.45602
-1.33741
-1.20314
-1.06629
-0.932896
-0.805332
-0.68435
-0.569634
-0.460216
-0.35482
-0.2519
-0.149709
-0.0464099
0.0598253
0.17077
0.288075
0.413178
0.54714
0.690396
0.84237
1.00094
1.16175
1.31708
1.45355
1.54582
1.56197
1.52145
-2.47199
-2.42335
-2.27717
-2.04661
-1.79144
-1.54529
-1.3193
-1.1164
-0.935915
-0.7754
-0.631871
-0.501874
-0.38173
-0.267865
-0.156849
-0.0453538
0.0699082
0.192265
0.325099
0.471896
0.636205
0.821457
1.03057
1.26524
1.52472
1.80366
2.08681
2.33814
2.49752
2.5525
-4.60255
-3.97447
-3.26134
-2.65572
-2.16288
-1.7589
-1.42857
-1.1592
-0.938806
-0.756738
-0.603672
-0.471832
-0.354726
-0.246838
-0.143339
-0.0398041
0.0681031
0.184971
0.315565
0.465437
0.641151
0.850529
1.10293
1.40927
1.78122
2.22974
2.76674
3.41073
4.15412
4.80485
-11.2873
-7.78817
-5.25641
-3.7217
-2.71403
-2.00235
-1.49235
-1.12591
-0.859266
-0.660867
-0.508923
-0.388244
-0.287912
-0.199777
-0.117491
-0.0358508
0.0510122
0.148637
0.262799
0.401989
0.577546
0.805102
1.10705
1.5158
2.07661
2.84928
3.92713
5.5334
8.12542
11.6641
)
;

boundaryField
{
    movingWall
    {
        type            zeroGradient;
    }
    fixedWalls
    {
        type            zeroGradient;
    }
    frontAndBack
    {
        type            empty;
    }
}


// ************************************************************************* //
