/*--------------------------------*- C++ -*----------------------------------*\
  =========                 |
  \\      /  F ield         | OpenFOAM: The Open Source CFD Toolbox
   \\    /   O peration     | Website:  https://openfoam.org
    \\  /    A nd           | Version:  12
     \\/     M anipulation  |
\*---------------------------------------------------------------------------*/
FoamFile
{
    format      ascii;
    class       volScalarField;
    location    "3";
    object      epsilon;
}
// * * * * * * * * * * * * * * * * * * * * * * * * * * * * * * * * * * * * * //

dimensions      [0 2 -3 0 0 0 0];

internalField   nonuniform List<scalar> 
18225
(
1.07254e-06
7.25617e-06
1.61571e-05
2.6766e-05
3.86096e-05
5.13807e-05
6.48425e-05
7.87932e-05
9.30513e-05
0.000107449
0.000121831
0.000136051
0.000149976
0.000163489
0.000176487
0.000188885
0.000200619
0.000211647
0.000221946
0.000231521
0.000240396
0.000248623
0.000256276
0.000263454
0.000270281
0.000276908
0.000283511
0.000290293
0.00029749
0.000305365
0.000314219
0.000324388
0.000336246
0.000350211
0.000366745
0.000386359
0.000409611
0.000437109
0.000469514
0.000507535
0.000551928
0.000603495
0.000663079
0.00073156
0.000809845
0.000898867
0.000999574
0.00111292
0.00123988
0.00138138
0.00153839
0.00171183
0.00190259
0.00211155
0.00233956
0.00258741
0.00285587
0.00314567
0.00345749
0.00379196
0.00414969
0.0045312
0.00493702
0.00536758
0.00582328
0.00630444
0.00681134
0.00734417
0.00790303
0.00848796
0.00909892
0.00973576
0.0103983
0.0110861
0.011799
0.0125362
0.0132974
0.0140817
0.0148885
0.0157166
0.0165651
0.0174325
0.0183175
0.0192181
0.0201323
0.0210577
0.0219912
0.0229297
0.023869
0.0248047
0.0257315
0.0266434
0.0275332
0.0283932
0.0292144
0.0299869
0.0306997
0.0313406
0.0318959
0.0323507
0.0326894
0.0328818
0.0329482
0.0328817
0.0326357
0.0322032
0.0315801
0.030764
0.029756
0.0285617
0.0271926
0.025666
0.0240048
0.0222372
0.0203955
0.0185147
0.0166305
0.014778
0.0129893
0.0112922
0.00970902
0.00825592
0.00694253
0.0057724
0.00474367
0.00384997
0.00308154
0.00242639
0.00187112
0.00140225
0.00100707
0.000674804
0.000398195
0.000176654
2.60533e-05
2.0261e-06
3.94749e-06
7.91588e-06
1.28313e-05
1.83718e-05
2.43673e-05
3.0697e-05
3.72619e-05
4.39747e-05
5.07555e-05
5.75301e-05
6.42301e-05
7.07928e-05
7.71624e-05
8.32907e-05
8.91382e-05
9.46744e-05
9.98792e-05
0.000104743
0.000109266
0.000113462
0.000117353
0.000120976
0.000124377
0.000127615
0.00013076
0.000133896
0.000137119
0.00014054
0.000144285
0.000148495
0.000153328
0.000158964
0.000165598
0.000173451
0.000182762
0.000193798
0.000206845
0.000222216
0.000240248
0.000261298
0.000285746
0.000313992
0.000346453
0.00038356
0.000425756
0.000473493
0.000527226
0.000587414
0.000654514
0.000728978
0.000811251
0.000901769
0.00100095
0.00110922
0.00122695
0.00135454
0.00149233
0.00164067
0.00179989
0.00197028
0.00215213
0.00234571
0.00255125
0.00276897
0.00299906
0.00324167
0.00349693
0.00376492
0.00404568
0.00433923
0.00464553
0.0049645
0.005296
0.00563985
0.00599585
0.0063637
0.00674306
0.00713353
0.00753462
0.00794577
0.00836627
0.00879534
0.00923201
0.00967518
0.0101235
0.0105756
0.0110295
0.0114832
0.0119344
0.0123803
0.0128178
0.0132434
0.0136531
0.0140425
0.0144066
0.01474
0.0150369
0.0152907
0.0154944
0.0156406
0.0157165
0.0157318
0.0156808
0.0155448
0.0153205
0.0150065
0.0146023
0.014109
0.0135299
0.0128709
0.0121403
0.0113491
0.0105104
0.00963912
0.00875125
0.00786315
0.00699074
0.00614865
0.00534958
0.00460374
0.00391854
0.0032985
0.00274536
0.00225837
0.00183469
0.00146991
0.00115855
0.000894432
0.00067134
0.000483469
0.00032603
0.000196304
9.64843e-05
4.921e-05
4.30024e-06
3.84062e-06
6.09258e-06
9.27721e-06
1.29868e-05
1.70496e-05
2.13624e-05
2.58482e-05
3.04425e-05
3.50882e-05
3.97332e-05
4.43299e-05
4.88349e-05
5.32099e-05
5.74218e-05
6.14433e-05
6.52538e-05
6.88392e-05
7.21929e-05
7.53155e-05
7.82156e-05
8.09093e-05
8.34208e-05
8.57822e-05
8.80339e-05
9.02245e-05
9.24117e-05
9.4662e-05
9.70518e-05
9.9668e-05
0.000102608
0.000105983
0.000109916
0.000114543
0.000120017
0.000126504
0.000134189
0.000143273
0.000153972
0.00016652
0.000181168
0.000198182
0.000217842
0.000240441
0.000266283
0.000295683
0.00032896
0.000366442
0.000408459
0.000455342
0.000507421
0.000565027
0.000628483
0.000698111
0.000774224
0.000857131
0.000947131
0.00104452
0.00114957
0.00126257
0.00138378
0.00151345
0.00165184
0.00179916
0.00195566
0.00212151
0.00229691
0.00248201
0.00267694
0.0028818
0.00309665
0.0033215
0.00355636
0.00380114
0.00405574
0.00432
0.00459367
0.00487648
0.00516806
0.00546794
0.00577559
0.00609035
0.00641145
0.00673796
0.00706884
0.00740286
0.00773859
0.00807443
0.00840856
0.00873889
0.0090631
0.00937861
0.00968255
0.00997178
0.0102429
0.0104922
0.0107157
0.0109093
0.0110682
0.011188
0.0112621
0.011287
0.0112669
0.011196
0.0110653
0.0108731
0.0106192
0.0103043
0.00993011
0.00949965
0.00901761
0.00849021
0.00792515
0.00733142
0.00671896
0.0060983
0.00548006
0.00487449
0.00429099
0.0037377
0.00322119
0.00274623
0.00231579
0.00193102
0.00159149
0.0012954
0.00103989
0.000821363
0.000635804
0.00047917
0.000347795
0.000238992
0.000152337
9.39932e-05
0.000104361
7.02513e-06
4.59159e-06
5.74391e-06
7.97212e-06
1.07418e-05
1.3848e-05
1.71812e-05
2.06677e-05
2.42503e-05
2.78805e-05
3.15155e-05
3.51167e-05
3.86496e-05
4.20839e-05
4.53935e-05
4.8557e-05
5.1558e-05
5.43856e-05
5.70345e-05
5.95051e-05
6.18042e-05
6.39443e-05
6.59444e-05
6.78297e-05
6.9632e-05
7.13898e-05
7.31485e-05
7.49611e-05
7.68881e-05
7.89987e-05
8.13708e-05
8.40923e-05
8.72617e-05
9.09884e-05
9.53943e-05
0.000100614
0.000106795
0.000114098
0.0001227
0.000132791
0.000144572
0.000158263
0.000174092
0.000192301
0.000213143
0.00023688
0.000263784
0.000294132
0.00032821
0.000366306
0.000408714
0.000455729
0.000507652
0.00056478
0.000627416
0.000695859
0.000770413
0.000851378
0.000939054
0.00103374
0.00113574
0.00124535
0.00136286
0.00148855
0.0016227
0.00176558
0.00191743
0.00207847
0.0022489
0.00242886
0.00261847
0.00281778
0.0030268
0.00324548
0.00347368
0.0037112
0.00395774
0.00421292
0.00447624
0.00474711
0.0050248
0.00530846
0.0055971
0.00588961
0.00618469
0.00648092
0.00677668
0.00707023
0.00735961
0.00764272
0.00791727
0.00818079
0.00843067
0.00866415
0.00887832
0.00907016
0.00923654
0.00937412
0.00947932
0.00954744
0.0095761
0.00956588
0.00951447
0.00941978
0.00927642
0.00908373
0.00884221
0.008553
0.00821807
0.00784043
0.00742421
0.00697469
0.00649817
0.00600189
0.00549369
0.00498179
0.00447439
0.00397931
0.00350368
0.0030536
0.00263393
0.0022482
0.00189852
0.00158566
0.00130923
0.00106777
0.000859083
0.000680407
0.000528713
0.000401036
0.000294875
0.000208899
0.000144598
0.000112133
0.000170165
1.01112e-05
5.75429e-06
6.02312e-06
7.56626e-06
9.71089e-06
1.2209e-05
1.4936e-05
1.78141e-05
2.0787e-05
2.38092e-05
2.68423e-05
2.98524e-05
3.28099e-05
3.56886e-05
3.84666e-05
4.11258e-05
4.36525e-05
4.60374e-05
4.8276e-05
5.03687e-05
5.23211e-05
5.41437e-05
5.58525e-05
5.74687e-05
5.90193e-05
6.05368e-05
6.20598e-05
6.36335e-05
6.53095e-05
6.71471e-05
6.92132e-05
7.15835e-05
7.43427e-05
7.75856e-05
8.14178e-05
8.59562e-05
9.13295e-05
9.76793e-05
0.00010516
0.000113939
0.000124196
0.000136127
0.000149937
0.000165846
0.000184086
0.000204899
0.000228539
0.000255271
0.000285368
0.000319115
0.000356803
0.000398734
0.000445217
0.000496571
0.000553122
0.000615203
0.000683159
0.000757338
0.0008381
0.000925809
0.00102083
0.00112354
0.00123432
0.00135352
0.00148151
0.00161864
0.00176522
0.00192155
0.00208787
0.00226438
0.00245119
0.00264834
0.0028558
0.00307344
0.003301
0.00353813
0.00378433
0.00403898
0.00430132
0.00457043
0.00484528
0.00512466
0.00540725
0.00569157
0.00597603
0.00625892
0.0065384
0.00681254
0.00707932
0.00733662
0.00758225
0.00781395
0.00802947
0.00822649
0.00840268
0.00855571
0.00868323
0.00878287
0.00885053
0.00888203
0.00888385
0.00884793
0.0087752
0.00866414
0.00851099
0.00831538
0.00807777
0.00779915
0.00748118
0.00712644
0.00673849
0.00632193
0.00588237
0.00542625
0.00496067
0.00449306
0.00403087
0.00358116
0.00315031
0.0027437
0.00236552
0.00201871
0.00170491
0.00142457
0.00117713
0.000961157
0.00077462
0.000615088
0.000479996
0.00036697
0.000274263
0.000201586
0.000152116
0.000139959
0.000244147
1.3494e-05
7.17216e-06
6.65599e-06
7.64219e-06
9.30968e-06
1.13638e-05
1.36615e-05
1.61173e-05
1.86726e-05
2.12824e-05
2.39098e-05
2.65234e-05
2.90962e-05
3.16049e-05
3.40299e-05
3.63553e-05
3.85689e-05
4.06627e-05
4.26327e-05
4.44794e-05
4.62076e-05
4.78265e-05
4.93502e-05
5.07975e-05
5.21921e-05
5.35631e-05
5.49447e-05
5.63773e-05
5.79072e-05
5.95876e-05
6.14788e-05
6.36493e-05
6.61761e-05
6.91454e-05
7.26537e-05
7.68083e-05
8.17282e-05
8.75442e-05
9.44004e-05
0.000102454
0.000111875
0.000122849
0.000135574
0.000150263
0.000167144
0.000186457
0.000208459
0.00023342
0.000261624
0.00029337
0.000328974
0.000368764
0.000413088
0.000462305
0.000516794
0.000576949
0.000643181
0.000715918
0.000795601
0.000882685
0.000977635
0.00108092
0.00119301
0.00131438
0.00144548
0.00158673
0.00173852
0.00190119
0.00207502
0.00226017
0.00245664
0.00266438
0.00288323
0.00311288
0.00335283
0.00360243
0.00386084
0.00412707
0.00439995
0.00467815
0.0049602
0.00524449
0.00552932
0.00581289
0.00609332
0.0063687
0.00663712
0.00689664
0.00714534
0.00738134
0.00760278
0.00780775
0.00799439
0.00816138
0.00830718
0.00843025
0.00852908
0.00860232
0.00864327
0.00865604
0.00864242
0.00859468
0.00851421
0.00839962
0.00824729
0.00805641
0.00782683
0.00755878
0.00725316
0.00691177
0.00653748
0.00613435
0.00570757
0.00526338
0.00480885
0.00435155
0.00389916
0.00345902
0.00303777
0.00264096
0.00227287
0.00193635
0.00163292
0.00136281
0.00112524
0.000918588
0.000740729
0.000589224
0.000461633
0.000355844
0.000270603
0.000206436
0.000168092
0.000173512
0.000324389
1.71301e-05
8.77281e-06
7.52117e-06
8.02272e-06
9.29584e-06
1.0998e-05
1.29652e-05
1.51033e-05
1.73493e-05
1.96569e-05
2.19895e-05
2.43168e-05
2.66131e-05
2.88568e-05
3.10299e-05
3.31178e-05
3.51096e-05
3.6998e-05
3.87795e-05
4.04545e-05
4.20275e-05
4.35069e-05
4.49055e-05
4.62406e-05
4.7534e-05
4.88122e-05
5.01069e-05
5.14554e-05
5.29007e-05
5.44924e-05
5.62869e-05
5.83484e-05
6.07496e-05
6.35723e-05
6.69082e-05
7.08601e-05
7.55422e-05
8.10816e-05
8.76185e-05
9.5307e-05
0.000104316
0.000114831
0.000127052
0.000141196
0.000157497
0.000176208
0.000197601
0.000221964
0.00024961
0.000280868
0.000316093
0.000355662
0.000399974
0.000449455
0.000504554
0.000565748
0.000633538
0.000708446
0.000791022
0.000881831
0.000981425
0.00109039
0.00120931
0.00133874
0.00147921
0.0016312
0.00179513
0.00197134
0.00216007
0.00236139
0.00257525
0.00280139
0.00303934
0.00328841
0.00354772
0.00381616
0.00409242
0.00437496
0.00466211
0.00495201
0.00524272
0.00553223
0.00581847
0.00609943
0.00637312
0.00663767
0.00689131
0.00713243
0.00735958
0.00757147
0.00776696
0.00794513
0.00810519
0.00824615
0.00836725
0.00846783
0.0085471
0.00860421
0.00863259
0.00863934
0.00862302
0.00857734
0.00850264
0.00839734
0.00825762
0.00808158
0.00786792
0.00761568
0.00732463
0.0069955
0.00663032
0.00623251
0.00580696
0.00535995
0.00489895
0.00443219
0.00396827
0.00351555
0.00308165
0.002673
0.00229454
0.00194954
0.00163965
0.00136505
0.00112475
0.000916829
0.000738859
0.00058818
0.000462254
0.000359017
0.000277513
0.000218963
0.000189471
0.000210887
0.000409459
2.09896e-05
1.05171e-05
8.55473e-06
8.61683e-06
9.54816e-06
1.09561e-05
1.26555e-05
1.45414e-05
1.65461e-05
1.86211e-05
2.07289e-05
2.28393e-05
2.49274e-05
2.69724e-05
2.89573e-05
3.08684e-05
3.26957e-05
3.44325e-05
3.60756e-05
3.76255e-05
3.90864e-05
4.04665e-05
4.17778e-05
4.30365e-05
4.42631e-05
4.54829e-05
4.67258e-05
4.80274e-05
4.94287e-05
5.09773e-05
5.27276e-05
5.47418e-05
5.70904e-05
5.98535e-05
6.31213e-05
6.69954e-05
7.15896e-05
7.70311e-05
8.34616e-05
9.10381e-05
9.99342e-05
0.000110341
0.000122469
0.000136548
0.000152829
0.000171584
0.000193112
0.000217733
0.000245797
0.000277682
0.000313793
0.00035457
0.000400485
0.000452038
0.000509771
0.000574256
0.000646101
0.000725941
0.000814441
0.000912293
0.0010202
0.00113886
0.00126894
0.00141109
0.0015659
0.00173389
0.00191544
0.0021108
0.00232
0.00254297
0.00277935
0.00302854
0.00328963
0.00356144
0.00384254
0.00413122
0.00442556
0.00472345
0.00502264
0.00532081
0.00561562
0.00590477
0.00618611
0.00645762
0.00671754
0.00696435
0.0071968
0.00741394
0.00761508
0.00779981
0.00796793
0.00811943
0.00825439
0.00837281
0.00847475
0.00856015
0.00862887
0.00868045
0.0087109
0.00872262
0.00871639
0.00868603
0.00862999
0.00854633
0.00843059
0.00827937
0.00808998
0.00786007
0.00758802
0.00727339
0.00691717
0.0065221
0.00609274
0.00563548
0.00515832
0.00467046
0.00418175
0.00370201
0.0032404
0.00280477
0.00240123
0.00203391
0.00170497
0.00141475
0.00116211
0.000944843
0.000760121
0.000604897
0.00047633
0.000372275
0.000291896
0.000236878
0.000214624
0.000251006
0.000498259
2.50512e-05
1.23817e-05
9.71919e-06
9.37165e-06
9.99779e-06
1.11513e-05
1.26254e-05
1.43044e-05
1.61145e-05
1.80042e-05
1.9935e-05
2.1876e-05
2.38025e-05
2.5694e-05
2.75341e-05
2.93097e-05
3.10114e-05
3.26329e-05
3.41714e-05
3.56275e-05
3.70056e-05
3.83134e-05
3.95627e-05
4.07691e-05
4.19527e-05
4.31377e-05
4.43535e-05
4.56346e-05
4.70211e-05
4.856e-05
5.03048e-05
5.23174e-05
5.46681e-05
5.74372e-05
6.07158e-05
6.46072e-05
6.92276e-05
7.47082e-05
8.1196e-05
8.88554e-05
9.78696e-05
0.000108442
0.0001208
0.000135191
0.000151892
0.000171204
0.000193461
0.000219025
0.000248296
0.000281708
0.000319734
0.000362889
0.000411733
0.000466868
0.000528938
0.000598634
0.000676684
0.000763854
0.000860937
0.000968739
0.00108809
0.00121978
0.00136458
0.00152319
0.0016962
0.00188408
0.00208711
0.00230536
0.00253862
0.00278643
0.00304801
0.00332222
0.00360756
0.00390222
0.00420406
0.00451071
0.00481958
0.00512799
0.00543319
0.00573251
0.00602343
0.00630366
0.0065712
0.00682443
0.00706213
0.00728351
0.00748817
0.00767612
0.00784768
0.00800348
0.00814433
0.00827117
0.00838496
0.0084865
0.00857649
0.00865533
0.0087231
0.00877924
0.00882214
0.00885149
0.00886423
0.00885979
0.0088323
0.00877933
0.00869604
0.00857728
0.00841888
0.00821701
0.00796866
0.00767206
0.00732712
0.00693572
0.006502
0.00603231
0.00553514
0.00502062
0.00449999
0.00398475
0.00348589
0.0030131
0.00257409
0.0021743
0.00181675
0.00150222
0.00122963
0.00099653
0.000799684
0.000635571
0.000500937
0.000393361
0.000311981
0.000258857
0.00024259
0.00029318
0.000589929
2.92993e-05
1.43516e-05
1.09909e-05
1.02542e-05
1.06019e-05
1.15301e-05
1.28103e-05
1.43152e-05
1.5965e-05
1.77045e-05
1.94929e-05
2.12989e-05
2.30974e-05
2.48681e-05
2.65947e-05
2.82645e-05
2.98685e-05
3.14007e-05
3.28587e-05
3.42434e-05
3.55592e-05
3.6814e-05
3.80195e-05
3.91912e-05
4.03488e-05
4.15166e-05
4.27236e-05
4.40042e-05
4.53986e-05
4.69538e-05
4.87239e-05
5.07715e-05
5.31683e-05
5.59966e-05
5.93504e-05
6.33367e-05
6.80771e-05
7.37097e-05
8.03902e-05
8.82944e-05
9.76198e-05
0.000108588
0.000121445
0.000136467
0.000153962
0.000174268
0.000197764
0.000224865
0.00025603
0.000291764
0.000332619
0.000379202
0.000432167
0.00049223
0.000560155
0.000636761
0.000722908
0.000819501
0.000927463
0.00104773
0.00118123
0.00132885
0.0014914
0.00166958
0.00186391
0.00207473
0.00230211
0.00254579
0.00280517
0.00307926
0.00336667
0.00366557
0.00397374
0.00428859
0.00460723
0.00492659
0.00524347
0.00555472
0.00585731
0.00614847
0.00642581
0.00668737
0.00693172
0.00715798
0.00736584
0.00755552
0.00772774
0.0078836
0.00802452
0.00815217
0.00826831
0.00837466
0.00847286
0.00856425
0.00864987
0.00873029
0.00880557
0.00887509
0.00893748
0.00899137
0.00903425
0.00906017
0.00906739
0.00905052
0.0090048
0.0089234
0.00880064
0.00863131
0.008411
0.0081366
0.00780682
0.00742255
0.00698724
0.00650699
0.00599045
0.00544853
0.0048937
0.00433918
0.00379792
0.00328169
0.00280021
0.0023606
0.00196714
0.00162141
0.00132263
0.00106827
0.000854731
0.000678
0.000534328
0.000420906
0.000336726
0.000284102
0.000272762
0.000336943
0.000683803
3.37222e-05
1.64166e-05
1.23544e-05
1.12425e-05
1.13321e-05
1.20577e-05
1.31683e-05
1.45245e-05
1.60398e-05
1.76556e-05
1.93288e-05
2.10265e-05
2.27227e-05
2.43972e-05
2.60338e-05
2.76201e-05
2.91472e-05
3.06096e-05
3.20052e-05
3.33351e-05
3.4604e-05
3.58201e-05
3.69953e-05
3.81453e-05
3.92902e-05
4.04543e-05
4.16671e-05
4.29634e-05
4.43842e-05
4.59774e-05
4.77986e-05
4.99123e-05
5.23928e-05
5.5326e-05
5.88104e-05
6.29589e-05
6.7901e-05
7.3784e-05
8.07759e-05
8.90673e-05
9.88739e-05
0.000110439
0.000124038
0.000139978
0.000158605
0.000180303
0.000205503
0.000234682
0.000268371
0.000307154
0.000351677
0.000402647
0.000460834
0.000527076
0.000602269
0.000687369
0.00078338
0.000891342
0.00101231
0.00114733
0.00129742
0.00146351
0.00164639
0.00184669
0.00206479
0.00230075
0.0025543
0.0028247
0.00311079
0.00341089
0.00372283
0.00404397
0.00437124
0.00470124
0.00503034
0.00535485
0.00567114
0.00597582
0.00626587
0.00653879
0.00679269
0.00702636
0.00723928
0.00743164
0.00760429
0.00775862
0.00789656
0.00802032
0.00813231
0.00823506
0.00833103
0.00842248
0.0085114
0.00859937
0.00868746
0.00877613
0.00886525
0.00895394
0.00904061
0.00912301
0.0091978
0.00926039
0.00930559
0.00932507
0.00931892
0.00927728
0.00919297
0.0090595
0.00887116
0.00862352
0.00831396
0.00794222
0.00751073
0.00702495
0.00649335
0.00592718
0.00533988
0.00474616
0.00416096
0.00359827
0.00307008
0.00258558
0.00215075
0.00176831
0.00143813
0.00115783
0.00092357
0.000730883
0.000575486
0.00045411
0.000365496
0.000312112
0.000304755
0.000381977
0.000779382
3.83114e-05
1.85698e-05
1.3799e-05
1.23217e-05
1.21686e-05
1.27101e-05
1.36706e-05
1.48985e-05
1.63004e-05
1.78135e-05
1.93924e-05
2.10025e-05
2.26173e-05
2.42157e-05
2.57812e-05
2.73015e-05
2.8768e-05
3.01756e-05
3.15224e-05
3.28102e-05
3.4044e-05
3.52325e-05
3.6388e-05
3.75268e-05
3.86694e-05
3.98409e-05
4.10715e-05
4.23972e-05
4.38604e-05
4.55105e-05
4.74055e-05
4.96129e-05
5.22108e-05
5.52899e-05
5.89551e-05
6.3327e-05
6.85448e-05
7.47683e-05
8.21804e-05
9.09903e-05
0.000101436
0.000113788
0.000128353
0.000145478
0.000165553
0.000189016
0.000216359
0.00024813
0.000284942
0.000327471
0.000376467
0.00043275
0.000497218
0.000570841
0.000654659
0.000749771
0.000857326
0.000978495
0.00111445
0.00126633
0.00143519
0.00162195
0.00182732
0.00205175
0.00229535
0.00255778
0.00283825
0.00313541
0.00344731
0.00377147
0.0041048
0.00444376
0.00478439
0.00512254
0.00545395
0.00577452
0.00608046
0.0063685
0.006636
0.00688114
0.00710293
0.00730125
0.00747678
0.00763097
0.00776596
0.00788429
0.00798903
0.00808332
0.00817027
0.00825303
0.00833445
0.00841712
0.00850279
0.0085929
0.00868844
0.0087898
0.00889633
0.0090068
0.00911936
0.00923104
0.00933805
0.00943565
0.00951846
0.00957958
0.00960804
0.00960656
0.00956204
0.00946685
0.00931409
0.009098
0.00881458
0.00846219
0.00804193
0.00755818
0.00701871
0.00643463
0.00581985
0.00519028
0.00456266
0.00395323
0.00337645
0.00284392
0.00236372
0.00194019
0.00157422
0.00126385
0.00100522
0.000793481
0.00062384
0.000492514
0.000397915
0.000342581
0.000338321
0.000428072
0.000876326
4.30608e-05
2.08063e-05
1.53174e-05
1.3481e-05
1.30974e-05
1.34704e-05
1.42967e-05
1.54133e-05
1.67193e-05
1.81473e-05
1.96493e-05
2.11889e-05
2.27384e-05
2.42762e-05
2.57856e-05
2.72543e-05
2.86736e-05
3.00387e-05
3.13482e-05
3.26043e-05
3.38126e-05
3.49824e-05
3.61267e-05
3.72627e-05
3.84116e-05
3.95998e-05
4.08588e-05
4.22259e-05
4.37456e-05
4.54698e-05
4.74596e-05
4.97863e-05
5.25331e-05
5.57967e-05
5.96896e-05
6.43425e-05
6.99063e-05
7.65556e-05
8.44913e-05
9.39444e-05
0.00010518
0.000118499
0.000134247
0.000152815
0.000174644
0.000200235
0.000230149
0.000265017
0.00030554
0.0003525
0.00040676
0.000469269
0.000541059
0.000623244
0.000717012
0.000823609
0.000944321
0.00108044
0.00123324
0.00140389
0.00159345
0.00180273
0.00203228
0.00228225
0.00255232
0.00284161
0.00314865
0.00347126
0.00380662
0.00415126
0.00450114
0.00485177
0.00519842
0.00553628
0.00586074
0.00616758
0.00645323
0.00671493
0.00695088
0.0071603
0.0073434
0.00750147
0.00763651
0.00775124
0.00784908
0.00793346
0.00800842
0.00807811
0.00814632
0.00821526
0.00828781
0.00836628
0.00845289
0.00854889
0.00865476
0.00877029
0.00889483
0.00902673
0.00916356
0.00930261
0.00943973
0.00956958
0.00968664
0.00978462
0.00985472
0.00988604
0.00988156
0.00982634
0.00971238
0.0095327
0.00928181
0.00895652
0.00855628
0.00808394
0.00754602
0.00695285
0.00631827
0.00565891
0.00499298
0.00433889
0.00371366
0.00313161
0.00260335
0.00213528
0.00172975
0.0013856
0.00109918
0.000865444
0.000679115
0.000535888
0.000433785
0.000375339
0.00037332
0.000475106
0.000974442
4.79662e-05
2.31227e-05
1.69044e-05
1.4713e-05
1.41088e-05
1.43259e-05
1.50316e-05
1.60516e-05
1.72764e-05
1.86342e-05
2.0074e-05
2.15575e-05
2.30558e-05
2.45463e-05
2.6012e-05
2.74404e-05
2.8823e-05
3.01554e-05
3.14366e-05
3.26693e-05
3.38599e-05
3.50184e-05
3.61588e-05
3.72992e-05
3.84623e-05
3.96757e-05
4.09726e-05
4.23924e-05
4.39822e-05
4.57969e-05
4.79015e-05
5.0372e-05
5.32977e-05
5.67828e-05
6.09491e-05
6.59386e-05
7.19165e-05
7.90745e-05
8.76346e-05
9.78533e-05
0.000110026
0.00012449
0.000141634
0.0001619
0.000185789
0.00021387
0.000246784
0.00028525
0.000330074
0.00038215
0.000442469
0.000512114
0.000592264
0.000684181
0.000789204
0.000908722
0.00104415
0.00119687
0.00136821
0.00155934
0.00177123
0.0020045
0.0022594
0.00253565
0.00283234
0.00314788
0.00347994
0.0038254
0.00418041
0.00454047
0.00490056
0.00525538
0.00559953
0.00592787
0.00623572
0.00651919
0.00677532
0.0070023
0.00719952
0.00736758
0.00750807
0.00762386
0.00771822
0.00779494
0.00785868
0.00791474
0.00796633
0.00801664
0.00806916
0.00812801
0.00819581
0.00827456
0.00836557
0.0084696
0.00858676
0.00871655
0.00885772
0.00900852
0.00916643
0.00932815
0.00948978
0.00964711
0.00979459
0.00992569
0.0100329
0.0101043
0.0101324
0.0101182
0.0100458
0.00990718
0.00969523
0.00940514
0.00903444
0.00858401
0.00805856
0.00746698
0.00682239
0.00614151
0.0054436
0.00474896
0.00407723
0.00344565
0.00286774
0.00235247
0.00190413
0.00152279
0.00120534
0.000946713
0.000741266
0.000584176
0.000473035
0.000410313
0.00040969
0.000523034
0.00107368
5.30254e-05
2.55171e-05
1.85565e-05
1.60121e-05
1.51952e-05
1.52671e-05
1.58642e-05
1.68001e-05
1.79566e-05
1.92572e-05
2.06476e-05
2.20874e-05
2.35462e-05
2.50007e-05
2.64333e-05
2.78313e-05
2.91865e-05
3.04945e-05
3.1755e-05
3.29713e-05
3.41507e-05
3.53042e-05
3.64469e-05
3.75983e-05
3.87824e-05
4.00287e-05
4.13725e-05
4.28559e-05
4.45286e-05
4.64496e-05
4.86884e-05
5.13269e-05
5.44611e-05
5.82043e-05
6.26889e-05
6.80702e-05
7.45297e-05
8.22789e-05
9.1564e-05
0.00010267
0.000115928
0.000131716
0.000150472
0.000172694
0.000198951
0.000229888
0.000266234
0.000308809
0.000358532
0.000416421
0.0004836
0.0005613
0.00065085
0.000753665
0.000871229
0.00100506
0.00115669
0.00132755
0.00151896
0.00173204
0.00196754
0.00222581
0.00250665
0.00280917
0.00313173
0.00347186
0.00382623
0.00419064
0.00456016
0.00492928
0.00529211
0.00564268
0.00597525
0.00628468
0.00656665
0.00681802
0.00703689
0.00722272
0.00737642
0.00750019
0.00759686
0.00767106
0.00772715
0.00777171
0.00780796
0.00783838
0.00786879
0.00790418
0.00794758
0.00800176
0.00806881
0.00815023
0.00824684
0.00835893
0.00848623
0.00862791
0.00878258
0.00894835
0.00912272
0.00930258
0.00948417
0.00966294
0.00983374
0.00999072
0.0101286
0.0102393
0.0103079
0.0103297
0.010301
0.0102074
0.0100403
0.00979328
0.00946166
0.00904405
0.0085428
0.00796472
0.00732145
0.00662912
0.00590742
0.00517819
0.00446352
0.00378373
0.00315561
0.00259119
0.00209722
0.00167551
0.00132386
0.00103746
0.000810426
0.000637458
0.000515699
0.000447514
0.000447436
0.000571876
0.0011741
5.82374e-05
2.79883e-05
2.02714e-05
1.73746e-05
1.63512e-05
1.62869e-05
1.67862e-05
1.7649e-05
1.87486e-05
2.00034e-05
2.13555e-05
2.27624e-05
2.41922e-05
2.56204e-05
2.7029e-05
2.84051e-05
2.97405e-05
3.10313e-05
3.22777e-05
3.34838e-05
3.46578e-05
3.58118e-05
3.69625e-05
3.81306e-05
3.93423e-05
4.0629e-05
4.20284e-05
4.35857e-05
4.53542e-05
4.73973e-05
4.97898e-05
5.26202e-05
5.59928e-05
6.00307e-05
6.48788e-05
7.07076e-05
7.77169e-05
8.61409e-05
9.62529e-05
0.000108371
0.000122864
0.000140158
0.000160745
0.000185187
0.000214127
0.000248295
0.000288518
0.000335727
0.000390959
0.000455369
0.000530226
0.000616909
0.000716903
0.000831774
0.000963141
0.00111264
0.00128185
0.00147224
0.00168507
0.00192124
0.00218126
0.00246501
0.0027717
0.00309969
0.00344644
0.00380844
0.00418123
0.00455951
0.00493728
0.0053081
0.00566542
0.00600289
0.00631482
0.00659646
0.00684433
0.00705645
0.00723233
0.00737297
0.00748092
0.00756021
0.00761426
0.00765204
0.0076766
0.00769032
0.0077006
0.00771195
0.00772841
0.00775471
0.00779308
0.00784565
0.00791396
0.00799889
0.00810079
0.00821953
0.00835452
0.00850474
0.00866875
0.0088447
0.0090303
0.00922274
0.00941866
0.00961409
0.00980437
0.00998404
0.0101468
0.0102857
0.0103924
0.0104545
0.0104692
0.0104252
0.010308
0.0101109
0.00982728
0.00945306
0.00898789
0.00843579
0.0078062
0.00711385
0.00637815
0.0056219
0.00486937
0.00414398
0.00346609
0.00285123
0.00230923
0.00184415
0.00145518
0.00113807
0.000886879
0.000695927
0.000561896
0.000487019
0.000486616
0.00062171
0.00127589
6.36027e-05
3.0536e-05
2.20477e-05
1.87977e-05
1.7573e-05
1.738e-05
1.77912e-05
1.85905e-05
1.96434e-05
2.08625e-05
2.21863e-05
2.357e-05
2.49798e-05
2.63904e-05
2.7783e-05
2.91446e-05
3.04671e-05
3.17469e-05
3.29848e-05
3.4186e-05
3.53597e-05
3.65194e-05
3.76832e-05
3.88738e-05
4.01193e-05
4.14536e-05
4.29174e-05
4.45591e-05
4.64363e-05
4.86175e-05
5.11835e-05
5.42303e-05
5.78716e-05
6.22417e-05
6.74996e-05
7.38326e-05
8.14616e-05
9.06459e-05
0.000101689
0.000114946
0.00013083
0.000149818
0.000172462
0.000199396
0.000231344
0.000269131
0.00031369
0.00036607
0.00042744
0.000499098
0.000582462
0.000679067
0.00079055
0.000918619
0.00106501
0.00123145
0.00141953
0.00163067
0.00186597
0.00212607
0.00241103
0.00272016
0.00305191
0.00340372
0.00377199
0.00415209
0.00453837
0.00492443
0.00530329
0.00566782
0.00601107
0.00632674
0.00660956
0.00685564
0.00706276
0.00723049
0.00736002
0.00745391
0.00751622
0.00755438
0.0075722
0.00757569
0.00756872
0.00755821
0.00755134
0.00754987
0.00755672
0.00757784
0.00761407
0.00766688
0.00773715
0.00782523
0.00793103
0.00805409
0.00819361
0.00834852
0.00851744
0.0086987
0.00889032
0.00908995
0.00929476
0.0095014
0.0097059
0.00990347
0.0100885
0.0102548
0.0103941
0.0104963
0.0105465
0.0105525
0.0104938
0.0103523
0.0101242
0.00980302
0.00938524
0.00887157
0.00826849
0.0075885
0.00684986
0.00607564
0.0052918
0.00452472
0.00379848
0.00313262
0.00254057
0.0020293
0.00159989
0.00124905
0.000971036
0.000759873
0.000611809
0.000528965
0.000527336
0.000672661
0.00137934
6.91231e-05
3.31606e-05
2.38849e-05
2.02799e-05
1.88578e-05
1.85427e-05
1.88743e-05
1.96187e-05
2.06342e-05
2.18266e-05
2.31311e-05
2.45001e-05
2.58982e-05
2.72988e-05
2.86825e-05
3.00361e-05
3.13516e-05
3.26259e-05
3.38606e-05
3.50617e-05
3.62399e-05
3.741e-05
3.85919e-05
3.98104e-05
4.1096e-05
4.24852e-05
4.40221e-05
4.57591e-05
4.77584e-05
5.00941e-05
5.28539e-05
5.61425e-05
6.00837e-05
6.48247e-05
7.05399e-05
7.7436e-05
8.57568e-05
9.57898e-05
0.000107873
0.000122401
0.000139836
0.000160712
0.000185648
0.000215357
0.000250652
0.00029246
0.000341829
0.000399936
0.00046809
0.000547737
0.000640451
0.000747922
0.000871932
0.00101432
0.0011769
0.00136145
0.00156953
0.00180242
0.00206096
0.00234539
0.00265521
0.00298897
0.00334422
0.00371733
0.00410354
0.004497
0.00489093
0.00527789
0.00565016
0.00600017
0.00632099
0.00660677
0.00685313
0.00705748
0.00721912
0.00733954
0.00742182
0.00746985
0.00749078
0.00749317
0.00747471
0.00744823
0.00741829
0.00739029
0.00737063
0.00736239
0.00736298
0.00738168
0.00741759
0.00747138
0.00754336
0.00763343
0.00774114
0.00786582
0.00800659
0.0081624
0.00833205
0.00851415
0.00870712
0.00890911
0.0091179
0.00933083
0.00954466
0.00975542
0.00995828
0.0101477
0.0103164
0.0104559
0.0105532
0.0105956
0.01059
0.0105143
0.0103487
0.0100885
0.00972823
0.00926475
0.00870095
0.00804623
0.00731674
0.0065349
0.00572772
0.00492416
0.00415212
0.00343544
0.00279181
0.00223171
0.00175876
0.00137107
0.00106341
0.000829668
0.000665682
0.000573542
0.000569742
0.000724898
0.00148481
7.48015e-05
3.58633e-05
2.5783e-05
2.18202e-05
2.02037e-05
1.97724e-05
2.00318e-05
2.07292e-05
2.17154e-05
2.28897e-05
2.4183e-05
2.5545e-05
2.69386e-05
2.8336e-05
2.97172e-05
3.10687e-05
3.23825e-05
3.36563e-05
3.48924e-05
3.6098e-05
3.7285e-05
3.84701e-05
3.9675e-05
4.09269e-05
4.22588e-05
4.37105e-05
4.53297e-05
4.71732e-05
4.93083e-05
5.18156e-05
5.47905e-05
5.8347e-05
6.26207e-05
6.77727e-05
7.3995e-05
8.15151e-05
9.06029e-05
0.000101577
0.000114812
0.000130749
0.000149903
0.00017287
0.000200344
0.000233122
0.000272115
0.000318361
0.000373032
0.000437439
0.000513041
0.000601435
0.000704351
0.000823629
0.000961184
0.00111896
0.00129883
0.00150254
0.00173156
0.00198693
0.00226912
0.00257784
0.00291185
0.00326882
0.00364522
0.00403627
0.00443596
0.00483724
0.00523225
0.00561275
0.00597054
0.00629802
0.00658868
0.00683758
0.00704169
0.00720002
0.00731354
0.00738587
0.00742088
0.00743026
0.00741312
0.00737826
0.00733244
0.00728361
0.00723673
0.00719672
0.00716921
0.0071569
0.00715503
0.00717297
0.00720944
0.00726419
0.00733706
0.00742758
0.00753507
0.00765876
0.00779778
0.0079512
0.00811804
0.00829727
0.00848772
0.00868806
0.00889671
0.00911168
0.0093305
0.00955002
0.00976626
0.00997439
0.0101683
0.0103399
0.01048
0.0105739
0.0106113
0.0105916
0.0104983
0.0103063
0.010012
0.00960927
0.00909688
0.0084804
0.0077728
0.00699484
0.00617364
0.00534023
0.00452609
0.0037597
0.0030635
0.00245221
0.00193264
0.0015049
0.00116462
0.000905761
0.000723837
0.000620955
0.000614012
0.00077862
0.0015927
8.06418e-05
3.86457e-05
2.77428e-05
2.34185e-05
2.16096e-05
2.10671e-05
2.12609e-05
2.19184e-05
2.28831e-05
2.40467e-05
2.53361e-05
2.66983e-05
2.80941e-05
2.94945e-05
3.08788e-05
3.22334e-05
3.35505e-05
3.48283e-05
3.60701e-05
3.72842e-05
3.84843e-05
3.96888e-05
4.09217e-05
4.22125e-05
4.35973e-05
4.51194e-05