/*--------------------------------*- C++ -*----------------------------------*\
  =========                 |
  \\      /  F ield         | OpenFOAM: The Open Source CFD Toolbox
   \\    /   O peration     | Website:  https://openfoam.org
    \\  /    A nd           | Version:  12
     \\/     M anipulation  |
\*---------------------------------------------------------------------------*/
FoamFile
{
    format      ascii;
    class       volScalarField;
    location    "3";
    object      nut;
}
// * * * * * * * * * * * * * * * * * * * * * * * * * * * * * * * * * * * * * //

dimensions      [0 2 -1 0 0 0 0];

internalField   nonuniform List<scalar> 
18225
(
7.19846e-15
4.87008e-14
1.08441e-13
1.79646e-13
2.5914e-13
3.4486e-13
4.35219e-13
5.28861e-13
6.2457e-13
7.21222e-13
8.17768e-13
9.13236e-13
1.00674e-12
1.09747e-12
1.18477e-12
1.26805e-12
1.34689e-12
1.421e-12
1.49026e-12
1.55467e-12
1.61442e-12
1.66986e-12
1.72148e-12
1.76997e-12
1.81617e-12
1.86109e-12
1.90594e-12
1.95208e-12
2.00112e-12
2.05485e-12
2.11531e-12
2.18476e-12
2.26575e-12
2.36113e-12
2.47402e-12
2.60788e-12
2.7665e-12
2.95401e-12
3.17488e-12
3.43391e-12
3.73623e-12
4.08726e-12
4.4927e-12
4.9585e-12
5.4908e-12
6.09588e-12
6.78015e-12
7.55008e-12
8.41212e-12
9.37274e-12
1.04383e-11
1.16151e-11
1.29091e-11
1.43264e-11
1.58727e-11
1.75534e-11
1.93738e-11
2.13389e-11
2.34534e-11
2.57218e-11
2.81482e-11
3.07364e-11
3.349e-11
3.6412e-11
3.95052e-11
4.2772e-11
4.62141e-11
4.9833e-11
5.36293e-11
5.76032e-11
6.17545e-11
6.60821e-11
7.05845e-11
7.52595e-11
8.01044e-11
8.51157e-11
9.02895e-11
9.56209e-11
1.01105e-10
1.06734e-10
1.12501e-10
1.18398e-10
1.24414e-10
1.30536e-10
1.3675e-10
1.43041e-10
1.49387e-10
1.55766e-10
1.62151e-10
1.68512e-10
1.74812e-10
1.8101e-10
1.87059e-10
1.92905e-10
1.98487e-10
2.03739e-10
2.08584e-10
2.12942e-10
2.16716e-10
2.19808e-10
2.22112e-10
2.2342e-10
2.23873e-10
2.23422e-10
2.21751e-10
2.18813e-10
2.1458e-10
2.09035e-10
2.02185e-10
1.94069e-10
1.84766e-10
1.74392e-10
1.63103e-10
1.51091e-10
1.38576e-10
1.25795e-10
1.12991e-10
1.00403e-10
8.82475e-11
7.67154e-11
6.59579e-11
5.60843e-11
4.71603e-11
3.921e-11
3.22207e-11
2.61491e-11
2.09289e-11
1.64785e-11
1.27068e-11
9.52229e-12
6.83848e-12
4.58207e-12
2.70376e-12
1.19947e-12
1.76898e-13
2.17575e-13
7.09744e-12
1.78142e-11
3.02608e-11
4.40306e-11
5.88256e-11
7.43945e-11
9.05149e-11
1.06982e-10
1.23606e-10
1.40206e-10
1.56618e-10
1.72687e-10
1.88277e-10
2.03271e-10
2.17571e-10
2.31104e-10
2.43819e-10
2.55694e-10
2.66732e-10
2.76965e-10
2.8645e-10
2.95276e-10
3.03558e-10
3.11441e-10
3.19098e-10
3.26735e-10
3.34589e-10
3.42932e-10
3.52071e-10
3.62354e-10
3.74171e-10
3.87958e-10
4.04198e-10
4.2343e-10
4.46244e-10
4.73288e-10
5.0527e-10
5.42954e-10
5.87162e-10
6.3877e-10
6.98707e-10
7.67947e-10
8.47505e-10
9.38429e-10
1.04179e-09
1.15869e-09
1.29021e-09
1.43746e-09
1.60151e-09
1.78347e-09
1.98436e-09
2.20523e-09
2.44705e-09
2.71078e-09
2.99734e-09
3.30758e-09
3.64231e-09
4.0023e-09
4.38825e-09
4.80082e-09
5.2406e-09
5.70814e-09
6.20389e-09
6.72826e-09
7.28158e-09
7.86407e-09
8.47588e-09
9.11706e-09
9.78759e-09
1.04873e-08
1.1216e-08
1.19734e-08
1.2759e-08
1.35723e-08
1.44127e-08
1.52796e-08
1.61722e-08
1.70896e-08
1.80307e-08
1.89944e-08
1.99793e-08
2.09839e-08
2.20064e-08
2.30444e-08
2.40956e-08
2.5157e-08
2.6225e-08
2.72957e-08
2.83642e-08
2.94249e-08
3.04714e-08
3.14962e-08
3.24906e-08
3.34448e-08
3.43479e-08
3.51876e-08
3.59501e-08
3.66194e-08
3.71783e-08
3.76049e-08
3.78566e-08
3.79655e-08
3.79301e-08
3.76844e-08
3.72224e-08
3.65383e-08
3.56279e-08
3.4491e-08
3.31331e-08
3.15663e-08
2.98103e-08
2.78915e-08
2.58432e-08
2.37035e-08
2.15142e-08
1.93182e-08
1.71574e-08
1.50705e-08
1.30909e-08
1.12453e-08
9.55281e-09
8.02473e-09
6.66509e-09
5.4714e-09
4.43586e-09
3.54661e-09
2.78897e-09
2.1476e-09
1.60633e-09
1.14982e-09
7.64685e-10
4.40855e-10
1.73952e-10
5.34609e-12
4.6179e-13
3.79932e-11
1.22124e-10
2.21764e-10
3.30653e-10
4.46735e-10
5.68366e-10
6.93997e-10
8.2214e-10
9.5137e-10
1.08032e-09
1.20773e-09
1.3324e-09
1.45328e-09
1.56945e-09
1.68016e-09
1.78484e-09
1.88309e-09
1.97474e-09
2.05983e-09
2.13858e-09
2.21147e-09
2.27916e-09
2.34256e-09
2.40279e-09
2.46119e-09
2.51935e-09
2.57909e-09
2.64252e-09
2.712e-09
2.7902e-09
2.88013e-09
2.98514e-09
3.10894e-09
3.25567e-09
3.42986e-09
3.63651e-09
3.88102e-09
4.16926e-09
4.50753e-09
4.90253e-09
5.36136e-09
5.89145e-09
6.5005e-09
7.19646e-09
7.98744e-09
8.88162e-09
9.88724e-09
1.10124e-08
1.22653e-08
1.36537e-08
1.51852e-08
1.68672e-08
1.87068e-08
2.07105e-08
2.28847e-08
2.5235e-08
2.77669e-08
3.04852e-08
3.33942e-08
3.6498e-08
3.97997e-08
4.33023e-08
4.7008e-08
5.09184e-08
5.50348e-08
5.93573e-08
6.38858e-08
6.86191e-08
7.35558e-08
7.86937e-08
8.403e-08
8.95613e-08
9.52837e-08
1.01193e-07
1.07285e-07
1.13554e-07
1.19996e-07
1.26604e-07
1.33373e-07
1.40295e-07
1.47364e-07
1.54571e-07
1.61906e-07
1.69357e-07
1.7691e-07
1.8455e-07
1.92255e-07
2.00003e-07
2.07766e-07
2.15509e-07
2.23192e-07
2.30767e-07
2.38176e-07
2.45355e-07
2.52225e-07
2.58701e-07
2.64686e-07
2.70063e-07
2.74701e-07
2.78495e-07
2.80935e-07
2.8241e-07
2.8293e-07
2.81855e-07
2.79146e-07
2.74743e-07
2.68587e-07
2.6065e-07
2.50949e-07
2.39559e-07
2.26616e-07
2.12316e-07
1.96914e-07
1.80713e-07
1.64046e-07
1.47263e-07
1.30705e-07
1.1469e-07
9.94914e-08
8.53281e-08
7.2355e-08
6.06632e-08
5.02832e-08
4.11926e-08
3.33266e-08
2.65885e-08
2.08609e-08
1.6017e-08
1.19266e-08
8.46387e-09
5.51512e-09
2.99171e-09
9.28479e-10
1.13377e-11
7.54417e-13
8.90984e-11
3.66705e-10
7.33572e-10
1.13869e-09
1.56854e-09
2.01678e-09
2.47821e-09
2.9478e-09
3.42061e-09
3.89184e-09
4.35691e-09
4.81156e-09
5.25194e-09
5.6747e-09
6.07711e-09
6.45704e-09
6.8131e-09
7.14464e-09
7.45178e-09
7.7354e-09
7.9972e-09
8.23966e-09
8.46603e-09
8.68039e-09
8.88764e-09
9.09349e-09
9.30455e-09
9.52837e-09
9.77348e-09
1.00495e-08
1.03672e-08
1.07385e-08
1.11769e-08
1.1697e-08
1.23151e-08
1.30491e-08
1.39181e-08
1.49431e-08
1.61463e-08
1.75516e-08
1.91839e-08
2.10692e-08
2.32346e-08
2.57074e-08
2.85157e-08
3.16873e-08
3.525e-08
3.92309e-08
4.36565e-08
4.85521e-08
5.39418e-08
5.98483e-08
6.62926e-08
7.32937e-08
8.0869e-08
8.90335e-08
9.78004e-08
1.07181e-07
1.17183e-07
1.27815e-07
1.3908e-07
1.50981e-07
1.63518e-07
1.76691e-07
1.90494e-07
2.04923e-07
2.19968e-07
2.35621e-07
2.51871e-07
2.68705e-07
2.86111e-07
3.04076e-07
3.22584e-07
3.41624e-07
3.61183e-07
3.81248e-07
4.01809e-07
4.22857e-07
4.44381e-07
4.66373e-07
4.88824e-07
5.11721e-07
5.35053e-07
5.58801e-07
5.82945e-07
6.07455e-07
6.32294e-07
6.57411e-07
6.82742e-07
7.08207e-07
7.33699e-07
7.59088e-07
7.84209e-07
8.08863e-07
8.32817e-07
8.55792e-07
8.77471e-07
8.97503e-07
9.15546e-07
9.31002e-07
9.41702e-07
9.4976e-07
9.54953e-07
9.54705e-07
9.48881e-07
9.37194e-07
9.19338e-07
8.9511e-07
8.64471e-07
8.27591e-07
7.84877e-07
7.36973e-07
6.84754e-07
6.29289e-07
5.7179e-07
5.13538e-07
4.55808e-07
3.99792e-07
3.46526e-07
2.96842e-07
2.51333e-07
2.10351e-07
1.74019e-07
1.42259e-07
1.14834e-07
9.13875e-08
7.14873e-08
5.46606e-08
4.04201e-08
2.82912e-08
1.78507e-08
8.88379e-09
2.17342e-09
1.84867e-11
1.08584e-12
1.50258e-10
7.44268e-10
1.65098e-09
2.696e-09
3.81278e-09
4.97587e-09
6.17016e-09
7.38286e-09
8.60168e-09
9.81462e-09
1.10101e-08
1.21774e-08
1.33066e-08
1.43891e-08
1.54178e-08
1.63874e-08
1.72941e-08
1.81364e-08
1.89146e-08
1.96309e-08
2.02898e-08
2.08976e-08
2.14626e-08
2.19953e-08
2.2508e-08
2.30153e-08
2.35339e-08
2.40829e-08
2.46836e-08
2.53602e-08
2.61398e-08
2.70522e-08
2.81309e-08
2.94125e-08
3.09375e-08
3.27499e-08
3.48975e-08
3.74316e-08
4.0407e-08
4.38817e-08
4.79162e-08
5.25733e-08
5.79174e-08
6.40133e-08
7.09263e-08
7.87205e-08
8.74585e-08
9.72004e-08
1.08003e-07
1.19919e-07
1.32998e-07
1.47281e-07
1.62808e-07
1.7961e-07
1.97713e-07
2.17137e-07
2.37895e-07
2.59994e-07
2.83437e-07
3.0822e-07
3.34333e-07
3.61764e-07
3.90494e-07
4.20501e-07
4.51759e-07
4.8424e-07
5.17912e-07
5.5274e-07
5.88696e-07
6.25749e-07
6.6387e-07
7.03033e-07
7.43213e-07
7.84392e-07
8.2656e-07
8.69711e-07
9.13847e-07
9.58973e-07
1.0051e-06
1.05225e-06
1.10044e-06
1.14968e-06
1.2e-06
1.25139e-06
1.30387e-06
1.35743e-06
1.41202e-06
1.46759e-06
1.52406e-06
1.58129e-06
1.6391e-06
1.69724e-06
1.75538e-06
1.81309e-06
1.86987e-06
1.92509e-06
1.97799e-06
2.02814e-06
2.07482e-06
2.11472e-06
2.14491e-06
2.16936e-06
2.18812e-06
2.1943e-06
2.18757e-06
2.16716e-06
2.1322e-06
2.08206e-06
2.01647e-06
1.93569e-06
1.84052e-06
1.73238e-06
1.61324e-06
1.48557e-06
1.35224e-06
1.2163e-06
1.08086e-06
9.48839e-07
8.22839e-07
7.04968e-07
5.96771e-07
4.99198e-07
4.12625e-07
3.36926e-07
2.71561e-07
2.15683e-07
1.68236e-07
1.28048e-07
9.38987e-08
6.4605e-08
3.92263e-08
1.78502e-08
3.65652e-09
2.65245e-11
1.44914e-12
2.16768e-10
1.21714e-09
2.96305e-09
5.10749e-09
7.44901e-09
9.90079e-09
1.2419e-08
1.49732e-08
1.75368e-08
2.00845e-08
2.25923e-08
2.50376e-08
2.73996e-08
2.96605e-08
3.18051e-08
3.38222e-08
3.57041e-08
3.74474e-08
3.90526e-08
4.05247e-08
4.18728e-08
4.31101e-08
4.42541e-08
4.53262e-08
4.63522e-08
4.7362e-08
4.83898e-08
4.94745e-08
5.066e-08
5.19953e-08
5.3535e-08
5.53399e-08
5.74771e-08
6.00204e-08
6.30508e-08
6.6656e-08
7.0931e-08
7.59773e-08
8.19025e-08
8.88196e-08
9.68457e-08
1.06101e-07
1.16707e-07
1.28784e-07
1.42453e-07
1.57827e-07
1.75016e-07
1.94121e-07
2.15234e-07
2.38437e-07
2.63799e-07
2.91376e-07
3.21213e-07
3.53338e-07
3.87767e-07
4.24502e-07
4.63532e-07
5.04835e-07
5.48376e-07
5.94115e-07
6.42002e-07
6.9198e-07
7.43988e-07
7.97961e-07
8.53836e-07
9.11544e-07
9.7102e-07
1.0322e-06
1.09503e-06
1.1595e-06
1.22559e-06
1.29325e-06
1.36245e-06
1.43322e-06
1.50556e-06
1.57951e-06
1.65511e-06
1.73243e-06
1.81154e-06
1.89252e-06
1.97547e-06
2.06047e-06
2.14761e-06
2.23698e-06
2.32863e-06
2.42261e-06
2.51893e-06
2.61754e-06
2.71836e-06
2.8212e-06
2.92584e-06
3.03192e-06
3.13875e-06
3.24557e-06
3.35144e-06
3.45517e-06
3.55531e-06
3.65243e-06
3.7419e-06
3.81994e-06
3.88132e-06
3.93132e-06
3.97262e-06
3.99091e-06
3.98559e-06
3.9553e-06
3.89843e-06
3.81371e-06
3.70057e-06
3.55932e-06
3.39128e-06
3.19884e-06
2.98543e-06
2.75541e-06
2.51386e-06
2.2663e-06
2.01841e-06
1.7756e-06
1.54279e-06
1.32404e-06
1.12244e-06
9.3996e-07
7.77535e-07
6.35109e-07
5.11811e-07
4.06136e-07
3.16139e-07
2.39599e-07
1.74187e-07
1.17696e-07
6.87556e-08
2.89199e-08
5.25591e-09
3.52427e-11
1.83967e-12
2.87069e-10
1.75121e-09
4.60051e-09
8.35156e-09
1.25815e-08
1.70675e-08
2.16947e-08
2.63923e-08
3.11055e-08
3.57857e-08
4.03878e-08
4.48696e-08
4.9193e-08
5.33244e-08
5.72362e-08
6.09071e-08
6.43231e-08
6.74776e-08
7.03717e-08
7.30143e-08
7.5422e-08
7.76188e-08
7.96364e-08
8.15137e-08
8.32968e-08
8.50394e-08
8.68028e-08
8.86561e-08
9.06771e-08
9.29523e-08
9.55779e-08
9.86606e-08
1.02317e-07
1.06677e-07
1.1188e-07
1.18077e-07
1.2543e-07
1.34114e-07
1.44309e-07
1.56204e-07
1.69994e-07
1.85874e-07
2.0404e-07
2.24682e-07
2.47985e-07
2.7412e-07
3.03243e-07
3.35496e-07
3.70996e-07
4.09839e-07
4.52097e-07
4.97816e-07
5.47018e-07
5.99697e-07
6.55824e-07
7.1535e-07
7.78202e-07
8.44292e-07
9.13516e-07
9.8579e-07
1.06099e-06
1.139e-06
1.2197e-06
1.30298e-06
1.38873e-06
1.47687e-06
1.56729e-06
1.6599e-06
1.75466e-06
1.85151e-06
1.95043e-06
2.05146e-06
2.15464e-06
2.26002e-06
2.36769e-06
2.47776e-06
2.59039e-06
2.70572e-06
2.82394e-06
2.94525e-06
3.06985e-06
3.19796e-06
3.32978e-06
3.46549e-06
3.60525e-06
3.74917e-06
3.8973e-06
4.04962e-06
4.20596e-06
4.36604e-06
4.52934e-06
4.69514e-06
4.86264e-06
5.0306e-06
5.19746e-06
5.3613e-06
5.5198e-06
5.67402e-06
5.81498e-06
5.93917e-06
6.03837e-06
6.11623e-06
6.18303e-06
6.21409e-06
6.20795e-06
6.16315e-06
6.07748e-06
5.94917e-06
5.77743e-06
5.56278e-06
5.30718e-06
5.01413e-06
4.68861e-06
4.33697e-06
3.96665e-06
3.5858e-06
3.20288e-06
2.82609e-06
2.463e-06
2.12004e-06
1.80226e-06
1.51309e-06
1.25437e-06
1.02637e-06
8.28039e-07
6.5726e-07
5.11085e-07
3.86033e-07
2.78433e-07
1.8497e-07
1.04354e-07
4.12189e-08
6.92472e-09
4.44858e-11
2.25422e-12
3.60625e-10
2.32498e-09
6.48158e-09
1.23223e-08
1.91609e-08
2.65488e-08
3.42336e-08
4.20618e-08
4.99249e-08
5.77335e-08
6.54078e-08
7.2875e-08
8.00697e-08
8.6935e-08
9.34234e-08
9.94991e-08
1.05138e-07
1.10328e-07
1.15072e-07
1.19382e-07
1.23288e-07
1.26828e-07
1.30054e-07
1.33029e-07
1.3583e-07
1.38543e-07
1.41267e-07
1.44114e-07
1.47208e-07
1.50688e-07
1.54706e-07
1.59432e-07
1.6505e-07
1.71761e-07
1.79786e-07
1.89358e-07
2.00727e-07
2.14159e-07
2.29928e-07
2.48316e-07
2.69611e-07
2.94097e-07
3.22053e-07
3.53746e-07
3.89423e-07
4.2931e-07
4.736e-07
5.22457e-07
5.76003e-07
6.34322e-07
6.97457e-07
7.65411e-07
8.38154e-07
9.15605e-07
9.97658e-07
1.08418e-06
1.175e-06
1.26995e-06
1.36882e-06
1.47141e-06
1.57753e-06
1.68702e-06
1.7997e-06
1.91542e-06
2.03405e-06
2.15549e-06
2.27966e-06
2.40654e-06
2.53606e-06
2.66821e-06
2.803e-06
2.94055e-06
3.08094e-06
3.22434e-06
3.37092e-06
3.5209e-06
3.67452e-06
3.83208e-06
3.99388e-06
4.16024e-06
4.33152e-06
4.50805e-06
4.69016e-06
4.87813e-06
5.07221e-06
5.27255e-06
5.47922e-06
5.69212e-06
5.91099e-06
6.1353e-06
6.36426e-06
6.59676e-06
6.83141e-06
7.06633e-06
7.29918e-06
7.527e-06
7.74637e-06
7.95636e-06
8.14897e-06
8.31718e-06
8.45199e-06
8.55029e-06
8.63449e-06
8.67132e-06
8.6555e-06
8.58669e-06
8.46261e-06
8.28133e-06
8.04216e-06
7.74598e-06
7.39547e-06
6.99517e-06
6.55148e-06
6.07251e-06
5.56773e-06
5.04761e-06
4.52307e-06
4.00491e-06
3.5032e-06
3.02676e-06
2.5827e-06
2.17613e-06
1.81004e-06
1.48535e-06
1.20112e-06
9.54767e-07
7.4248e-07
5.59558e-07
4.00938e-07
2.62439e-07
1.4382e-07
5.41682e-08
8.64066e-09
5.41347e-11
2.69051e-12
4.37202e-10
2.92677e-09
8.53762e-09
1.6881e-08
2.70314e-08
3.82406e-08
5.00357e-08
6.21228e-08
7.42977e-08
8.64013e-08
9.8299e-08
1.09872e-07
1.21013e-07
1.31631e-07
1.41651e-07
1.51014e-07
1.59681e-07
1.67634e-07
1.74874e-07
1.81421e-07
1.87317e-07
1.92622e-07
1.97415e-07
2.01792e-07
2.05868e-07
2.09773e-07
2.13655e-07
2.17682e-07
2.22038e-07
2.26929e-07
2.3258e-07
2.39239e-07
2.47175e-07
2.56682e-07
2.68075e-07
2.81691e-07
2.97886e-07
3.17032e-07
3.39514e-07
3.65719e-07
3.96038e-07
4.30852e-07
4.70522e-07
5.1539e-07
5.65758e-07
6.21891e-07
6.84005e-07
7.5226e-07
8.26756e-07
9.07537e-07
9.94582e-07
1.08781e-06
1.18709e-06
1.29223e-06
1.40304e-06
1.51925e-06
1.64059e-06
1.7668e-06
1.89759e-06
2.03269e-06
2.17183e-06
2.31478e-06
2.46137e-06
2.6114e-06
2.76477e-06
2.92137e-06
3.08116e-06
3.24413e-06
3.41027e-06
3.57961e-06
3.75226e-06
3.92836e-06
4.10811e-06
4.29174e-06
4.47952e-06
4.67179e-06
4.86891e-06
5.07129e-06
5.27939e-06
5.49366e-06
5.71459e-06
5.94264e-06
6.17825e-06
6.42178e-06
6.6735e-06
6.93357e-06
7.20194e-06
7.47837e-06
7.76231e-06
8.05287e-06
8.34877e-06
8.6483e-06
8.94928e-06
9.24895e-06
9.54397e-06
9.83036e-06
1.01038e-05
1.03599e-05
1.05915e-05
1.07937e-05
1.09531e-05
1.10603e-05
1.11426e-05
1.1174e-05
1.11361e-05
1.1032e-05
1.08599e-05
1.06183e-05
1.03068e-05
9.92674e-06
9.48136e-06
8.97608e-06
8.41833e-06
7.81748e-06
7.18455e-06
6.53173e-06
5.87188e-06
5.21786e-06
4.58187e-06
3.97483e-06
3.40578e-06
2.88148e-06
2.40624e-06
1.98181e-06
1.60759e-06
1.28083e-06
9.97065e-07
7.50539e-07
5.35077e-07
3.46095e-07
1.85364e-07
6.74176e-08
1.03897e-08
6.40961e-11
3.14685e-12
5.16661e-10
3.55059e-09
1.07193e-08
2.18937e-08
3.59872e-08
5.19155e-08
6.89088e-08
8.64571e-08
1.04209e-07
1.21899e-07
1.39305e-07
1.56239e-07
1.72536e-07
1.88056e-07
2.02681e-07
2.16324e-07
2.28924e-07
2.4045e-07
2.50902e-07
2.60308e-07
2.68727e-07
2.76244e-07
2.82971e-07
2.89047e-07
2.94632e-07
2.99914e-07
3.05102e-07
3.10431e-07
3.1616e-07
3.22577e-07
3.29994e-07
3.38755e-07
3.49231e-07
3.61823e-07
3.7696e-07
3.95099e-07
4.16715e-07
4.42302e-07
4.72364e-07
5.07406e-07
5.47924e-07
5.94395e-07
6.47263e-07
7.06932e-07
7.73749e-07
8.47996e-07
9.29885e-07
1.01955e-06
1.11704e-06
1.22232e-06
1.3353e-06
1.45577e-06
1.58351e-06
1.7182e-06
1.8595e-06
2.00706e-06
2.16049e-06
2.31941e-06
2.48349e-06
2.65236e-06
2.82573e-06
3.00335e-06
3.185e-06
3.37052e-06
3.55979e-06
3.75274e-06
3.94934e-06
4.14963e-06
4.35362e-06
4.56142e-06
4.77316e-06
4.98905e-06
5.20935e-06
5.43438e-06
5.66452e-06
5.90021e-06
6.14192e-06
6.39021e-06
6.64565e-06
6.90884e-06
7.18039e-06
7.46088e-06
7.7508e-06
8.05054e-06
8.36032e-06
8.68012e-06
9.0097e-06
9.34847e-06
9.69541e-06
1.00491e-05
1.04075e-05
1.07681e-05
1.11277e-05
1.14827e-05
1.18287e-05
1.21605e-05
1.24729e-05
1.27599e-05
1.3014e-05
1.32281e-05
1.33982e-05
1.3499e-05
1.35593e-05
1.35725e-05
1.35009e-05
1.33519e-05
1.31255e-05
1.28204e-05
1.24366e-05
1.1976e-05
1.14421e-05
1.08408e-05
1.01802e-05
9.47037e-06
8.72315e-06
7.95191e-06
7.17083e-06
6.39431e-06
5.63621e-06
4.90918e-06
4.22395e-06
3.58883e-06
3.0094e-06
2.48838e-06
2.02565e-06
1.61853e-06
1.26212e-06
9.49874e-07
6.74829e-07
4.32547e-07
2.27683e-07
8.07573e-08
1.21615e-08
7.42976e-11
3.62202e-12
5.98905e-10
4.19345e-09
1.29942e-08
2.72495e-08
4.5817e-08
6.72837e-08
9.05259e-08
1.14746e-07
1.39381e-07
1.64005e-07
1.88279e-07
2.11918e-07
2.34671e-07
2.56331e-07
2.76724e-07
2.9572e-07
3.13227e-07
3.29198e-07
3.43628e-07
3.56553e-07
3.6805e-07
3.78234e-07
3.87258e-07
3.95308e-07
4.02604e-07
4.09397e-07
4.15972e-07
4.22642e-07
4.29757e-07
4.37698e-07
4.46882e-07
4.57763e-07
4.70831e-07
4.8661e-07
5.05659e-07
5.28567e-07
5.55943e-07
5.88416e-07
6.26616e-07
6.71168e-07
7.22676e-07
7.81709e-07
8.48788e-07
9.24366e-07
1.00882e-06
1.10244e-06
1.20542e-06
1.31783e-06
1.43966e-06
1.57078e-06
1.71099e-06
1.85997e-06
2.01735e-06
2.18271e-06
2.35558e-06
2.53549e-06
2.72196e-06
2.91452e-06
3.11277e-06
3.31629e-06
3.52476e-06
3.73791e-06
3.95551e-06
4.1774e-06
4.40346e-06
4.63363e-06
4.8679e-06
5.10629e-06
5.34887e-06
5.59574e-06
5.84708e-06
6.10315e-06
6.36426e-06
6.63081e-06
6.90327e-06
7.18219e-06
7.46819e-06
7.76194e-06
8.06415e-06
8.37556e-06
8.69685e-06
9.02867e-06
9.37151e-06
9.72566e-06
1.00912e-05
1.04677e-05
1.08546e-05
1.12507e-05
1.16544e-05
1.20633e-05
1.24748e-05
1.28852e-05
1.32905e-05
1.36859e-05
1.40662e-05
1.44256e-05
1.47578e-05
1.50562e-05
1.53136e-05
1.55234e-05
1.56799e-05
1.57595e-05
1.57846e-05
1.57677e-05
1.56545e-05
1.54554e-05
1.51724e-05
1.4805e-05
1.43537e-05
1.38204e-05
1.32088e-05
1.25249e-05
1.17766e-05
1.09744e-05
1.01304e-05
9.25861e-06
8.3739e-06
7.49172e-06
6.62721e-06
5.7944e-06
5.00547e-06
4.27017e-06
3.59531e-06
2.98454e-06
2.43838e-06
1.95434e-06
1.52728e-06
1.1501e-06
8.15355e-07
5.19235e-07
2.69894e-07
9.40607e-08
1.39485e-08
8.46853e-11
4.11511e-12
6.83861e-10
4.85391e-09
1.53424e-08
3.28652e-08
5.63311e-08
8.40442e-08
1.14495e-07
1.46537e-07
1.79331e-07
2.12242e-07
2.44763e-07
2.76473e-07
3.07015e-07
3.36091e-07
3.63457e-07
3.88921e-07
4.12352e-07
4.33676e-07
4.52878e-07
4.7e-07
4.85139e-07
4.98442e-07
5.10108e-07
5.2038e-07
5.29542e-07
5.37922e-07
5.45889e-07
5.5385e-07
5.62255e-07
5.71596e-07
5.82409e-07
5.95272e-07
6.10807e-07
6.29681e-07
6.52596e-07
6.80287e-07
7.13512e-07
7.53039e-07
7.99634e-07
8.54046e-07
9.16989e-07
9.89121e-07
1.07103e-06
1.16322e-06
1.26607e-06
1.37987e-06
1.50477e-06
1.64079e-06
1.78783e-06
1.94565e-06
2.11394e-06
2.29225e-06
2.48008e-06
2.67689e-06
2.8821e-06
3.09511e-06
3.31537e-06
3.54233e-06
3.7755e-06
4.01444e-06
4.2588e-06
4.50824e-06
4.76255e-06
5.02152e-06
5.28503e-06
5.553e-06
5.82537e-06
6.10216e-06
6.38342e-06
6.66926e-06
6.95989e-06
7.25558e-06
7.55671e-06
7.86376e-06
8.17732e-06
8.49805e-06
8.82672e-06
9.16414e-06
9.51114e-06
9.86856e-06
1.02371e-05
1.06174e-05
1.10099e-05
1.14145e-05
1.18312e-05
1.22588e-05
1.26962e-05
1.31415e-05
1.35921e-05
1.4045e-05
1.44959e-05
1.49411e-05
1.53756e-05
1.57938e-05
1.61895e-05
1.65567e-05
1.68891e-05
1.71796e-05
1.7422e-05
1.76102e-05
1.77386e-05
1.77866e-05
1.77568e-05
1.77066e-05
1.75494e-05
1.7299e-05
1.69612e-05
1.65366e-05
1.60257e-05
1.54304e-05
1.47542e-05
1.40027e-05
1.31836e-05
1.23069e-05
1.13846e-05
1.04309e-05
9.46078e-06
8.49046e-06
7.53593e-06
6.61236e-06
5.73322e-06
4.90955e-06
4.14936e-06
3.45731e-06
2.83456e-06
2.27892e-06
1.78516e-06
1.34581e-06
9.53176e-07
6.04396e-07
3.11441e-07
1.07254e-07
1.57454e-08
9.52224e-11
4.62546e-12
7.71481e-10
5.53133e-09
1.7752e-08
3.86813e-08
6.73744e-08
1.0192e-07
1.40412e-07
1.81318e-07
2.23463e-07
2.65946e-07
3.08048e-07
3.49177e-07
3.88833e-07
4.26601e-07
4.62141e-07
4.95189e-07
5.25558e-07
5.53141e-07
5.77907e-07
5.99899e-07
6.19234e-07
6.36093e-07
6.50722e-07
6.63427e-07
6.74566e-07
6.84551e-07
6.93844e-07
7.02958e-07
7.12457e-07
7.22956e-07
7.35123e-07
7.49679e-07
7.67397e-07
7.89099e-07
8.15647e-07
8.47937e-07
8.86885e-07
9.33414e-07
9.88431e-07
1.05281e-06
1.12738e-06
1.21288e-06
1.30997e-06
1.41918e-06
1.54091e-06
1.67542e-06
1.82282e-06
1.98305e-06
2.15592e-06
2.34109e-06
2.5381e-06
2.74641e-06
2.96539e-06
3.19434e-06
3.43259e-06
3.67944e-06
3.93423e-06
4.19633e-06
4.46519e-06
4.74032e-06
5.02128e-06
5.30771e-06
5.59932e-06
5.89586e-06
6.19714e-06
6.50301e-06
6.81339e-06
7.12821e-06
7.44751e-06
7.77138e-06
8.10004e-06
8.4338e-06
8.77312e-06
9.11859e-06
9.47092e-06
9.83095e-06
1.01996e-05
1.05778e-05
1.09665e-05
1.13666e-05
1.17786e-05
1.22032e-05
1.26406e-05
1.30901e-05
1.35514e-05
1.40225e-05
1.45005e-05
1.49825e-05
1.54667e-05
1.59493e-05
1.64258e-05
1.689e-05
1.73364e-05
1.77591e-05
1.81523e-05
1.85094e-05
1.88244e-05
1.90913e-05
1.93035e-05
1.94557e-05
1.95438e-05
1.95545e-05
1.94741e-05
1.93605e-05
1.91742e-05
1.88748e-05
1.84871e-05
1.80123e-05
1.74512e-05
1.68056e-05
1.60785e-05
1.52746e-05
1.44011e-05
1.34671e-05
1.24844e-05
1.14664e-05
1.04283e-05
9.3864e-06
8.3574e-06
7.35737e-06
6.40092e-06
5.50033e-06
4.66481e-06
3.90006e-06
3.20799e-06
2.58678e-06
2.03121e-06
1.53357e-06
1.08606e-06
6.86933e-07
3.52003e-07
1.20299e-07
1.75495e-08
1.05888e-10
5.15265e-12
8.61735e-10
6.22553e-09
2.02167e-08
4.46579e-08
7.88284e-08
1.20673e-07
1.67904e-07
2.18576e-07
2.71136e-07
3.24366e-07
3.77289e-07
4.29101e-07
4.79128e-07
5.2681e-07
5.71688e-07
6.13406e-07
6.51707e-07
6.86436e-07
7.17538e-07
7.45054e-07
7.69114e-07
7.89935e-07
8.07814e-07
8.23122e-07
8.36296e-07
8.47842e-07
8.58324e-07
8.68372e-07
8.78675e-07
8.89988e-07
9.03126e-07
9.18969e-07
9.38458e-07
9.62587e-07
9.92396e-07
1.02896e-06
1.07336e-06
1.1267e-06
1.19001e-06
1.26433e-06
1.35057e-06
1.44957e-06
1.56204e-06
1.68856e-06
1.82952e-06
1.98515e-06
2.15552e-06
2.34048e-06
2.53974e-06
2.75287e-06
2.97926e-06
3.21825e-06
3.46907e-06
3.73092e-06
4.00298e-06
4.28445e-06
4.57456e-06
4.8726e-06
5.17791e-06
5.48991e-06
5.80809e-06
6.13198e-06
6.46121e-06
6.79541e-06
7.13431e-06
7.47764e-06
7.82523e-06
8.17696e-06
8.5328e-06
8.89285e-06
9.25735e-06
9.62669e-06
1.00014e-05
1.03823e-05
1.07703e-05
1.11663e-05
1.15714e-05
1.19867e-05
1.24132e-05
1.28519e-05
1.33029e-05
1.37666e-05
1.4243e-05
1.47304e-05
1.52255e-05
1.57279e-05
1.62363e-05
1.67474e-05
1.7255e-05
1.77541e-05
1.82393e-05
1.87054e-05
1.91464e-05
1.95565e-05
1.993e-05
2.02613e-05
2.05449e-05
2.07756e-05
2.09485e-05
2.10589e-05
2.11008e-05
2.10688e-05
2.09382e-05
2.07594e-05
2.05282e-05
2.01984e-05
1.97667e-05
1.92496e-05
1.86479e-05
1.79633e-05
1.7198e-05
1.63559e-05
1.54429e-05
1.44674e-05
1.34401e-05
1.23738e-05
1.12833e-05
1.01847e-05
9.09525e-06
8.03158e-06
7.0094e-06
6.04219e-06
5.14042e-06
4.31089e-06
3.55635e-06
2.87548e-06
2.26317e-06
1.71156e-06
1.21281e-06
7.66269e-07
3.91432e-07
1.33187e-07
1.93606e-08
1.16676e-10
5.69643e-12
9.54615e-10
6.93659e-09
2.27332e-08
5.07694e-08
9.06078e-08
1.40115e-07
1.96647e-07
2.57839e-07
3.21728e-07
3.86737e-07
4.51589e-07
5.15231e-07
5.76781e-07
6.35505e-07
6.90802e-07
7.42203e-07
7.89365e-07
8.32074e-07
8.70238e-07
9.03888e-07
9.33165e-07
9.58319e-07
9.79697e-07
9.97737e-07
1.01296e-06
1.02598e-06
1.03745e-06
1.04816e-06
1.05891e-06
1.07061e-06
1.08426e-06
1.1009e-06
1.12167e-06
1.14774e-06
1.18036e-06
1.2208e-06
1.27032e-06
1.33019e-06
1.40163e-06
1.48579e-06
1.5837e-06
1.6963e-06
1.82435e-06
1.96844e-06
2.12898e-06
2.30616e-06
2.49999e-06
2.71024e-06
2.93653e-06
3.17828e-06
3.43479e-06
3.70523e-06
3.9887e-06
4.28427e-06
4.59099e-06
4.90792e-06
5.23416e-06
5.56889e-06
5.91133e-06
6.26075e-06
6.61652e-06
6.97804e-06
7.34477e-06
7.71622e-06
8.09195e-06
8.47159e-06
8.85484e-06
9.24151e-06
9.63155e-06
1.00251e-05
1.04224e-05
1.0824e-05
1.12307e-05
1.16434e-05
1.20631e-05
1.24912e-05
1.2929e-05
1.33774e-05
1.38374e-05
1.43103e-05
1.47951e-05
1.52919e-05
1.57963e-05
1.63099e-05
1.68351e-05
1.73658e-05
1.78957e-05
1.84209e-05
1.89363e-05
1.94366e-05
1.99162e-05
2.03694e-05
2.07907e-05
2.11746e-05
2.15161e-05
2.18103e-05
2.20526e-05
2.22389e-05
2.23651e-05
2.24277e-05
2.24234e-05
2.23492e-05
2.21785e-05
2.1941e-05
2.16613e-05
2.12883e-05
2.08301e-05
2.0278e-05
1.96442e-05
1.89305e-05
1.8138e-05
1.72697e-05
1.63301e-05
1.53264e-05
1.42683e-05
1.31674e-05
1.20379e-05
1.08957e-05
9.75777e-06
8.64156e-06
7.56364e-06
6.5387e-06
5.57849e-06
4.69103e-06
3.88006e-06
3.14485e-06
2.48054e-06
1.8792e-06
1.333e-06
8.42217e-07
4.29705e-07
1.4593e-07
2.11807e-08
1.27595e-10
6.25671e-12
1.05013e-09
7.66478e-09
2.53006e-08
5.7001e-08
1.02655e-07
1.60099e-07
2.26376e-07
2.98699e-07
3.74674e-07
4.52337e-07
5.30074e-07
6.06548e-07
6.80638e-07
7.51411e-07
8.18099e-07
8.80099e-07
9.36967e-07
9.88412e-07
1.0343e-06
1.07463e-06
1.10957e-06
1.13938e-06
1.16446e-06
1.18532e-06
1.20257e-06
1.21692e-06
1.22916e-06
1.24019e-06
1.25098e-06
1.26262e-06
1.27627e-06
1.29318e-06
1.31469e-06
1.3422e-06
1.37717e-06
1.42106e-06
1.47537e-06
1.54153e-06
1.62094e-06
1.71488e-06
1.82452e-06
1.95086e-06
2.09472e-06
2.25673e-06
2.43728e-06
2.63653e-06
2.85442e-06
3.09064e-06
3.34468e-06
3.61585e-06
3.90331e-06
4.20607e-06
4.5231e-06
4.85329e-06
5.19555e-06
5.54877e-06
5.91192e-06
6.28398e-06
6.66401e-06
7.05113e-06
7.4445e-06
7.84335e-06
8.24693e-06
8.65458e-06
9.06569e-06
9.47973e-06
9.8963e-06
1.03152e-05
1.07363e-05
1.11598e-05
1.15863e-05
1.20163e-05
1.2451e-05
1.28915e-05
1.3339e-05
1.37952e-05
1.42615e-05
1.4739e-05
1.52279e-05
1.57308e-05
1.62395e-05
1.67578e-05
1.72909e-05
1.78313e-05
1.83764e-05
1.89221e-05
1.94606e-05
1.99882e-05
2.04994e-05
2.09886e-05
2.14503e-05
2.18791e-05
2.22699e-05
2.2618e-05
2.2919e-05
2.31692e-05
2.33648e-05
2.35027e-05
2.35798e-05
2.35933e-05
2.35409e-05
2.34208e-05
2.32125e-05
2.29253e-05
2.26124e-05
2.22027e-05
2.17133e-05
2.11357e-05
2.04735e-05
1.97383e-05
1.89273e-05
1.80423e-05
1.70864e-05
1.60654e-05
1.49877e-05
1.38637e-05
1.27065e-05
1.15314e-05
1.03553e-05
9.19597e-06
8.07074e-06
6.99549e-06
5.98333e-06
5.04361e-06
4.1812e-06
3.39617e-06
2.684e-06
2.03681e-06
1.44675e-06
9.14877e-07
4.66893e-07
1.58558e-07
2.30135e-08
1.38664e-10
6.83356e-12
1.14832e-09
8.41053e-09
2.79195e-08
6.33451e-08
1.14931e-07
1.8052e-07
2.56884e-07
3.40819e-07
4.29491e-07
5.20524e-07
6.11943e-07
7.02095e-07
7.89595e-07
8.73283e-07
9.52205e-07
1.0256e-06
1.09291e-06
1.15376e-06
1.20795e-06
1.25545e-06
1.29642e-06
1.33116e-06
1.36011e-06
1.38384e-06
1.40305e-06
1.41856e-06
1.4313e-06
1.4423e-06
1.45271e-06
1.46381e-06
1.47694e-06
1.49359e-06
1.51533e-06
1.54379e-06
1.58066e-06
1.62765e-06
1.68647e-06
1.75875e-06
1.84605e-06
1.94982e-06
2.07132e-06
2.21165e-06
2.37169e-06
2.55208e-06
2.75319e-06
2.97516e-06
3.21784e-06
3.48082e-06
3.76348e-06
4.06499e-06
4.38433e-06
4.72038e-06
5.07191e-06
5.43765e-06
5.81629e-06
6.20657e-06
6.60722e-06
7.01704e-06
7.43485e-06
7.85956e-06
8.29009e-06
8.72542e-06
9.16459e-06
9.60672e-06
1.0051e-05
1.04968e-05
1.09436e-05
1.13912e-05
1.18396e-05
1.22892e-05
1.27407e-05
1.3195e-05
1.36535e-05
1.41177e-05
1.45891e-05
1.50694e-05
1.55605e-05
1.60636e-05
1.65741e-05
1.70961e-05
1.76284e-05
1.81744e-05
1.87284e-05
1.92812e-05
1.98356e-05
2.03885e-05
2.09258e-05
2.14458e-05
2.19429e-05
2.24115e-05
2.28465e-05
2.32429e-05
2.35965e-05
2.39032e-05
2.41596e-05
2.43627e-05
2.45098e-05
2.45987e-05
2.4627e-05
2.45925e-05
2.44936e-05
2.43282e-05
2.40873e-05
2.37597e-05
2.33988e-05
2.29652e-05
2.24464e-05
2.18643e-05
2.11808e-05
2.0419e-05
1.95953e-05
1.87005e-05
1.7736e-05
1.67058e-05
1.56171e-05
1.44791e-05
1.33034e-05
1.21044e-05
1.08987e-05
9.704e-06
8.53846e-06
7.41901e-06
6.36016e-06
5.37273e-06
4.46287e-06
3.63162e-06
2.87501e-06
2.18529e-06
1.55462e-06
9.84551e-07
5.03125e-07
1.71115e-07
2.4865e-08
1.49915e-10
7.42718e-12
1.24921e-09
9.17437e-09
3.05913e-08
6.97999e-08
1.27415e-07
2.01308e-07
2.88024e-07
3.83938e-07
4.85784e-07
5.90758e-07
6.965e-07
8.01022e-07
9.02648e-07
9.99972e-07
1.09183e-06
1.1773e-06
1.25568e-06
1.32648e-06
1.38945e-06
1.44453e-06
1.49184e-06
1.53172e-06
1.56464e-06
1.59124e-06
1.61232e-06
1.62881e-06
1.64176e-06
1.65237e-06
1.66199e-06
1.67206e-06
1.68419e-06
1.70009e-06
1.72158e-06
1.75057e-06
1.78899e-06
1.83882e-06
1.90197e-06
1.9803e-06
2.07555e-06
2.1893e-06
2.32295e-06
2.47767e-06
2.65439e-06
2.85376e-06
3.07614e-06
3.32161e-06
3.58993e-06
3.8806e-06
4.19285e-06
4.52569e-06
4.87794e-06
5.24827e-06
5.63526e-06
6.03741e-06
6.4532e-06
6.88111e-06
7.31965e-06
7.76733e-06
8.22273e-06
8.68445e-06
9.15115e-06
9.62153e-06
1.00944e-05
1.05686e-05
1.10432e-05
1.15174e-05
1.19907e-05
1.24631e-05
1.29346e-05
1.34059e-05
1.3878e-05
1.43524e-05
1.48308e-05
1.5315e-05
1.58066e-05
1.63071e-05
1.68194e-05
1.73405e-05
1.78649e-05
1.84132e-05
1.89681e-05
1.95307e-05
2.00972e-05
2.0658e-05
2.12101e-05
2.17642e-05
2.22928e-05
2.27977e-05
2.32736e-05
2.37155e-05
2.41185e-05
2.44786e-05
2.4792e-05
2.50556e-05
2.52666e-05
2.54231e-05
2.55228e-05
2.55637e-05
2.55441e-05
2.54625e-05
2.53179e-05
2.51094e-05
2.4835e-05
2.44766e-05
2.40682e-05
2.36158e-05
2.30751e-05
2.24636e-05
2.17906e-05
2.10186e-05
2.01726e-05
1.92699e-05
1.83015e-05
1.72676e-05
1.61743e-05
1.50291e-05
1.38419e-05
1.26263e-05
1.13979e-05
1.01744e-05
8.97437e-06
7.81573e-06
6.71442e-06
5.68282e-06
4.72855e-06
3.85384e-06
3.05546e-06
2.32591e-06
1.65735e-06
1.05167e-06
5.38571e-07
1.83653e-07
2.67421e-08
1.61386e-10
8.03788e-12
1.35289e-09
9.95697e-09
3.33182e-08
7.63669e-08
1.40095e-07
2.22421e-07
3.19689e-07
4.27862e-07
5.43246e-07
6.62601e-07
7.83168e-07
9.02605e-07
1.01893e-06
1.13046e-06
1.23583e-06
1.3339e-06
1.42385e-06
1.50506e-06
1.5772e-06
1.64016e-06
1.69406e-06
1.73922e-06
1.77617e-06
1.80562e-06
1.82844e-06
1.84569e-06
1.85857e-06
1.86844e-06
1.87685e-06
1.88547e-06
1.89614e-06
1.91086e-06
1.93172e-06
1.96091e-06
2.00064e-06