/*--------------------------------*- C++ -*----------------------------------*\
  =========                 |
  \\      /  F ield         | OpenFOAM: The Open Source CFD Toolbox
   \\    /   O peration     | Website:  https://openfoam.org
    \\  /    A nd           | Version:  12
     \\/     M anipulation  |
\*---------------------------------------------------------------------------*/
FoamFile
{
    format      ascii;
    class       volScalarField;
    location    "3";
    object      p;
}
// * * * * * * * * * * * * * * * * * * * * * * * * * * * * * * * * * * * * * //

dimensions      [0 2 -2 0 0 0 0];

internalField   nonuniform List<scalar> 
18225
(
3.84703e-08
8.54075e-06
2.51102e-05
4.66231e-05
6.98898e-05
9.2627e-05
0.000113065
0.000129822
0.000141831
0.000148283
0.000148589
0.000142353
0.000129354
0.000109522
8.29262e-05
4.97562e-05
1.03037e-05
-3.50563e-05
-8.5883e-05
-0.000141692
-0.000201973
-0.000266213
-0.00033391
-0.00040458
-0.000477766
-0.000553047
-0.000630081
-0.000708604
-0.000788434
-0.000869462
-0.000951659
-0.00103508
-0.00111988
-0.00120629
-0.00129466
-0.0013854
-0.00147906
-0.00157624
-0.00167766
-0.0017841
-0.00189644
-0.00201563
-0.00214267
-0.00227865
-0.00242469
-0.00258197
-0.00275169
-0.00293509
-0.00313346
-0.00334809
-0.0035803
-0.00383144
-0.00410288
-0.00439601
-0.00471225
-0.00505304
-0.00541982
-0.00581403
-0.0062371
-0.00669038
-0.00717518
-0.00769266
-0.0082438
-0.00882936
-0.0094498
-0.0101052
-0.0107951
-0.0115186
-0.0122741
-0.0130593
-0.0138709
-0.0147048
-0.015556
-0.016418
-0.0172836
-0.018144
-0.0189893
-0.0198082
-0.0205883
-0.0213159
-0.0219761
-0.0225532
-0.0230305
-0.0233907
-0.0236159
-0.0236883
-0.0235903
-0.0233044
-0.0228144
-0.0221051
-0.0211631
-0.0199772
-0.0185385
-0.0168416
-0.0148843
-0.0126684
-0.0101997
-0.0074927
-0.00456527
-0.00143014
0.00188244
0.00533337
0.00888789
0.0125023
0.0161289
0.0197168
0.023213
0.0265641
0.029718
0.0326255
0.035243
0.0375341
0.0394712
0.0410378
0.0422287
0.0430507
0.0435223
0.0436729
0.0435404
0.04317
0.0426107
0.0419131
0.0411267
0.0402978
0.0394675
0.0386708
0.0379362
0.0372861
0.0367371
0.0363009
0.0359858
0.0357961
0.0357298
0.0357735
0.0358735
7.25803e-07
8.24078e-06
2.30144e-05
4.2329e-05
6.32815e-05
8.37872e-05
0.000102188
0.000117163
0.000127677
0.000132929
0.00013233
0.000125478
0.000112135
9.22163e-05
6.57697e-05
3.2961e-05
-5.94354e-06
-5.05952e-05
-0.000100581
-0.000155444
-0.000214701
-0.000277865
-0.000344461
-0.000414029
-0.000486131
-0.000560368
-0.000636411
-0.000714016
-0.000793009
-0.000873292
-0.000954839
-0.00103771
-0.00112206
-0.00120811
-0.0012962
-0.00138675
-0.00148026
-0.00157735
-0.00167869
-0.00178506
-0.0018973
-0.00201633
-0.00214313
-0.00227874
-0.00242427
-0.00258084
-0.00274964
-0.00293187
-0.00312877
-0.00334161
-0.00357168
-0.00382029
-0.00408879
-0.00437854
-0.00469092
-0.00502734
-0.0053892
-0.00577793
-0.0061949
-0.00664145
-0.00711884
-0.00762825
-0.00817062
-0.00874669
-0.0093569
-0.0100014
-0.0106797
-0.0113909
-0.0121335
-0.0129052
-0.013703
-0.0145228
-0.0153596
-0.0162073
-0.0170586
-0.017905
-0.0187369
-0.0195431
-0.0203115
-0.0210286
-0.0216797
-0.0222493
-0.022721
-0.0230777
-0.0233017
-0.0233755
-0.0232814
-0.0230024
-0.0225221
-0.0218257
-0.0208998
-0.0197332
-0.0183172
-0.0166462
-0.014718
-0.0125344
-0.0101007
-0.00743298
-0.00454675
-0.0014514
0.0018151
0.00521964
0.00872736
0.012295
0.0158755
0.0194189
0.0228732
0.0261858
0.0293056
0.0321844
0.0347794
0.037055
0.0389843
0.0405511
0.0417503
0.0425887
0.0430844
0.043266
0.0431706
0.042842
0.0423279
0.0416774
0.0409387
0.0401564
0.0393703
0.0386146
0.0379165
0.0372975
0.036774
0.0363566
0.0360526
0.0358652
0.0357911
0.035819
0.035904
-4.10921e-07
6.54216e-06
1.97597e-05
3.6986e-05
5.5652e-05
7.38901e-05
9.01821e-05
0.00010329
0.000112219
0.000116189
0.000114616
0.000107091
9.33664e-05
7.3339e-05
4.70362e-05
1.45998e-05
-2.373e-05
-6.76323e-05
-0.000116723
-0.000170573
-0.000228729
-0.000290732
-0.000356134
-0.000424501
-0.000495415
-0.000568498
-0.000643442
-0.000720015
-0.000798059
-0.000877482
-0.000958267
-0.00104048
-0.00112425
-0.00120983
-0.00129752
-0.00138775
-0.001481
-0.00157785
-0.00167897
-0.0017851
-0.00189706
-0.00201574
-0.00214207
-0.00227707
-0.0024218
-0.00257735
-0.00274486
-0.00292551
-0.00312049
-0.00333104
-0.0035584
-0.00380386
-0.00406872
-0.0043543
-0.00466197
-0.00499308
-0.00534901
-0.00573114
-0.00614081
-0.00657938
-0.00704807
-0.00754798
-0.00808008
-0.00864512
-0.00924355
-0.00987546
-0.0105405
-0.0112379
-0.0119661
-0.012723
-0.0135056
-0.01431
-0.0151315
-0.015964
-0.0168005
-0.0176327
-0.0184513
-0.0192452
-0.0200027
-0.0207105
-0.0213541
-0.0219184
-0.0223869
-0.022743
-0.0229691
-0.0230478
-0.0229616
-0.0226937
-0.0222277
-0.0215489
-0.0206438
-0.0195013
-0.0181127
-0.0164722
-0.0145777
-0.0124307
-0.0100364
-0.00741209
-0.00456683
-0.00151582
0.00170213
0.00505957
0.00852006
0.0120411
0.0155764
0.0190768
0.0224911
0.0257676
0.028856
0.0317089
0.0342843
0.036547
0.0384707
0.0400395
0.0412483
0.0421039
0.042624
0.0428365
0.0427778
0.0424906
0.0420215
0.0414182
0.0407275
0.0399927
0.0392523
0.0385391
0.0378797
0.0372941
0.0367978
0.036401
0.0361094
0.0359254
0.0358453
0.0358619
0.0359412
-3.95449e-06
3.13961e-06
1.55337e-05
3.13421e-05
4.83257e-05
6.48114e-05
7.94188e-05
9.09979e-05
9.86059e-05
0.000101491
9.90802e-05
9.09662e-05
7.68947e-05
5.67511e-05
3.05472e-05
-1.59385e-06
-3.94527e-05
-8.27307e-05
-0.000131067
-0.000184056
-0.000241268
-0.000302269
-0.000366631
-0.000433942
-0.000503802
-0.000575851
-0.000649794
-0.000725417
-0.00080257
-0.000881168
-0.000961199
-0.00104273
-0.00112589
-0.00121092
-0.00129813
-0.00138791
-0.00148074
-0.00157719
-0.0016779
-0.00178358
-0.00189503
-0.00201311
-0.00213873
-0.00227285
-0.00241652
-0.00257079
-0.00273675
-0.00291555
-0.00310836
-0.00331635
-0.00354077
-0.00378283
-0.00404383
-0.00432505
-0.0046278
-0.00495343
-0.00530328
-0.00567871
-0.00608106
-0.00651163
-0.00697164
-0.0074622
-0.00798427
-0.00853862
-0.00912575
-0.0097458
-0.0103985
-0.0110831
-0.0117982
-0.0125418
-0.0133111
-0.0141024
-0.014911
-0.0157312
-0.0165561
-0.0173778
-0.0181869
-0.018973
-0.0197241
-0.0204274
-0.0210687
-0.0216328
-0.0221037
-0.0224645
-0.022698
-0.0227868
-0.0227135
-0.0224611
-0.0220135
-0.0213557
-0.0204742
-0.0193579
-0.0179978
-0.016388
-0.0145263
-0.0124138
-0.0100563
-0.00746856
-0.00465833
-0.00164789
0.00153186
0.00485199
0.00827604
0.0117622
0.0152648
0.0187351
0.0221227
0.0253761
0.0284455
0.031284
0.0338496
0.0361076
0.0380317
0.039606
0.0408254
0.0416964
0.0422365
0.0424733
0.0424427
0.042187
0.041752
0.0411847
0.0405311
0.0398336
0.0391297
0.0384513
0.0378239
0.0372667
0.0367939
0.036415
0.036135
0.0359555
0.0358734
0.0358867
0.0359699
-9.62364e-06
-1.72776e-06
1.04696e-05
2.54114e-05
4.1211e-05
5.63745e-05
6.96546e-05
7.99929e-05
8.65045e-05
8.8472e-05
8.53397e-05
7.67069e-05
6.23178e-05
4.2051e-05
1.59073e-05
-1.60041e-05
-5.34799e-05
-9.62391e-05
-0.000143939
-0.000196194
-0.000252595
-0.000312724
-0.000376173
-0.000442546
-0.00051146
-0.000582568
-0.00065559
-0.000730322
-0.000806623
-0.000884414
-0.000963686
-0.0010445
-0.001127
-0.00121141
-0.00129803
-0.00138724
-0.00147951
-0.00157539
-0.00167551
-0.00178054
-0.00189127
-0.00200852
-0.00213317
-0.00226617
-0.00240852
-0.00256123
-0.00272538
-0.00290207
-0.00309242
-0.00329761
-0.00351881
-0.00375722
-0.0040141
-0.0042907
-0.00458831
-0.00490824
-0.00525183
-0.0056204
-0.00601529
-0.00643778
-0.00688907
-0.00737032
-0.00788252
-0.00842647
-0.00900272
-0.00961149
-0.0102526
-0.0109254
-0.0116287
-0.0123607
-0.0131185
-0.0138989
-0.0146972
-0.0155081
-0.0163249
-0.0171398
-0.0179437
-0.0187264
-0.0194761
-0.0201802
-0.0208245
-0.0213941
-0.021873
-0.0222443
-0.022491
-0.0225955
-0.0225404
-0.0223086
-0.0218838
-0.021251
-0.0203965
-0.019309
-0.0179792
-0.0164011
-0.0145721
-0.0124932
-0.0101698
-0.00761473
-0.00483809
-0.00186165
0.00128662
0.0045768
0.00797285
0.0114335
0.0149135
0.0183645
0.0217363
0.0249777
0.0280391
0.0308735
0.033439
0.0357006
0.037632
0.0392167
0.0404496
0.0413369
0.0418957
0.0421536
0.0421461
0.0419154
0.041507
0.0409678
0.0403431
0.0396751
0.0390005
0.0383506
0.0377498
0.0372168
0.0367645
0.0364015
0.0361322
0.035958
0.0358766
0.0358911
0.0359812
-1.68714e-05
-7.75705e-06
4.71704e-06
1.92065e-05
3.41976e-05
4.83661e-05
6.05931e-05
6.99123e-05
7.55001e-05
7.66777e-05
7.29115e-05
6.38118e-05
4.9125e-05
2.87271e-05
2.61127e-06
-2.9123e-05
-6.6285e-05
-0.000108607
-0.000155762
-0.00020738
-0.000263066
-0.000322421
-0.00038505
-0.000450571
-0.000518614
-0.000588844
-0.000660995
-0.000734869
-0.000810333
-0.000887315
-0.000965807
-0.00104587
-0.00112765
-0.00121135
-0.00129728
-0.0013858
-0.00147738
-0.00157253
-0.00167187
-0.00177607
-0.00188586
-0.00200206
-0.00212552
-0.00225716
-0.00239793
-0.00254883
-0.0027109
-0.0028852
-0.00307284
-0.00327493
-0.00349262
-0.00372711
-0.00397958
-0.00425128
-0.00454347
-0.00485743
-0.00519449
-0.00555597
-0.00594317
-0.00635738
-0.00679987
-0.00727179
-0.0077742
-0.00830794
-0.00887366
-0.00947169
-0.010102
-0.010764
-0.0114568
-0.0121786
-0.012927
-0.0136987
-0.0144896
-0.0152943
-0.0161064
-0.0169185
-0.0177216
-0.0185057
-0.0192592
-0.0199695
-0.0206227
-0.0212038
-0.0216967
-0.0220847
-0.0223506
-0.0224766
-0.0224453
-0.0222394
-0.0218424
-0.021239
-0.0204153
-0.0193597
-0.0180627
-0.0165181
-0.0147227
-0.0126775
-0.0103875
-0.00786391
-0.00511872
-0.00217226
0.000948621
0.00421382
0.00758773
0.0110297
0.0144946
0.0179344
0.021299
0.0245376
0.0276002
0.0304397
0.033014
0.0352876
0.0372336
0.0388351
0.0400865
0.0409935
0.0415729
0.041852
0.0418663
0.0416579
0.0412724
0.0407566
0.040156
0.0395123
0.0388623
0.0382364
0.0376585
0.0371465
0.0367124
0.0363638
0.0361046
0.035936
0.0358566
0.0358736
0.0359703
-2.53001e-05
-1.4667e-05
-1.55914e-06
1.28153e-05
2.73119e-05
4.07636e-05
5.21745e-05
6.06682e-05
6.54839e-05
6.5984e-05
6.1661e-05
5.21387e-05
3.71704e-05
1.6632e-05
-9.48661e-06
-4.10928e-05
-7.80046e-05
-0.000119965
-0.000166658
-0.000217725
-0.000272786
-0.000331452
-0.000393344
-0.000458088
-0.000525325
-0.000594732
-0.000666051
-0.000739093
-0.000813731
-0.000889897
-0.000967582
-0.00104685
-0.00112784
-0.00121076
-0.00129589
-0.00138361
-0.00147435
-0.00156863
-0.00166703
-0.0017702
-0.00187887
-0.00199381
-0.00211585
-0.00224589
-0.00238484
-0.00253368
-0.00269342
-0.00286508
-0.00304972
-0.00324845
-0.00346238
-0.00369265
-0.00394044
-0.00420697
-0.00449347
-0.00480123
-0.00513152
-0.00548568
-0.00586503
-0.00627089
-0.00670454
-0.00716721
-0.00766001
-0.00818389
-0.0087396
-0.00932761
-0.00994805
-0.0106006
-0.0112844
-0.0119981
-0.0127393
-0.0135052
-0.0142918
-0.015094
-0.0159057
-0.0167196
-0.017527
-0.018318
-0.0190811
-0.0198038
-0.0204722
-0.0210712
-0.0215847
-0.021996
-0.0222874
-0.0224411
-0.0224395
-0.0222649
-0.0219006
-0.021331
-0.020542
-0.0195216
-0.01826
-0.0167507
-0.0149902
-0.0129791
-0.0107221
-0.00822945
-0.00551365
-0.00259458
0.000502109
0.00374633
0.00710289
0.0105317
0.0139879
0.0174236
0.0207889
0.0240329
0.0271054
0.029959
0.0325509
0.0348451
0.0368139
0.0384397
0.0397161
0.040648
0.0412519
0.0415546
0.0415917
0.0414051
0.0410409
0.0405461
0.0399664
0.0393436
0.0387144
0.038109
0.0375509
0.0370571
0.0366391
0.0363035
0.0360536
0.0358905
0.0358135
0.0358327
0.035934
-3.45589e-05
-2.2205e-05
-8.19289e-06
6.34546e-06
2.0616e-05
3.3595e-05
4.44014e-05
5.22447e-05
5.64265e-05
5.63519e-05
5.15417e-05
4.16366e-05
2.63994e-05
5.70963e-06
-2.0443e-05
-5.19695e-05
-8.86931e-05
-0.000130364
-0.000176674
-0.000227275
-0.000281795
-0.000339856
-0.000401087
-0.000465125
-0.000531618
-0.000600253
-0.000670777
-0.00074301
-0.000816829
-0.000892167
-0.00096902
-0.00104745
-0.00112759
-0.00120964
-0.00129389
-0.00138068
-0.00147046
-0.0015637
-0.001661
-0.00176297
-0.00187031
-0.00198379
-0.00210421
-0.00223242
-0.00236934
-0.00251588
-0.00267304
-0.00284181
-0.00302322
-0.00321833
-0.00342824
-0.00365405
-0.00389692
-0.00415804
-0.00443864
-0.00473997
-0.00506333
-0.00541005
-0.00578149
-0.00617901
-0.00660394
-0.00705758
-0.00754115
-0.00805573
-0.00860221
-0.00918126
-0.00979319
-0.0104379
-0.0111149
-0.0118228
-0.0125599
-0.0133234
-0.0141096
-0.0149137
-0.0157299
-0.016551
-0.0173685
-0.0181725
-0.0189518
-0.0196937
-0.0203843
-0.0210082
-0.0215494
-0.0219906
-0.0223142
-0.0225019
-0.0225358
-0.0223979
-0.0220711
-0.0215396
-0.020789
-0.0198067
-0.018583
-0.0171106
-0.0153861
-0.0134096
-0.0111854
-0.00872306
-0.00603525
-0.0031412
-6.58484e-05
0.00316096
0.00650442
0.00992506
0.0133784
0.0168166
0.0201899
0.0234471
0.0265379
0.0294143
0.032033
0.0343568
0.0363572
0.0380156
0.0393243
0.0402876
0.0409213
0.0412517
0.0413142
0.0411509
0.0408081
0.0403332
0.0397724
0.039168
0.0385568
0.037969
0.0374279
0.0369499
0.0365458
0.0362216
0.03598
0.0358219
0.035747
0.0357675
0.0358706
-4.43387e-05
-3.01398e-05
-1.50252e-05
-9.7466e-08
1.41725e-05
2.68889e-05
3.72758e-05
4.46236e-05
4.82942e-05
4.77362e-05
4.24995e-05
3.22451e-05
1.67475e-05
-4.10703e-06
-3.03262e-05
-6.1821e-05
-9.84172e-05
-0.000139869
-0.000185873
-0.000236087
-0.000290146
-0.00034768
-0.000408324
-0.000471722
-0.000537529
-0.000605436
-0.000675199
-0.000746642
-0.000819645
-0.000894145
-0.000970136
-0.00104768
-0.0011269
-0.00120801
-0.00129127
-0.00137703
-0.00146571
-0.00155778
-0.00165381
-0.00175441
-0.00186025
-0.00197207
-0.00209066
-0.00221684
-0.0023515
-0.00249553
-0.00264988
-0.00281553
-0.00299347
-0.00318474
-0.0033904
-0.00361153
-0.00384928
-0.0041048
-0.00437931
-0.00467408
-0.00499041
-0.00532967
-0.00569324
-0.00608254
-0.00649901
-0.00694405
-0.00741899
-0.0079251
-0.00846346
-0.00903494
-0.00964012
-0.0102792
-0.0109518
-0.0116572
-0.0123936
-0.0131588
-0.0139492
-0.0147604
-0.0155867
-0.0164211
-0.0172553
-0.0180793
-0.0188819
-0.0196503
-0.0203703
-0.0210266
-0.0216026
-0.0220807
-0.022443
-0.0226709
-0.0227458
-0.0226497
-0.022365
-0.0218755
-0.0211664
-0.020225
-0.0190411
-0.0176073
-0.0159197
-0.0139781
-0.0117865
-0.00935379
-0.00669266
-0.00382172
-0.000765261
0.00244728
0.00578145
0.00919841
0.0126542
0.0161009
0.0194888
0.0227667
0.0258839
0.0287919
0.0314462
0.0338089
0.03585
0.0375498
0.0388993
0.0399016
0.0405717
0.0409351
0.0410271
0.0408898
0.0405698
0.0401151
0.0395726
0.038985
0.0383898
0.0378173
0.0372907
0.0368262
0.036434
0.0361195
0.0358849
0.0357309
0.0356574
0.0356774
0.0357796
-5.43669e-05
-3.82597e-05
-2.19054e-05
-6.41256e-06
8.04138e-06
2.06718e-05
3.07974e-05
3.77838e-05
4.10497e-05
4.00866e-05
3.44751e-05
2.38977e-05
8.1431e-06
-1.28927e-05
-3.92122e-05
-7.07234e-05
-0.000107252
-0.000148552
-0.000194323
-0.000244227
-0.000297901
-0.000354981
-0.000415107
-0.000477926
-0.000543098
-0.000610319
-0.00067935
-0.000750018
-0.000822207
-0.000895853
-0.000970952
-0.00104756
-0.00112581
-0.00120589
-0.00128807
-0.00137268
-0.00146013
-0.0015509
-0.00164551
-0.00174457
-0.00184873
-0.00195871
-0.00207528
-0.00219923
-0.00233142
-0.00247272
-0.00262406
-0.00278638
-0.00296065
-0.00314787
-0.00334908
-0.00356535
-0.00379779
-0.00404756
-0.00431588
-0.00460402
-0.00491331
-0.00524516
-0.00560103
-0.00598241
-0.00639086
-0.00682792
-0.0072951
-0.00779386
-0.00832552
-0.00889123
-0.00949184
-0.0101279
-0.0107994
-0.0115057
-0.0122458
-0.0130173
-0.0138173
-0.0146414
-0.0154841
-0.0163387
-0.0171966
-0.018048
-0.0188815
-0.0196841
-0.0204412
-0.0211373
-0.0217552
-0.022277
-0.0226843
-0.0229581
-0.0230795
-0.0230297
-0.0227911
-0.022347
-0.0216822
-0.0207839
-0.0196415
-0.0182474
-0.0165974
-0.0146909
-0.0125317
-0.0101281
-0.00749255
-0.00464319
-0.0016036
0.0015973
0.00492545
0.00834259
0.0118053
0.0152659
0.0186746
0.0219802
0.0251315
0.0280792
0.0307781
0.0331888
0.0352802
0.0370307
0.0384301
0.0394799
0.040194
0.0405971
0.040724
0.0406168
0.0403223
0.0398894
0.0393654
0.0387942
0.0382136
0.0376545
0.0371404
0.0366873
0.036305
0.0359985
0.0357695
0.0356184
0.0355451
0.0355629
0.0356611
-6.44111e-05
-4.63776e-05
-2.86944e-05
-1.25023e-05
2.28389e-06
1.4974e-05
2.49718e-05
3.171e-05
3.46615e-05
3.3359e-05
2.74144e-05
1.65327e-05
5.19576e-07
-2.07176e-05
-4.7173e-05
-7.87494e-05
-0.000115268
-0.000156483
-0.000202093
-0.000251758
-0.00030512
-0.000361815
-0.000421486
-0.000483782
-0.000548367
-0.00061494
-0.000683264
-0.00075317
-0.000824542
-0.000897317
-0.000971491
-0.00104712
-0.00112433
-0.0012033
-0.00128431
-0.00136766
-0.00145377
-0.00154309
-0.00163614
-0.0017335
-0.00183582
-0.00194379
-0.00205815
-0.00217968
-0.00230921
-0.0024476
-0.00259573
-0.00275452
-0.00292493
-0.00310792
-0.00330451
-0.00351577
-0.00374278
-0.0039867
-0.00424878
-0.00453029
-0.00483263
-0.00515726
-0.00550573
-0.00587965
-0.00628072
-0.00671066
-0.00717121
-0.00766406
-0.00819084
-0.00875298
-0.0093517
-0.00998786
-0.0106619
-0.0113736
-0.012122
-0.0129053
-0.0137208
-0.0145643
-0.0154305
-0.0163124
-0.0172018
-0.0180884
-0.0189606
-0.0198051
-0.0206071
-0.0213501
-0.0220169
-0.0225889
-0.0230471
-0.023372
-0.0235444
-0.023545
-0.0233558
-0.0229598
-0.0223417
-0.0214883
-0.0203887
-0.0190352
-0.0174233
-0.0155522
-0.0134252
-0.0110503
-0.00843956
-0.00561061
-0.00258638
0.000604903
0.00392962
0.00735006
0.0108235
0.0143026
0.0177375
0.021077
0.0242694
0.0272649
0.0300169
0.032485
0.0346362
0.0364474
0.0379063
0.0390131
0.0397799
0.0402305
0.0403989
0.0403272
0.0400623
0.0396538
0.0391498
0.0385951
0.0380286
0.0374817
0.0369783
0.0365346
0.0361603
0.03586
0.0356349
0.0354853
0.0354109
0.0354243
0.0355159
-7.42702e-05
-5.43265e-05
-3.52648e-05
-1.82753e-05
-3.04116e-06
9.8269e-06
1.98064e-05
2.63909e-05
2.9103e-05
2.75145e-05
2.12688e-05
1.00944e-05
-6.18439e-06
-2.76467e-05
-5.42759e-05
-8.59667e-05
-0.000122535
-0.000163729
-0.000209245
-0.000258742
-0.00031186
-0.000368235
-0.00042751
-0.000489337
-0.000553379
-0.000619337
-0.000686976
-0.000756128
-0.000826678
-0.000898565
-0.000971781
-0.00104638
-0.00112249
-0.00120028
-0.00128002
-0.00136202
-0.00144666
-0.0015344
-0.00162575
-0.00172126
-0.00182158
-0.00192737
-0.00203935
-0.00215829
-0.00228499
-0.00242028
-0.00256503
-0.00272013
-0.00288651
-0.00306512
-0.00325697
-0.00346309
-0.00368459
-0.00392264
-0.00417849
-0.00445348
-0.00474906
-0.00506678
-0.0054083
-0.0057754
-0.00616995
-0.0065939
-0.00704925
-0.00753799
-0.00806207
-0.00862331
-0.00922329
-0.00986329
-0.0105441
-0.0112659
-0.0120282
-0.0128294
-0.013667
-0.0145369
-0.0154339
-0.0163511
-0.0172797
-0.0182096
-0.0191285
-0.0200227
-0.0208767
-0.0216738
-0.0223959
-0.0230239
-0.0235382
-0.0239189
-0.0241461
-0.0242005
-0.0240635
-0.0237178
-0.0231481
-0.0223408
-0.021285
-0.0199728
-0.0183995
-0.016564
-0.0144693
-0.0121229
-0.00953664
-0.00672747
-0.00371765
-0.000534673
0.00278843
0.00621446
0.00970162
0.013203
0.0166688
0.0200476
0.0232877
0.0263383
0.029152
0.0316865
0.0339074
0.0357893
0.0373183
0.0384921
0.0393213
0.0398283
0.0400462
0.0400164
0.0397864
0.039406
0.0389244
0.0383875
0.037835
0.0372995
0.0368054
0.0363694
0.0360012
0.0357052
0.0354825
0.0353328
0.0352556
0.0352628
0.0353452
-8.37758e-05
-6.19617e-05
-4.15009e-05
-2.36453e-05
-7.8752e-06
5.26421e-06
1.53137e-05
2.18209e-05
2.43532e-05
2.25205e-05
1.5996e-05
4.53344e-06
-1.20238e-05
-3.37387e-05
-6.05818e-05
-9.24375e-05
-0.000129113
-0.00017035
-0.000215839
-0.000265234
-0.000318174
-0.000374291
-0.000433227
-0.000494633
-0.000558172
-0.000623545
-0.000690518
-0.000758923
-0.000828646
-0.000899624
-0.00097185
-0.00104537
-0.00112032
-0.00119685
-0.00127524
-0.00135577
-0.00143885
-0.00152489
-0.00161439
-0.00170793
-0.00180609
-0.00190955
-0.002019
-0.00213518
-0.00225889
-0.00239092
-0.00253213
-0.00268339
-0.0028456
-0.00301971
-0.00320671
-0.00340764
-0.00362361
-0.00385581
-0.00410554
-0.0043742
-0.00466332
-0.00497458
-0.00530979
-0.00567091
-0.00606004
-0.00647941
-0.00693131
-0.0074181
-0.0079421
-0.00850555
-0.00911046
-0.00975854
-0.010451
-0.0111884
-0.0119706
-0.0127963
-0.013663
-0.0145669
-0.0155025
-0.0164629
-0.0174389
-0.0184199
-0.0193933
-0.0203446
-0.0212578
-0.0221153
-0.0228985
-0.0235877
-0.0241626
-0.0246029
-0.0248882
-0.0249988
-0.024916
-0.0246224
-0.0241023
-0.0233421
-0.0223309
-0.0210606
-0.0195263
-0.0177268
-0.0156647
-0.0133471
-0.0107854
-0.00799599
-0.00500035
-0.00182514
0.00149735
0.00493045
0.00843336
0.0119599
0.0154603
0.0188834
0.022177
0.0252897
0.0281729
0.0307829
0.0330833
0.0350466
0.0366564
0.0379082
0.0388105
0.0393838
0.0396601
0.0396801
0.0394913
0.0391438
0.038688
0.0381707
0.037633
0.0371087
0.036623
0.0361931
0.0358292
0.0355356
0.0353133
0.0351617
0.03508
0.0350792
0.0351503
-9.27824e-05
-6.91555e-05
-4.72987e-05
-2.85337e-05
-1.2164e-05
1.31771e-06
1.1506e-05
1.79956e-05
2.03944e-05
1.83475e-05
1.15579e-05
-1.95684e-07
-1.70492e-05
-3.90478e-05
-6.61474e-05
-9.82195e-05
-0.000135061
-0.000176403
-0.00022193
-0.000271289
-0.000324112
-0.00038003
-0.000438681
-0.000499712
-0.000562785
-0.000627601
-0.000693924
-0.000761587
-0.000830475
-0.000900524
-0.000971724
-0.00104413
-0.00111784
-0.00119305
-0.00127
-0.00134898
-0.00143037
-0.0015146
-0.00160215
-0.00169356
-0.00178943
-0.00189041
-0.00199718
-0.00211047
-0.00223103
-0.00235967
-0.0024972
-0.00264449
-0.00280243
-0.00297196
-0.00315405
-0.00334977
-0.00356024
-0.0037867
-0.0040305
-0.00429312
-0.00457622
-0.00488163
-0.00521133
-0.00556753
-0.0059526
-0.00636908
-0.00681964
-0.00730702
-0.00783399
-0.00840323
-0.00901724
-0.00967816
-0.0103877
-0.0111467
-0.0119553
-0.0128125
-0.0137158
-0.0146615
-0.0156438
-0.0166554
-0.0176869
-0.0187269
-0.0197621
-0.0207775
-0.0217562
-0.02268
-0.0235293
-0.024284
-0.0249232
-0.0254261
-0.0257719
-0.0259408
-0.0259137
-0.0256732
-0.0252036
-0.0244912
-0.0235252
-0.0222974
-0.0208027
-0.0190397
-0.017011
-0.0147229
-0.0121864
-0.00941735
-0.00643634
-0.00326919
5.28312e-05
0.0034937
0.00701352
0.0105671
0.0141052
0.0175764
0.0209286
0.0241098
0.0270701
0.0297645
0.0321543
0.0342096
0.0359115
0.0372529
0.0382396
0.0388902
0.0392349
0.0393137
0.0391734
0.0388649
0.0384391
0.0379442
0.0374228
0.0369098
0.0364318
0.0360068
0.0356454
0.0353524
0.0351285
0.0349733
0.0348853
0.0348748
0.0349326
-0.00010117
-7.57985e-05
-5.25654e-05
-3.28674e-05
-1.58546e-05
-1.97909e-06
8.39927e-06
1.49152e-05
1.72136e-05
1.49717e-05
7.92183e-06
-4.13265e-06
-2.13054e-05
-4.36227e-05
-7.10236e-05
-0.000103365
-0.00014043
-0.000181941
-0.000227568
-0.000276954
-0.000329722
-0.000385497
-0.000443912
-0.000504611
-0.000567253
-0.000631536
-0.000697225
-0.000764148
-0.000832192
-0.000901291
-0.000971433
-0.00104267
-0.0011151
-0.00118892
-0.00126434
-0.00134168
-0.00142129
-0.00150359
-0.00158906
-0.00167823
-0.00177169
-0.00187006
-0.00197402
-0.00208427
-0.00220157
-0.00232668
-0.00246043
-0.00260366
-0.00275725
-0.00292213
-0.00309931
-0.00328985
-0.00349492
-0.00371581
-0.00395396
-0.00421097
-0.00448862
-0.00478894
-0.00511415
-0.00546673
-0.00584936
-0.00626497
-0.00671662
-0.00720753
-0.00774094
-0.00832004
-0.0089478
-0.00962684
-0.0103592
-0.0111463
-0.0119884
-0.0128844
-0.0138322
-0.0148276
-0.0158647
-0.0169355
-0.0180302
-0.0191365
-0.0202406
-0.0213264
-0.0223763
-0.0233712
-0.024291
-0.0251147
-0.025821
-0.0263887
-0.0267968
-0.0270252
-0.0270548
-0.0268682
-0.0264497
-0.0257858
-0.0248655
-0.0236807
-0.0222264
-0.0205009
-0.0185065
-0.0162491
-0.0137391
-0.0109916
-0.00802644
-0.00486836
-0.00154752
0.00190094
0.00543801
0.00901965
0.0125973
0.0161199
0.0195352
0.0227904
0.0258351
0.0286222
0.031111
0.0332692
0.0350748
0.0365178
0.0376011
0.0383408
0.0387649
0.0389123
0.0388291
0.0385664
0.0381759
0.0377071
0.037204
0.0367031
0.0362325
0.0358113
0.0354509
0.0351566
0.0349292
0.0347684
0.0346725
0.0346507
0.0346935
-0.000108834
-8.17939e-05
-5.72177e-05
-3.65802e-05
-1.88991e-05
-4.59551e-06
6.00797e-06
1.25805e-05
1.47993e-05
1.23718e-05
5.0581e-06
-7.3134e-06
-2.48334e-05
-4.7508e-05
-7.52574e-05
-0.000107922
-0.00014527
-0.00018701
-0.000232801
-0.000282275
-0.000335046
-0.000390731
-0.000448958
-0.000509366
-0.000571608
-0.000635382
-0.000700448
-0.000766634
-0.000833825
-0.000901953
-0.000971005
-0.00104103
-0.00111213
-0.00118448
-0.00125831
-0.00133392
-0.00141165
-0.00149192
-0.00157521
-0.00166203
-0.00175295
-0.0018486
-0.00194962
-0.00205673
-0.00217064
-0.00229214
-0.00242201
-0.0025611
-0.00271029
-0.00287052
-0.00304282
-0.00322827
-0.00342811
-0.0036437
-0.00387659
-0.00412851
-0.00440144
-0.00469763
-0.00501956
-0.00537005
-0.00575215
-0.00616921
-0.00662478
-0.00712256
-0.00766632
-0.00825976
-0.0089064
-0.00960929
-0.0103709
-0.0111929
-0.0120757
-0.0130184
-0.0140184
-0.0150715
-0.0161713
-0.0173091
-0.0184742
-0.0196539
-0.020833
-0.0219947
-0.0231206
-0.0241907
-0.0251843
-0.0260797
-0.0268552
-0.0274892
-0.0279606
-0.0282493
-0.0283362
-0.0282039
-0.027837
-0.027222
-0.026348
-0.0252071
-0.0237942
-0.0221074
-0.0201486
-0.0179235
-0.0154418
-0.0127177
-0.00977019
-0.00662293
-0.00330476
0.000150253
0.00370404
0.00731387
0.0109323
0.0145085
0.0179902
0.0213246
0.0244598
0.0273476
0.0299449
0.0322166
0.0341376
0.0356946
0.0368873
0.0377286
0.0382442
0.0384711
0.0384546
0.0382456
0.0378966
0.0374582
0.0369762
0.0364888
0.0360256
0.0356074
0.0352466
0.0349491
0.0347164
0.0345481
0.0344427
0.0344078
0.0344345
-0.000115691
-8.70595e-05
-6.11818e-05
-3.9611e-05
-2.12508e-05
-6.49951e-06
4.34988e-06
1.09962e-05
1.31448e-05
1.05314e-05
2.94224e-06
-9.76861e-06
-2.76689e-05
-5.07426e-05
-7.88903e-05
-0.000111934
-0.000149624
-0.000191654
-0.00023767
-0.000287291
-0.000340121
-0.000395768
-0.000453853
-0.000514007
-0.000575881
-0.000639166
-0.00070362
-0.000769071
-0.000835398
-0.000902535
-0.000970467
-0.00103924
-0.00110895
-0.00117978
-0.00125194
-0.00132573
-0.00140151
-0.00147966
-0.00156067
-0.00164503
-0.00173331
-0.00182612
-0.00192411
-0.00202797
-0.00213841
-0.0022562
-0.00238213
-0.00251704
-0.00266183
-0.00281744
-0.00298493
-0.00316545
-0.0033603
-0.00357095
-0.00379906
-0.00404657
-0.00431566
-0.00460884
-0.00492894
-0.00527913
-0.00566291
-0.00608409
-0.00654674
-0.00705511
-0.00761354
-0.00822627
-0.00889731
-0.0096302
-0.0104277
-0.0112917
-0.0122228
-0.0132198
-0.0142801
-0.0153988
-0.0165688
-0.0177808
-0.0190232
-0.0202823
-0.0215419
-0.0227843
-0.0239901
-0.0251387
-0.0262084
-0.0271774
-0.0280234
-0.0287246
-0.0292599
-0.0296093
-0.0297537
-0.0296759
-0.0293609
-0.0287952
-0.0279683
-0.0268721
-0.0255017
-0.0238551
-0.0219338
-0.0197429
-0.0172916
-0.0145933
-0.0116658
-0.00853172
-0.00521845
-0.00175873
0.00181043
0.00544777
0.00910699
0.012738
0.0162888
0.0197062
0.0229378
0.0259335
0.0286481
0.0310437
0.0330918
0.0347755
0.0360906
0.0370467
0.0376666
0.0379848
0.0380455
0.0378992
0.0375987
0.0371961
0.0367386
0.0362665
0.0358114
0.0353956
0.0350331
0.0347307
0.0344908
0.0343131
0.0341966
0.0341472
0.0341568
-0.000121663
-9.15216e-05
-6.43912e-05
-4.19048e-05
-2.28675e-05
-7.66244e-06
3.4412e-06
1.01667e-05
1.22444e-05
9.43582e-06
1.5526e-06
-1.1526e-05
-2.9844e-05
-5.33622e-05
-8.19598e-05
-0.000115438
-0.00015353
-0.000195911
-0.000242212
-0.000292038
-0.000344982
-0.000400641
-0.000458626
-0.000518563
-0.000580096
-0.000642912
-0.000706766
-0.000771481
-0.000836936
-0.000903062
-0.000969844
-0.00103732
-0.0011056
-0.00117484
-0.00124528
-0.00131719
-0.00139092
-0.00146687
-0.0015455
-0.00162731
-0.00171286
-0.00180275
-0.00189761
-0.00199814
-0.00210504
-0.00221906
-0.00234101
-0.00247173
-0.00261214
-0.0027632
-0.00292603
-0.00310183
-0.00329201
-0.00349816
-0.00372212
-0.00396602
-0.00423232
-0.00452383
-0.00484376
-0.00519571
-0.00558365
-0.00601194
-0.0064852
-0.00700827
-0.00758607
-0.00822341
-0.00892478
-0.00969412
-0.0105345
-0.0114479
-0.0124348
-0.013494
-0.0146221
-0.0158139
-0.0170613
-0.0183543
-0.01968
-0.0210238
-0.0223685
-0.0236955
-0.0249842
-0.0262135
-0.0273612
-0.0284047
-0.0293219
-0.0300906
-0.0306899
-0.0310999
-0.0313018
-0.0312787
-0.0310157
-0.0304999
-0.0297206
-0.0286702
-0.0273437
-0.0257389
-0.0238571
-0.0217028
-0.0192845
-0.0166147
-0.0137101
-0.010592
-0.00728653
-0.00382469
-0.000242246
0.00342103
0.00712022
0.0108062
0.0144276
0.0179311
0.0212635
0.0243735
0.0272136
0.0297429
0.0319295
0.0337524
0.0352035
0.0362881
0.0370257
0.037448
0.0375974
0.0375235
0.0372796
0.0369188
0.03649
0.0360357
0.0355896
0.0351761
0.0348108
0.0345021
0.0342531
0.0340642
0.0339351
0.0338697
0.0338614
-0.000126691
-9.51177e-05
-6.67867e-05
-4.34101e-05
-2.37077e-05
-8.05385e-06
3.30112e-06
1.01003e-05
1.20969e-05
9.07525e-06
8.72303e-07
-1.26084e-05
-3.13857e-05
-5.5397e-05
-8.44983e-05
-0.000118469
-0.000157023
-0.000199815
-0.000246461
-0.000296549
-0.000349659
-0.000405377
-0.000463305
-0.000523059
-0.000584278
-0.000646643
-0.000709906
-0.000773885
-0.000838459
-0.000903556
-0.00096916
-0.00103531
-0.00110211
-0.00116971
-0.00123836
-0.00130831
-0.00137993
-0.0014536
-0.00152978
-0.00160896
-0.0016917
-0.00177858
-0.00187025
-0.00196738
-0.00207068
-0.0021809
-0.00229886
-0.00242542
-0.0025615
-0.00270814
-0.0028665
-0.00303788
-0.00322379
-0.00342599
-0.00364653
-0.00388778
-0.0041525
-0.00444388
-0.00476554
-0.00512157
-0.00551647
-0.00595518
-0.00644292
-0.00698516
-0.0075874
-0.008255
-0.00899291
-0.00980541
-0.0106958
-0.011666
-0.0127163
-0.0138451
-0.0150486
-0.0163204
-0.0176519
-0.0190318
-0.0204462
-0.0218792
-0.0233127
-0.024727
-0.0261009
-0.0274123
-0.0286388
-0.0297574
-0.0307457
-0.0315818
-0.0322449
-0.0327151
-0.0329742
-0.0330057
-0.032795
-0.0323294
-0.0315987
-0.0305951
-0.0293138
-0.0277527
-0.0259125
-0.0237973
-0.0214148
-0.0187766
-0.0158982
-0.0127996
-0.00950523
-0.00604454
-0.00245167
0.00123507
0.00497247
0.00871277
0.012405
0.0159964
0.0194332
0.0226627
0.0256355
0.0283077
0.0306436
0.0326181
0.0342184
0.0354456
0.0363149
0.0368547
0.0371051
0.0371146
0.0369362
0.0366241
0.036229
0.0357955
0.0353599
0.0349488
0.03458
0.0342635
0.0340037
0.0338018
0.0336587
0.0335761
0.0335493
-0.000130719
-9.77905e-05
-6.83143e-05
-4.40802e-05
-2.37342e-05
-7.64638e-06
3.94683e-06
1.08052e-05
1.27013e-05
9.44154e-06
8.86565e-07
-1.30354e-05
-3.23181e-05
-5.68741e-05
-8.6535e-05
-0.000121058
-0.000160133
-0.000203396
-0.000250445
-0.00030085