/*--------------------------------*- C++ -*----------------------------------*\
  =========                 |
  \\      /  F ield         | OpenFOAM: The Open Source CFD Toolbox
   \\    /   O peration     | Website:  https://openfoam.org
    \\  /    A nd           | Version:  12
     \\/     M anipulation  |
\*---------------------------------------------------------------------------*/
FoamFile
{
    format      ascii;
    class       surfaceScalarField;
    location    "3";
    object      phi;
}
// * * * * * * * * * * * * * * * * * * * * * * * * * * * * * * * * * * * * * //

dimensions      [0 3 -1 0 0 0 0];

internalField   nonuniform List<scalar> 
36180
(
-5.2723e-11
5.20566e-11
-9.12702e-11
3.85466e-11
-7.1912e-11
-1.93237e-11
1.86421e-11
-9.05147e-11
1.80403e-10
-1.6173e-10
4.08117e-10
-2.27697e-10
6.94259e-10
-2.86138e-10
1.03042e-09
-3.36162e-10
1.40792e-09
-3.77512e-10
1.81813e-09
-4.10219e-10
2.25264e-09
-4.34516e-10
2.70338e-09
-4.50749e-10
3.16276e-09
-4.59383e-10
3.62371e-09
-4.60955e-10
4.0798e-09
-4.56091e-10
4.52526e-09
-4.45467e-10
4.95508e-09
-4.29818e-10
5.36498e-09
-4.09904e-10
5.75149e-09
-3.86511e-10
6.1119e-09
-3.6042e-10
6.4443e-09
-3.32407e-10
6.74751e-09
-3.03213e-10
7.02104e-09
-2.7354e-10
7.26507e-09
-2.44035e-10
7.48037e-09
-2.15305e-10
7.66828e-09
-1.87909e-10
7.83059e-09
-1.62321e-10
7.96951e-09
-1.38922e-10
8.08753e-09
-1.18021e-10
8.18739e-09
-9.9855e-11
8.27197e-09
-8.4585e-11
8.34426e-09
-7.22885e-11
8.40722e-09
-6.29587e-11
8.46372e-09
-5.65024e-11
8.51646e-09
-5.27391e-11
8.56786e-09
-5.14014e-11
8.61999e-09
-5.21302e-11
8.67449e-09
-5.45008e-11
8.73245e-09
-5.79616e-11
8.79439e-09
-6.1944e-11
8.86015e-09
-6.57532e-11
8.9288e-09
-6.86508e-11
8.99867e-09
-6.98721e-11
9.06724e-09
-6.85669e-11
9.13114e-09
-6.39029e-11
9.18616e-09
-5.50201e-11
9.2272e-09
-4.10375e-11
9.24834e-09
-2.11453e-11
9.24281e-09
5.5339e-12
9.20306e-09
3.97447e-11
9.12078e-09
8.22854e-11
8.98686e-09
1.33917e-10
8.79147e-09
1.95387e-10
8.52402e-09
2.67451e-10
8.17314e-09
3.50884e-10
7.72662e-09
4.46517e-10
7.17146e-09
5.55161e-10
6.49373e-09
6.77728e-10
5.67853e-09
8.15204e-10
4.71016e-09
9.68367e-10
3.57179e-09
1.13837e-09
2.24579e-09
1.326e-09
7.13584e-10
1.53221e-09
-1.0441e-09
1.75768e-09
-3.04716e-09
2.00306e-09
-5.31588e-09
2.26872e-09
-7.87051e-09
2.55463e-09
-1.0731e-08
2.86045e-09
-1.39166e-08
3.18559e-09
-1.74455e-08
3.52894e-09
-2.13344e-08
3.88893e-09
-2.55979e-08
4.26346e-09
-3.02478e-08
4.6499e-09
-3.52928e-08
5.04506e-09
-4.07381e-08
5.44522e-09
-4.65842e-08
5.8461e-09
-5.28271e-08
6.24291e-09
-5.94574e-08
6.63037e-09
-6.64602e-08
7.00279e-09
-7.38143e-08
7.35411e-09
-8.14923e-08
7.67796e-09
-8.94601e-08
7.96778e-09
-9.76769e-08
8.21685e-09
-1.06095e-07
8.41839e-09
-1.14661e-07
8.56564e-09
-1.23313e-07
8.65193e-09
-1.31984e-07
8.67075e-09
-1.40599e-07
8.61582e-09
-1.49081e-07
8.48119e-09
-1.57342e-07
8.26124e-09
-1.65293e-07
7.95086e-09
-1.72838e-07
7.5455e-09
-1.7988e-07
7.04128e-09
-1.86315e-07
6.43521e-09
-1.9204e-07
5.72527e-09
-1.9695e-07
4.90972e-09
-2.00931e-07
3.98168e-09
-2.03884e-07
2.95296e-09
-2.05734e-07
1.84979e-09
-2.06378e-07
6.43532e-10
-2.05723e-07
-6.54658e-10
-2.03715e-07
-2.00762e-09
-2.003e-07
-3.41585e-09
-1.95447e-07
-4.85214e-09
-1.89156e-07
-6.29155e-09
-1.81449e-07
-7.70639e-09
-1.72384e-07
-9.0651e-09
-1.62051e-07
-1.03332e-08
-1.50576e-07
-1.14748e-08
-1.38122e-07
-1.24538e-08
-1.24886e-07
-1.3236e-08
-1.11096e-07
-1.37909e-08
-9.70017e-08
-1.40939e-08
-8.28731e-08
-1.41287e-08
-6.89845e-08
-1.38886e-08
-5.56064e-08
-1.33781e-08
-4.2993e-08
-1.26134e-08
-3.13707e-08
-1.16223e-08
-2.09285e-08
-1.04422e-08
-1.18096e-08
-9.11896e-09
-4.1065e-09
-7.70307e-09
2.14044e-09
-6.24694e-09
6.94153e-09
-4.80109e-09
1.03526e-08
-3.41105e-09
1.24682e-08
-2.1156e-09
1.34131e-08
-9.44883e-10
1.33329e-08
8.01549e-11
1.23891e-08
9.43773e-10
1.07545e-08
1.63464e-09
8.61475e-09
2.13975e-09
6.18227e-09
2.43248e-09
3.71803e-09
2.46424e-09
1.56273e-09
2.1553e-09
1.86945e-10
1.37579e-09
1.86945e-10
-8.62506e-11
1.38259e-10
-1.24891e-10
7.71862e-11
-1.42425e-11
-1.29937e-10
2.80973e-10
-3.85686e-10
7.65063e-10
-6.45783e-10
1.427e-09
-8.89615e-10
2.24855e-09
-1.10769e-09
3.2081e-09
-1.29571e-09
4.28256e-09
-1.45199e-09
5.44854e-09
-1.57622e-09
6.68297e-09
-1.66896e-09
7.96357e-09
-1.73136e-09
9.2692e-09
-1.76502e-09
1.05802e-08
-1.77192e-09
1.18784e-08
-1.75433e-09
1.31477e-08
-1.71478e-09
1.43739e-08
-1.65601e-09
1.55448e-08
-1.58086e-09
1.66506e-08
-1.49226e-09
1.76833e-08
-1.39316e-09
1.86373e-08
-1.28645e-09
1.95091e-08
-1.17495e-09
2.02969e-08
-1.06132e-09
2.10008e-08
-9.4803e-10
2.16229e-08
-8.37365e-10
2.21664e-08
-7.31388e-10
2.26359e-08
-6.31882e-10
2.30373e-08
-5.40332e-10
2.33772e-08
-4.57933e-10
2.3663e-08
-3.85583e-10
2.39023e-08
-3.23874e-10
2.4103e-08
-2.73079e-10
2.42732e-08
-2.33145e-10
2.44204e-08
-2.03688e-10
2.45517e-08
-1.83984e-10
2.46732e-08
-1.72971e-10
2.47903e-08
-1.69243e-10
2.49069e-08
-1.71108e-10
2.50254e-08
-1.76447e-10
2.51465e-08
-1.82987e-10
2.52688e-08
-1.88042e-10
2.53889e-08
-1.88746e-10
2.5501e-08
-1.82071e-10
2.55972e-08
-1.64726e-10
2.56668e-08
-1.33458e-10
2.56966e-08
-8.48491e-11
2.56711e-08
-1.55225e-11
2.55721e-08
7.78429e-11
2.53791e-08
1.98553e-10
2.50691e-08
3.49733e-10
2.46169e-08
5.34485e-10
2.39949e-08
7.55856e-10
2.31735e-08
1.01684e-09
2.21205e-08
1.32043e-09
2.08017e-08
1.66969e-09
1.91804e-08
2.06782e-09
1.72176e-08
2.51797e-09
1.48718e-08
3.02356e-09
1.20989e-08
3.58805e-09
8.85258e-09
4.2147e-09
5.08395e-09
4.907e-09
7.42098e-10
5.66785e-09
-4.22612e-09
6.50043e-09
-9.87592e-09
7.40748e-09
-1.62628e-08
8.38998e-09
-2.3442e-08
9.44789e-09
-3.14681e-08
1.05807e-08
-4.03941e-08
1.17864e-08
-5.02699e-08
1.30614e-08
-6.11411e-08
1.44001e-08
-7.30474e-08
1.57952e-08
-8.60213e-08
1.72374e-08
-1.00087e-07
1.87151e-08
-1.15257e-07
2.0215e-08
-1.31533e-07
2.17215e-08
-1.48904e-07
2.32171e-08
-1.67343e-07
2.46825e-08
-1.8681e-07
2.60968e-08
-2.07245e-07
2.74379e-08
-2.28573e-07
2.86823e-08
-2.50701e-07
2.98059e-08
-2.73517e-07
3.07842e-08
-2.96893e-07
3.15923e-08
-3.2068e-07
3.22057e-08
-3.44715e-07
3.26004e-08
-3.68816e-07
3.27531e-08
-3.92787e-07
3.26413e-08
-4.16415e-07
3.2244e-08
-4.39476e-07
3.15419e-08
-4.61731e-07
3.05171e-08
-4.82934e-07
2.91539e-08
-5.02828e-07
2.74393e-08
-5.2115e-07
2.53627e-08
-5.37632e-07
2.29172e-08
-5.52006e-07
2.00995e-08
-5.64005e-07
1.69092e-08
-5.73367e-07
1.33436e-08
-5.79817e-07
9.40311e-09
-5.83159e-07
5.19175e-09
-5.83185e-07
6.69347e-10
-5.79721e-07
-4.11938e-09
-5.7259e-07
-9.13765e-09
-5.61707e-07
-1.42991e-08
-5.4703e-07
-1.95291e-08
-5.28583e-07
-2.47384e-08
-5.06461e-07
-2.98288e-08
-4.80836e-07
-3.46904e-08
-4.51964e-07
-3.92046e-08
-4.20191e-07
-4.32481e-08
-3.85946e-07
-4.66987e-08
-3.49742e-07
-4.94403e-08
-3.12162e-07
-5.13704e-08
-2.7385e-07
-5.24061e-08
-2.35487e-07
-5.24919e-08
-1.9777e-07
-5.16051e-08
-1.61388e-07
-4.97602e-08
-1.2699e-07
-4.70112e-08
-9.51621e-08
-4.34506e-08
-6.63986e-08
-3.92057e-08
-4.10853e-08
-3.44322e-08
-1.94839e-08
-2.93045e-08
-1.72614e-09
-2.40047e-08
1.2185e-08
-1.87123e-08
2.23654e-08
-1.35914e-08
2.90352e-08
-8.78541e-09
3.24995e-08
-4.40919e-09
3.31309e-08
-5.51182e-10
3.13521e-08
2.72253e-09
2.76284e-08
5.35833e-09
2.2471e-08
7.29721e-09
1.64654e-08
8.43803e-09
1.03076e-08
8.62208e-09
4.85471e-09
7.60815e-09
1.1415e-09
5.08899e-09
1.32845e-09
-7.85113e-11
2.16629e-10
-5.88585e-11
5.74976e-11
1.87678e-10
-3.76442e-10
7.10828e-10
-9.08786e-10
1.51941e-09
-1.45432e-09
2.59975e-09
-1.96993e-09
3.92624e-09
-2.43417e-09
5.46705e-09
-2.83653e-09
7.1874e-09
-3.17234e-09
9.05143e-09
-3.44026e-09
1.10234e-08
-3.64098e-09
1.30687e-08
-3.77665e-09
1.51542e-08
-3.85048e-09
1.72488e-08
-3.86657e-09
1.93242e-08
-3.82972e-09
2.13547e-08
-3.74528e-09
2.33178e-08
-3.61906e-09
2.51941e-08
-3.45715e-09
2.69676e-08
-3.26581e-09
2.86258e-08
-3.05134e-09
3.01593e-08
-2.81997e-09
3.15621e-08
-2.57772e-09
3.28311e-08
-2.33033e-09
3.39662e-08
-2.08315e-09
3.49699e-08
-1.84108e-09
3.5847e-08
-1.60854e-09
3.66045e-08
-1.38936e-09
3.72509e-08
-1.18676e-09
3.77963e-08
-1.00334e-09
3.82518e-08
-8.4102e-10
3.86289e-08
-7.01054e-10
3.89399e-08
-5.83999e-10
3.91964e-08
-4.89696e-10
3.941e-08
-4.17254e-10
3.9591e-08
-3.65047e-10
3.97488e-08
-3.30701e-10
3.98906e-08
-3.11089e-10
4.00219e-08
-3.02441e-10
4.01456e-08
-3.00092e-10
4.02616e-08
-2.98979e-10
4.03667e-08
-2.93171e-10
4.04543e-08
-2.76378e-10
4.05141e-08
-2.41843e-10
4.05317e-08
-1.823e-10
4.04888e-08
-9.05874e-11
4.03631e-08
4.08901e-11
4.01279e-08
2.19703e-10
3.97525e-08
4.53157e-10
3.92025e-08
7.48632e-10
3.8439e-08
1.11319e-09
3.74197e-08
1.55377e-09
3.60984e-08
2.07721e-09
3.4425e-08
2.6902e-09
3.2346e-08
3.39946e-09
2.98039e-08
4.21176e-09
2.67376e-08
5.1341e-09
2.30823e-08
6.17335e-09
1.87689e-08
7.3369e-09
1.37254e-08
8.63151e-09
7.87586e-09
1.00643e-08
1.1406e-09
1.16423e-08
-6.56409e-09
1.33725e-08
-1.53235e-08
1.52599e-08
-2.52235e-08
1.73074e-08
-3.63506e-08
1.95171e-08
-4.87908e-08
2.18881e-08
-6.26276e-08
2.44175e-08
-7.79398e-08
2.70986e-08
-9.47998e-08
2.99215e-08
-1.13271e-07
3.28718e-08
-1.33408e-07
3.59313e-08
-1.55247e-07
3.90772e-08
-1.78814e-07
4.22822e-08
-2.04114e-07
4.55146e-08
-2.31131e-07
4.87386e-08
-2.59828e-07
5.19142e-08
-2.90144e-07
5.49979e-08
-3.2199e-07
5.79432e-08
-3.55253e-07
6.07011e-08
-3.89792e-07
6.32207e-08
-4.25436e-07
6.54502e-08
-4.61989e-07
6.73375e-08
-4.99228e-07
6.88308e-08
-5.36902e-07
6.98796e-08
-5.74736e-07
7.04349e-08
-6.12433e-07
7.04505e-08
-6.49675e-07
6.98826e-08
-6.86122e-07
6.86912e-08
-7.2142e-07
6.68401e-08
-7.55201e-07
6.42975e-08
-7.87083e-07
6.10364e-08
-8.16679e-07
5.70357e-08
-8.43597e-07
5.22803e-08
-8.67443e-07
4.67627e-08
-8.87826e-07
4.04832e-08
-9.04368e-07
3.34511e-08
-9.16707e-07
2.56829e-08
-9.24446e-07
1.71418e-08
-9.27342e-07
8.08769e-09
-9.25127e-07
-1.54601e-09
-9.17529e-07
-1.17172e-08
-9.04385e-07
-2.22814e-08
-8.85595e-07
-3.3089e-08
-8.61139e-07
-4.39849e-08
-8.31092e-07
-5.47858e-08
-7.95629e-07
-6.52921e-08
-7.55035e-07
-7.5284e-08
-7.09714e-07
-8.45254e-08
-6.60189e-07
-9.27731e-08
-6.07102e-07
-9.97859e-08
-5.51206e-07
-1.05336e-07
-4.93355e-07
-1.09222e-07
-4.34479e-07
-1.11281e-07
-3.75567e-07
-1.11404e-07
-3.17629e-07
-1.09543e-07
-2.61664e-07
-1.05725e-07
-2.08621e-07
-1.00054e-07
-1.59364e-07
-9.2708e-08
-1.14633e-07
-8.3937e-08
-7.50168e-08
-7.40481e-08
-4.09325e-08
-6.33888e-08
-1.26106e-08
-5.23266e-08
9.90385e-09
-4.12268e-08
2.67434e-08
-3.04309e-08
3.81995e-08
-2.02416e-08
4.46997e-08
-1.09094e-08
4.67818e-08
-2.63328e-09
4.50752e-08
4.42919e-09
4.02851e-08
1.01484e-08
3.31978e-08
1.43845e-08
2.47105e-08
1.69254e-08
1.58657e-08
1.74669e-08
7.894e-09
1.55798e-08
2.1861e-09
1.07969e-08
3.51454e-09
-4.34434e-11
2.59979e-10
7.43261e-11
-6.03007e-11
4.89657e-10
-7.91748e-10
1.25921e-09
-1.67829e-09
2.39472e-09
-2.5898e-09
3.8809e-09
-3.45609e-09
5.68677e-09
-4.24004e-09
7.7726e-09
-4.92237e-09
1.00941e-08
-5.49383e-09
1.26049e-08
-5.9511e-09
1.52585e-08
-6.29465e-09
1.80095e-08
-6.52762e-09
2.08142e-08
-6.65515e-09
2.36316e-08
-6.68398e-09
2.6424e-08
-6.62211e-09
2.91572e-08
-6.47855e-09
3.18012e-08
-6.26308e-09
3.43301e-08
-5.98603e-09
3.67223e-08
-5.65802e-09
3.89607e-08
-5.28976e-09
4.10326e-08
-4.89181e-09
4.29293e-08
-4.47446e-09
4.46464e-08
-4.04746e-09
4.61832e-08
-3.61996e-09
4.75424e-08
-3.20032e-09
4.873e-08
-2.79606e-09
4.97543e-08
-2.41373e-09
5.06264e-08
-2.05884e-09
5.13589e-08
-1.7358e-09
5.19657e-08
-1.44789e-09
5.24619e-08
-1.1972e-09
5.28625e-08
-9.84644e-10
5.31827e-08
-8.0986e-10
5.34367e-08
-6.71236e-10
5.36375e-08
-5.65872e-10
5.37964e-08
-4.89574e-10
5.39221e-08
-4.36839e-10
5.40207e-08
-4.01035e-10
5.40946e-08
-3.74012e-10
5.41425e-08
-3.46853e-10
5.41585e-08
-3.0916e-10
5.41321e-08
-2.50032e-10
5.40478e-08
-1.57537e-10
5.38845e-08
-1.90024e-11
5.36157e-08
1.7821e-10
5.32093e-08
4.47368e-10
5.26272e-08
8.01728e-10
5.18261e-08
1.25427e-09
5.07568e-08
1.81793e-09
4.93647e-08
2.50527e-09
4.75899e-08
3.32858e-09
4.53672e-08
4.29994e-09
4.26262e-08
5.4312e-09
3.92915e-08
6.73419e-09
3.52825e-08
8.22073e-09
3.05136e-08
9.90297e-09
2.48943e-08
1.17927e-08
1.83294e-08
1.39018e-08
1.07189e-08
1.6242e-08
1.95677e-09
1.88264e-08
-8.06625e-09
2.16653e-08
-1.94616e-08
2.47679e-08
-3.23431e-08
2.81414e-08
-4.68258e-08
3.17901e-08
-6.30236e-08
3.57149e-08
-8.10476e-08
3.99121e-08
-1.01003e-07
4.43733e-08
-1.22989e-07
4.90839e-08
-1.4709e-07
5.40229e-08
-1.73381e-07
5.91621e-08
-2.01915e-07
6.44657e-08
-2.32728e-07
6.98906e-08
-2.65832e-07
7.53859e-08
-3.01211e-07
8.08931e-08
-3.38819e-07
8.6347e-08
-3.78581e-07
9.16757e-08
-4.20385e-07
9.68021e-08
-4.64086e-07
1.01644e-07
-5.09503e-07
1.06118e-07
-5.56417e-07
1.10135e-07
-6.04575e-07
1.13608e-07
-6.53688e-07
1.16451e-07
-7.03435e-07
1.18578e-07
-7.53462e-07
1.19907e-07
-8.03388e-07
1.20361e-07
-8.52804e-07
1.19867e-07
-9.01282e-07
1.1836e-07
-9.48371e-07
1.1578e-07
-9.93606e-07
1.12075e-07
-1.03651e-06
1.07202e-07
-1.0766e-06
1.01126e-07
-1.11339e-06
9.38225e-08
-1.14638e-06
8.5278e-08
-1.17511e-06
7.5491e-08
-1.1991e-06
6.44735e-08
-1.2179e-06
5.22522e-08
-1.23109e-06
3.88659e-08
-1.23828e-06
2.43368e-08
-1.23912e-06
8.92596e-09
-1.23331e-06
-7.35167e-09
-1.22063e-06
-2.44053e-08
-1.2009e-06
-4.20099e-08
-1.17405e-06
-5.99351e-08
-1.14011e-06
-7.79249e-08
-1.09921e-06
-9.56829e-08
-1.05162e-06
-1.12889e-07
-9.97707e-07
-1.29195e-07
-9.38005e-07
-1.44227e-07
-8.73175e-07
-1.57604e-07
-8.04014e-07
-1.68947e-07
-7.31451e-07
-1.77899e-07
-6.56528e-07
-1.84145e-07
-5.80383e-07
-1.87427e-07
-5.04216e-07
-1.8757e-07
-4.29262e-07
-1.84497e-07
-3.56744e-07
-1.78244e-07
-2.87833e-07
-1.68965e-07
-2.23605e-07
-1.56936e-07
-1.64997e-07
-1.42545e-07
-1.12771e-07
-1.26274e-07
-6.74856e-08
-1.08674e-07
-2.94764e-08
-9.03358e-08
1.14817e-09
-7.18513e-08
2.45022e-08
-5.3785e-08
4.0904e-08
-3.66434e-08
5.08532e-08
-2.08586e-08
5.50031e-08
-6.7832e-09
5.41361e-08
5.29625e-09
4.91478e-08
1.51367e-08
4.10514e-08
2.24809e-08
3.09917e-08
2.69851e-08
2.02811e-08
2.81775e-08
1.04248e-08
2.54362e-08
3.08851e-09
1.81331e-08
6.60306e-09
8.05e-12
2.51789e-10
2.51267e-10
-3.03571e-10
8.59114e-10
-1.39957e-09
1.88887e-09
-2.708e-09
3.35283e-09
-4.05372e-09
5.23402e-09
-5.33724e-09
7.49724e-09
-6.50325e-09
1.00964e-08
-7.52158e-09
1.29795e-08
-8.3769e-09
1.60913e-08
-9.06295e-09
1.93762e-08
-9.57953e-09
2.27792e-08
-9.93065e-09
2.62476e-08
-1.01235e-08
2.97316e-08
-1.0168e-08
3.31851e-08
-1.00756e-08
3.65665e-08
-9.85996e-09
3.98389e-08
-9.53544e-09
4.29703e-08
-9.11747e-09
4.59342e-08
-8.6219e-09
4.87092e-08
-8.06475e-09
5.12792e-08
-7.46184e-09
5.36333e-08
-6.82857e-09
5.57654e-08
-6.17958e-09
5.7674e-08
-5.52859e-09
5.93619e-08
-4.88815e-09
6.08354e-08
-4.26955e-09
6.21042e-08
-3.68262e-09
6.3181e-08
-3.13562e-09
6.40804e-08
-2.63517e-09
6.48186e-08
-2.18614e-09
6.54131e-08
-1.79165e-09
6.58814e-08
-1.45294e-09
6.62409e-08
-1.16937e-09
6.6508e-08
-9.38369e-10
6.66975e-08
-7.55387e-10
6.68219e-08
-6.13907e-10
6.68904e-08
-5.05412e-10
6.6909e-08
-4.19617e-10
6.68791e-08
-3.44043e-10
6.6797e-08
-2.64784e-10
6.66538e-08
-1.65946e-10
6.64344e-08
-3.0697e-11
6.61175e-08
1.59402e-10
6.56748e-08
4.23728e-10
6.5071e-08
7.81979e-10
6.42638e-08
1.25455e-09
6.32036e-08
1.86191e-09
6.18337e-08
2.62424e-09
6.009e-08
3.56157e-09
5.79018e-08
4.69346e-09
5.51914e-08
6.03902e-09
5.18743e-08
7.61701e-09
4.78597e-08
9.44583e-09
4.30501e-08
1.15438e-08
3.73419e-08
1.3929e-08
3.06253e-08
1.66195e-08
2.27847e-08
1.96333e-08
1.36979e-08
2.29886e-08
3.23692e-09
2.6703e-08
-8.73012e-09
3.07935e-08
-2.23392e-08
3.52744e-08
-3.77294e-08
4.0158e-08
-5.50407e-08
4.54528e-08
-7.44129e-08
5.11623e-08
-9.59822e-08
5.72842e-08
-1.19879e-07
6.38091e-08
-1.46225e-07
7.07192e-08
-1.75128e-07
7.79874e-08
-2.06682e-07
8.55761e-08
-2.40956e-07
9.34367e-08
-2.78e-07
1.01509e-07
-3.17831e-07
1.09721e-07
-3.60436e-07
1.17991e-07
-4.05765e-07
1.26223e-07
-4.53733e-07
1.34314e-07
-5.04208e-07
1.42151e-07
-5.57021e-07
1.49615e-07
-6.11956e-07
1.56579e-07
-6.68753e-07
1.62915e-07
-7.2711e-07
1.68492e-07
-7.86684e-07
1.73182e-07
-8.47091e-07
1.76858e-07
-9.07911e-07
1.79398e-07
-9.68692e-07
1.80687e-07
-1.02895e-06
1.8062e-07
-1.08818e-06
1.79099e-07
-1.14586e-06
1.76037e-07
-1.20144e-06
1.71361e-07
-1.25437e-06
1.65008e-07
-1.3041e-06
1.56928e-07
-1.35006e-06
1.47087e-07
-1.3917e-06
1.35465e-07
-1.42848e-06
1.22059e-07
-1.45987e-06
1.06881e-07
-1.48537e-06
8.99664e-08
-1.50448e-06
7.13691e-08
-1.51678e-06
5.11652e-08
-1.52189e-06
2.94437e-08
-1.51943e-06
6.46661e-09
-1.50912e-06
-1.76588e-08
-1.49077e-06
-4.27614e-08
-1.46424e-06
-6.85377e-08
-1.42951e-06
-9.46674e-08
-1.38665e-06
-1.20785e-07
-1.33586e-06
-1.46471e-07
-1.27747e-06
-1.71276e-07
-1.21196e-06
-1.94713e-07
-1.13992e-06
-2.16265e-07
-1.06212e-06
-2.35403e-07
-9.79463e-07
-2.51601e-07
-8.92995e-07
-2.64367e-07
-8.03881e-07
-2.73259e-07
-7.13391e-07
-2.77917e-07
-6.22868e-07
-2.78093e-07
-5.33696e-07
-2.73669e-07
-4.47257e-07
-2.64683e-07
-3.64884e-07
-2.51338e-07
-2.87816e-07
-2.34005e-07
-2.17146e-07
-2.13214e-07
-1.53786e-07
-1.89634e-07
-9.84259e-08
-1.64035e-07
-5.15104e-08
-1.37251e-07
-1.32282e-08
-1.10134e-07
1.64882e-08
-8.35013e-08
3.79488e-08
-5.8104e-08
5.16845e-08
-3.45943e-08
5.84194e-08
-1.35181e-08
5.90448e-08
4.67081e-09
5.4602e-08
1.95794e-08
4.62792e-08
3.08038e-08
3.54177e-08
3.78465e-08
2.35389e-08
4.00563e-08
1.23608e-08
3.66143e-08
3.79056e-09
2.67033e-08
1.03936e-08
6.8726e-11
1.82964e-10
4.54942e-10
-6.89829e-10
1.27136e-09
-2.21597e-09
2.57066e-09
-4.00725e-09
4.36309e-09
-5.84612e-09
6.62933e-09
-7.60345e-09
9.33041e-09
-9.20432e-09
1.2415e-08
-1.06062e-08
1.58244e-08
-1.17863e-08
1.94962e-08
-1.27348e-08
2.33667e-08
-1.34501e-08
2.7373e-08
-1.39369e-08
3.14543e-08
-1.42048e-08
3.55529e-08
-1.42666e-08
3.96157e-08
-1.41384e-08
4.35942e-08
-1.38384e-08
4.74453e-08
-1.33865e-08
5.11318e-08
-1.28039e-08
5.46223e-08
-1.21124e-08
5.78917e-08
-1.13342e-08
6.09208e-08
-1.04909e-08
6.36962e-08
-9.60401e-09
6.62103e-08
-8.69367e-09
6.84605e-08
-7.77886e-09
7.04494e-08
-6.877e-09
7.21835e-08
-6.00367e-09
7.36733e-08
-5.17246e-09
7.49325e-08
-4.39482e-09
7.59772e-08
-3.67985e-09
7.68253e-08
-3.03427e-09
7.74959e-08
-2.46227e-09
7.80085e-08
-1.96546e-09
7.83818e-08
-1.54276e-09
7.86339e-08
-1.1904e-09
7.87803e-08
-9.01801e-10
7.8834e-08
-6.67624e-10
7.88043e-08
-4.75741e-10
7.86961e-08
-3.11382e-10
7.85089e-08
-1.5688e-10
7.82365e-08
7.62414e-12
7.7866e-08
2.04585e-10
7.73772e-08
4.58096e-10
7.67423e-08
7.94304e-10
7.59253e-08
1.24067e-09
7.48819e-08
1.8254e-09
7.3559e-08
2.57746e-09
7.18949e-08
3.52599e-09
6.98193e-08
4.69992e-09
6.7253e-08
6.12784e-09
6.41087e-08
7.83776e-09
6.02907e-08
9.85706e-09
5.56951e-08
1.22126e-08
5.02104e-08
1.49305e-08
4.37173e-08
1.80368e-08
3.60891e-08
2.15572e-08
2.7192e-08
2.55166e-08
1.68847e-08
2.99406e-08
5.02003e-09
3.48533e-08
-8.55522e-09
4.02783e-08
-2.39989e-08
4.62371e-08
-4.14723e-08
5.27478e-08
-6.11387e-08
5.98244e-08
-8.31609e-08
6.7475e-08
-1.07699e-07
7.57001e-08
-1.34906e-07
8.44912e-08
-1.64926e-07
9.3829e-08
-1.97888e-07
1.03682e-07
-2.33905e-07
1.14004e-07
-2.73064e-07
1.24735e-07
-3.15426e-07
1.35799e-07
-3.61018e-07
1.47102e-07
-4.09833e-07
1.58536e-07
-4.61818e-07
1.69976e-07
-5.16879e-07
1.81284e-07
-5.74874e-07
1.92309e-07
-6.35609e-07
2.02887e-07
-6.98841e-07
2.12847e-07
-7.64276e-07
2.22014e-07
-8.3157e-07
2.30209e-07
-9.00331e-07
2.37253e-07
-9.70122e-07
2.42973e-07
-1.04047e-06
2.47202e-07
-1.11085e-06
2.49781e-07
-1.18073e-06
2.50566e-07
-1.24953e-06
2.49423e-07
-1.31667e-06
2.46237e-07
-1.38154e-06
2.40907e-07
-1.44353e-06
2.33351e-07
-1.50203e-06
2.23504e-07
-1.55642e-06
2.11321e-07
-1.60611e-06
1.96777e-07
-1.65051e-06
1.79865e-07
-1.68905e-06
1.60603e-07
-1.7212e-06
1.3903e-07
-1.74644e-06
1.1521e-07
-1.76431e-06
8.92379e-08
-1.77438e-06
6.12358e-08
-1.7763e-06
3.13581e-08
-1.76972e-06
-1.12172e-10
-1.7544e-06
-3.29801e-08
-1.73018e-06
-6.69795e-08
-1.69699e-06
-1.01729e-07
-1.65484e-06
-1.36812e-07
-1.60388e-06
-1.71754e-07
-1.54433e-06
-2.06012e-07
-1.4766e-06
-2.39005e-07
-1.40121e-06
-2.70107e-07
-1.31882e-06
-2.98656e-07
-1.23025e-06
-3.23973e-07
-1.13646e-06
-3.45386e-07
-1.03857e-06
-3.62259e-07
-9.37808e-07
-3.74022e-07
-8.35521e-07
-3.80205e-07
-7.33139e-07
-3.80474e-07
-6.32144e-07
-3.74664e-07
-5.34024e-07
-3.62804e-07
-4.40228e-07
-3.45133e-07
-3.5212e-07
-3.22112e-07
-2.70926e-07
-2.94409e-07
-1.97684e-07
-2.62875e-07
-1.3321e-07
-2.28509e-07
-7.80595e-08
-1.92401e-07
-3.25152e-08
-1.55678e-07
3.42327e-09
-1.1944e-07
3.00297e-08
-8.47105e-08
4.78326e-08
-5.23972e-08
5.75906e-08
-2.3276e-08
6.02655e-08
1.99591e-09
5.70043e-08
2.28406e-08
4.91262e-08
3.86818e-08
3.81251e-08
4.88476e-08
2.56851e-08
5.24963e-08
1.36972e-08
4.86022e-08
4.28486e-09
3.61157e-08
1.46785e-08
1.34044e-10
4.87878e-11
6.73e-10
-1.22884e-09
1.70772e-09
-3.25068e-09
3.2818e-09
-5.58128e-09
5.40097e-09
-7.96524e-09
8.04251e-09
-1.0245e-08
1.11637e-08
-1.23255e-08
1.47085e-08
-1.4151e-08
1.86126e-08
-1.56905e-08
2.28073e-08
-1.69295e-08
2.72221e-08
-1.78649e-08
3.17871e-08
-1.85019e-08
3.64345e-08
-1.88521e-08
4.10999e-08
-1.89321e-08
4.57237e-08
-1.87622e-08
5.02513e-08
-1.83661e-08
5.46344e-08
-1.77696e-08
5.88307e-08
-1.70003e-08
6.28048e-08
-1.60865e-08
6.65279e-08
-1.50572e-08
6.99779e-08
-1.39409e-08
7.31391e-08
-1.27653e-08
7.60023e-08
-1.15568e-08
7.85638e-08
-1.03404e-08
8.08256e-08
-9.13877e-09
8.27942e-08
-7.97229e-09
8.44805e-08
-6.85874e-09
8.58987e-08
-5.81304e-09
8.70659e-08
-4.84708e-09
8.80012e-08
-3.96953e-09
8.87247e-08
-3.18576e-09
8.92569e-08
-2.49766e-09
8.96177e-08
-1.90361e-09
8.98257e-08
-1.39833e-09
8.98967e-08
-9.72866e-10
8.98436e-08
-6.14526e-10
8.96748e-08
-3.06941e-10
8.93936e-08
-3.01075e-11
8.8997e-08
2.39646e-10
8.84755e-08
5.29145e-10
8.78116e-08
8.68472e-10
8.69796e-08
1.29017e-09
8.59445e-08
1.82933e-09
8.46623e-08
2.52285e-09
8.3079e-08
3.40879e-09
8.11303e-08
4.52615e-09
7.8742e-08
5.91421e-09
7.58299e-08
7.61203e-09
7.22995e-08
9.65827e-09
6.80465e-08
1.20908e-08
6.29569e-08
1.49466e-08
5.69076e-08
1.82619e-08
4.97661e-08
2.2072e-08
4.13913e-08
2.64117e-08
3.16336e-08
3.13148e-08
2.03355e-08
3.68148e-08
7.33171e-09
4.29443e-08
-7.54947e-09
4.97344e-08
-2.44855e-08
5.72143e-08
-4.36579e-08
6.54096e-08
-6.5251e-08
7.43409e-08
-8.94488e-08
8.40223e-08
-1.16433e-07
9.44591e-08
-1.46379e-07
1.05646e-07
-1.79451e-07
1.17563e-07
-2.158e-07
1.30178e-07
-2.55555e-07
1.43438e-07
-2.98823e-07
1.57272e-07
-3.45678e-07
1.7159e-07
-3.96158e-07
1.86279e-07
-4.50261e-07
2.01204e-07
-5.07937e-07
2.16212e-07
-5.69088e-07
2.31127e-07
-6.33559e-07
2.45756e-07
-7.01142e-07
2.59892e-07
-7.71571e-07
2.73315e-07
-8.4452e-07
2.85796e-07
-9.1961e-07
2.97104e-07
-9.96408e-07
3.07007e-07
-1.07443e-06
3.15276e-07
-1.15315e-06
3.21694e-07
-1.232e-06
3.26054e-07
-1.31039e-06
3.28167e-07
-1.38768e-06
3.2786e-07
-1.46324e-06
3.24985e-07
-1.53642e-06
3.19412e-07
-1.60655e-06
3.11038e-07
-1.67298e-06
2.99783e-07
-1.73507e-06
2.85591e-07
-1.79218e-06
2.68431e-07
-1.8437e-06
2.48299e-07
-1.88905e-06
2.25212e-07
-1.92767e-06
1.99219e-07
-1.95903e-06
1.70394e-07
-1.98266e-06
1.38842e-07
-1.99813e-06
1.04701e-07
-2.00504e-06
6.81487e-08
-2.00308e-06
2.94016e-08
-1.99197e-06
-1.12227e-08
-1.97151e-06
-5.34417e-08
-1.94159e-06
-9.68999e-08
-1.90218e-06
-1.41136e-07
-1.85336e-06
-1.85639e-07
-1.79528e-06
-2.29829e-07
-1.72824e-06
-2.73048e-07
-1.65267e-06
-3.14582e-07
-1.5691e-06
-3.53675e-07
-1.47823e-06
-3.89522e-07
-1.38091e-06
-4.21297e-07
-1.27811e-06
-4.48182e-07
-1.17098e-06
-4.69397e-07
-1.06076e-06
-4.84238e-07
-9.48848e-07
-4.92117e-07
-8.36715e-07
-4.92608e-07
-7.25897e-07
-4.85482e-07
-6.17953e-07
-4.70747e-07
-5.1442e-07
-4.48666e-07
-4.16759e-07
-4.19774e-07
-3.26304e-07
-3.84863e-07
-2.44213e-07
-3.44966e-07
-1.71418e-07
-3.01304e-07
-1.0859e-07
-2.55229e-07
-5.61124e-08
-2.08156e-07
-1.40676e-08
-1.61485e-07
1.77593e-08
-1.16537e-07
3.9869e-08
-7.45069e-08
5.30247e-08
-3.64318e-08
5.82268e-08
-3.20611e-09
5.66922e-08
2.43752e-08
4.98364e-08
4.55377e-08
3.92688e-08
5.94152e-08
2.68016e-08
6.49635e-08
1.44695e-08
6.09343e-08
4.58459e-09
4.60006e-08
1.92631e-08
2.00793e-10
-1.52101e-10
8.96829e-10
-1.92493e-09
2.15437e-09
-4.50821e-09
4.00477e-09
-7.43164e-09
6.44705e-09
-1.04075e-08
9.45393e-09
-1.32518e-08
1.29786e-08
-1.58502e-08
1.69607e-08
-1.81331e-08
2.13308e-08
-2.00606e-08
2.60148e-08
-2.16134e-08
3.09361e-08
-2.27863e-08
3.6019e-08
-2.35848e-08
4.11894e-08
-2.40226e-08
4.63772e-08
-2.41199e-08
5.15169e-08
-2.39019e-08
5.65488e-08
-2.3398e-08
6.14196e-08
-2.26404e-08
6.60829e-08
-2.16635e-08
7.04993e-08
-2.05029e-08
7.46367e-08
-1.91947e-08
7.84703e-08
-1.77746e-08
8.19825e-08
-1.62774e-08
8.51621e-08
-1.47365e-08
8.80045e-08
-1.31828e-08
9.05107e-08
-1.1645e-08
9.26871e-08
-1.01487e-08
9.45445e-08
-8.71615e-09
9.60975e-08
-7.366e-09
9.73635e-08
-6.11309e-09
9.83622e-08
-4.9682e-09
9.91143e-08
-3.93785e-09
9.96408e-08
-3.02419e-09
9.9962e-08
-2.22482e-09
1.00096e-07
-1.53271e-09
1.0006e-07
-9.36105e-10
9.98636e-08
-4.18476e-10
9.95152e-08
4.14315e-11
9.90155e-08
4.69563e-10
9.83587e-08
8.96467e-10
9.7531e-08
1.35687e-09
9.65099e-08
1.88955e-09
9.52634e-08
2.53665e-09
9.37493e-08
3.34343e-09
9.19146e-08
4.35752e-09
8.96952e-08
5.62819e-09
8.70155e-08
7.20584e-09
8.37884e-08
9.14131e-09
7.99152e-08
1.14852e-08
7.52858e-08
1.42877e-08
6.97788e-08
1.75978e-08
6.3262e-08
2.14634e-08
5.55924e-08
2.59314e-08
4.66171e-08
3.10473e-08
3.61732e-08
3.68556e-08
2.40887e-08
4.33993e-08
1.01829e-08
5.07205e-08
-5.73236e-09
5.88596e-08
-2.38521e-08
6.78542e-08
-4.43762e-08
7.77384e-08
-6.75078e-08
8.85412e-08
-9.34509e-08
1.00284e-07
-1.22407e-07
1.12978e-07
-1.54571e-07
1.26624e-07
-1.9013e-07
1.41204e-07
-2.29252e-07
1.56685e-07
-2.72086e-07
1.73013e-07
-3.18756e-07
1.90108e-07
-3.69352e-07
2.07867e-07
-4.23922e-07
2.26161e-07
-4.82474e-07
2.44831e-07
-5.44963e-07
2.63693e-07
-6.11287e-07
2.82537e-07
-6.81288e-07
3.01128e-07
-7.54744e-07
3.19212e-07
-8.31368e-07
3.36517e-07
-9.10814e-07
3.5276e-07
-9.92669e-07
3.67651e-07
-1.07646e-06
3.809e-07
-1.16168e-06
3.9222e-07
-1.24774e-06
4.01337e-07
-1.33404e-06
4.0799e-07
-1.41992e-06
4.11941e-07
-1.50473e-06
4.12974e-07
-1.58777e-06
4.10902e-07
-1.66835e-06
4.05567e-07
-1.74578e-06
3.96841e-07
-1.81937e-06
3.84628e-07
-1.88845e-06
3.68861e-07
-1.95237e-06
3.49508e-07
-2.0105e-06
3.26562e-07
-2.06225e-06
3.00049e-07
-2.10706e-06
2.70025e-07
-2.14441e-06
2.36574e-07
-2.17383e-06
1.99814e-07
-2.19489e-06
1.59895e-07
-2.20719e-06
1.17007e-07
-2.21042e-06
7.13792e-08
-2.20431e-06
2.32893e-08
-2.18863e-06
-2.69022e-08
-2.16324e-06
-7.8833e-08
-2.12807e-06
-1.32066e-07
-2.08315e-06
-1.86064e-07
-2.02856e-06
-2.40229e-07
-1.9645e-06
-2.93881e-07
-1.89129e-06
-3.46257e-07
-1.80935e-06
-3.96523e-07
-1.71924e-06
-4.43793e-07
-1.62163e-06
-4.87128e-07
-1.51737e-06
-5.25561e-07
-1.40742e-06
-5.58128e-07
-1.29291e-06
-5.83904e-07
-1.17511e-06
-6.02046e-07
-1.05538e-06
-6.11841e-07
-9.35233e-07
-6.12756e-07
-8.16227e-07
-6.04489e-07
-6.99967e-07
-5.87006e-07
-5.88055e-07
-5.60579e-07
-4.82032e-07
-5.25796e-07
-3.83331e-07
-4.83565e-07
-2.93214e-07
-4.35083e-07
-2.12731e-07
-3.81788e-07
-1.42666e-07
-3.25294e-07
-8.35105e-08
-2.67311e-07
-3.5443e-08
-2.09552e-07
1.67801e-09
-1.53658e-07
2.83049e-08
-1.01134e-07
4.51823e-08
-5.33092e-08
5.33235e-08
-1.13473e-08
5.39851e-08
2.37136e-08
4.86497e-08
5.08731e-08
3.9014e-08
6.90509e-08
2.69905e-08
7.69869e-08
1.47332e-08
7.31916e-08
4.71194e-09
5.60219e-08
2.3975e-08
2.66807e-10
-4.19031e-10
1.12025e-09
-2.77843e-09
2.60107e-09
-5.98902e-09
4.72623e-09
-9.55676e-09
7.48619e-09
-1.31674e-08
1.0848e-08
-1.66136e-08
1.47604e-08
-1.97626e-08
1.91584e-08
-2.25311e-08
2.39683e-08
-2.48705e-08
2.91106e-08
-2.67558e-08
3.4504e-08
-2.81797e-08
4.00672e-08
-2.91479e-08
4.57209e-08
-2.96763e-08
5.13897e-08
-2.97887e-08
5.70033e-08
-2.95155e-08
6.24973e-08
-2.8892e-08
6.78141e-08
-2.79572e-08
7.29034e-08
-2.67528e-08
7.77224e-08
-2.53219e-08
8.22361e-08
-2.37084e-08
8.64172e-08
-2.19557e-08
9.02459e-08
-2.01062e-08
9.37096e-08
-1.82002e-08
9.68024e-08
-1.62756e-08
9.95244e-08
-1.43671e-08
1.01881e-07
-1.25058e-08
1.03884e-07
-1.07188e-08
1.05547e-07
-9.02867e-09
1.06887e-07
-7.45336e-09
1.07925e-07
-6.00577e-09
1.0868e-07
-4.69358e-09
1.09175e-07
-3.51905e-09
1.09429e-07
-2.47882e-09
1.0946e-07
-1.5638e-09
1.09283e-07
-7.59016e-10
1.08908e-07
-4.36025e-11
1.08341e-07
6.09215e-10
1.07578e-07
1.23204e-09
1.06611e-07
1.86315e-09
1.05422e-07
2.54609e-09
1.03982e-07
3.32941e-09
1.02253e-07
4.26593e-09
1.00184e-07
5.41231e-09
9.77135e-08
6.82818e-09
9.47663e-08
8.57531e-09
9.12553e-08
1.07169e-08
8.70799e-08
1.33167e-08
8.2127e-08
1.64382e-08
7.62703e-08
2.01443e-08
6.93714e-08
2.44967e-08
6.12795e-08
2.95553e-08
5.18323e-08
3.53787e-08
4.0856e-08
4.20236e-08
2.81667e-08
4.95449e-08
1.35703e-08
5.79957e-08
-3.13576e-09
6.74266e-08
-2.21619e-08
7.78857e-08
-4.37244e-08
8.94167e-08
-6.80438e-08
1.02058e-07
-9.53419e-08
1.15839e-07
-1.25839e-07
1.30781e-07
-1.59749e-07
1.46889e-07
-1.97277e-07
1.64152e-07
-2.38613e-07
1.82539e-07
-2.83923e-07
2.01996e-07
-3.33349e-07
2.22438e-07
-3.86995e-07
2.43754e-07
-4.44927e-07
2.65799e-07
-5.0716e-07
2.88394e-07
-5.73656e-07
3.11327e-07
-6.44317e-07
3.34354e-07
-7.18982e-07
3.57201e-07
-7.97418e-07
3.79564e-07
-8.79328e-07
4.01122e-07
-9.64343e-07
4.21531e-07
-1.05203e-06
4.40443e-07
-1.14188e-06
4.57503e-07
-1.23334e-06
4.72364e-07
-1.32581e-06
4.84687e-07
-1.41862e-06
4.94154e-07
-1.51111e-06
5.00473e-07
-1.60255e-06
5.03379e-07
-1.69222e-06
5.02645e-07
-1.77939e-06
4.98078e-07
-1.86335e-06
4.89525e-07
-1.94338e-06
4.76872e-07
-2.0188e-06
4.60044e-07
-2.08894e-06
4.39002e-07
-2.15318e-06
4.13744e-07
-2.21092e-06
3.84302e-07
-2.26161e-06
3.50743e-07
-2.30475e-06
3.13165e-07
-2.33987e-06
2.71697e-07
-2.36657e-06
2.26504e-07
-2.38445e-06
1.77785e-07
-2.39323e-06
1.25778e-07
-2.39261e-06
7.07639e-08
-2.3824e-06
1.30763e-08
-2.36242e-06
-4.68804e-08
-2.33258e-06
-1.08675e-07
-2.29284e-06
-1.71799e-07
-2.24326e-06
-2.35648e-07
-2.18394e-06
-2.99545e-07
-2.1151e-06
-3.62723e-07
-2.03704e-06
-4.24323e-07
-1.95016e-06
-4.83401e-07
-1.855e-06