/*--------------------------------*- C++ -*----------------------------------*\
  =========                 |
  \\      /  F ield         | OpenFOAM: The Open Source CFD Toolbox
   \\    /   O peration     | Website:  https://openfoam.org
    \\  /    A nd           | Version:  12
     \\/     M anipulation  |
\*---------------------------------------------------------------------------*/
FoamFile
{
    format      ascii;
    class       volVectorField;
    location    "3";
    object      U;
}
// * * * * * * * * * * * * * * * * * * * * * * * * * * * * * * * * * * * * * //

dimensions      [0 1 -1 0 0 0 0];

internalField   nonuniform List<vector> 
18225
(
(-3.23587e-06 1.66156e-06 0)
(-1.10445e-05 1.13915e-06 0)
(-1.29514e-05 2.89472e-07 0)
(-5.79063e-06 -6.31175e-07 0)
(1.1305e-05 -1.49053e-06 0)
(3.77808e-05 -2.25951e-06 0)
(7.27048e-05 -2.92345e-06 0)
(0.000114972 -3.48034e-06 0)
(0.000163413 -3.93378e-06 0)
(0.00021685 -4.28737e-06 0)
(0.000274128 -4.54639e-06 0)
(0.000334131 -4.71585e-06 0)
(0.000395796 -4.80203e-06 0)
(0.000458133 -4.81129e-06 0)
(0.000520228 -4.75115e-06 0)
(0.000581256 -4.62923e-06 0)
(0.000640487 -4.45409e-06 0)
(0.000697293 -4.23421e-06 0)
(0.000751151 -3.97864e-06 0)
(0.000801644 -3.69602e-06 0)
(0.000848461 -3.39523e-06 0)
(0.000891394 -3.08423e-06 0)
(0.000930331 -2.77082e-06 0)
(0.000965253 -2.46164e-06 0)
(0.000996228 -2.16344e-06 0)
(0.0010234 -1.88292e-06 0)
(0.00104698 -1.62545e-06 0)
(0.00106724 -1.39481e-06 0)
(0.0010845 -1.19407e-06 0)
(0.00109912 -1.02566e-06 0)
(0.00111148 -8.91441e-07 0)
(0.00112198 -7.92421e-07 0)
(0.00113102 -7.28775e-07 0)
(0.001139 -6.99745e-07 0)
(0.0011463 -7.03711e-07 0)
(0.00115326 -7.38153e-07 0)
(0.00116019 -7.99479e-07 0)
(0.00116735 -8.83914e-07 0)
(0.00117493 -9.85375e-07 0)
(0.00118302 -1.09901e-06 0)
(0.00119167 -1.21746e-06 0)
(0.00120079 -1.33311e-06 0)
(0.00121022 -1.43902e-06 0)
(0.00121966 -1.52639e-06 0)
(0.00122874 -1.58654e-06 0)
(0.00123693 -1.61189e-06 0)
(0.0012436 -1.59305e-06 0)
(0.00124802 -1.52305e-06 0)
(0.00124931 -1.39408e-06 0)
(0.00124653 -1.19724e-06 0)
(0.00123859 -9.26241e-07 0)
(0.00122431 -5.74056e-07 0)
(0.00120243 -1.33882e-07 0)
(0.00117156 4.01449e-07 0)
(0.00113023 1.03933e-06 0)
(0.00107683 1.78873e-06 0)
(0.00100967 2.65694e-06 0)
(0.000926928 3.65437e-06 0)
(0.000826665 4.79194e-06 0)
(0.000706814 6.08245e-06 0)
(0.000565174 7.54051e-06 0)
(0.00039942 9.17618e-06 0)
(0.000207103 1.10086e-05 0)
(-1.43391e-05 1.30408e-05 0)
(-0.000267554 1.52835e-05 0)
(-0.000555263 1.77561e-05 0)
(-0.000880225 2.0467e-05 0)
(-0.00124515 2.34182e-05 0)
(-0.00165271 2.66132e-05 0)
(-0.00210544 3.0051e-05 0)
(-0.00260572 3.37257e-05 0)
(-0.00315567 3.76264e-05 0)
(-0.00375709 4.17365e-05 0)
(-0.00441139 4.60333e-05 0)
(-0.00511952 5.04876e-05 0)
(-0.00588187 5.50635e-05 0)
(-0.00669823 5.97181e-05 0)
(-0.00756772 6.44017e-05 0)
(-0.00848869 6.90579e-05 0)
(-0.00945871 7.36236e-05 0)
(-0.0104745 7.80301e-05 0)
(-0.0115319 8.22032e-05 0)
(-0.012626 8.60638e-05 0)
(-0.0137506 8.95292e-05 0)
(-0.0148989 9.25132e-05 0)
(-0.0160633 9.49275e-05 0)
(-0.0172349 9.6682e-05 0)
(-0.0184042 9.76861e-05 0)
(-0.0195609 9.78497e-05 0)
(-0.0206937 9.70837e-05 0)
(-0.021791 9.5302e-05 0)
(-0.0228399 9.24222e-05 0)
(-0.0238276 8.83681e-05 0)
(-0.0247403 8.30707e-05 0)
(-0.0255643 7.64753e-05 0)
(-0.0262853 6.85591e-05 0)
(-0.026888 5.90042e-05 0)
(-0.0273597 4.83168e-05 0)
(-0.0276862 3.63552e-05 0)
(-0.0278555 2.25267e-05 0)
(-0.0278585 8.16936e-06 0)
(-0.0276796 -7.43938e-06 0)
(-0.0273143 -2.41496e-05 0)
(-0.0267564 -4.14449e-05 0)
(-0.0260036 -5.90534e-05 0)
(-0.0250573 -7.66301e-05 0)
(-0.0239228 -9.37562e-05 0)
(-0.02261 -0.000109962 0)
(-0.0211335 -0.000124751 0)
(-0.0195129 -0.000137613 0)
(-0.0177725 -0.000148062 0)
(-0.0159411 -0.000155657 0)
(-0.0140512 -0.000160041 0)
(-0.0121382 -0.000160971 0)
(-0.010239 -0.000158348 0)
(-0.00839075 -0.000152234 0)
(-0.00662917 -0.00014286 0)
(-0.00498702 -0.000130617 0)
(-0.00349259 -0.00011604 0)
(-0.0021685 -9.97655e-05 0)
(-0.00103079 -8.24875e-05 0)
(-8.84325e-05 -6.49109e-05 0)
(0.000656591 -4.76936e-05 0)
(0.00120892 -3.14037e-05 0)
(0.00157887 -1.64788e-05 0)
(0.00178153 -3.26193e-06 0)
(0.00183528 8.07576e-06 0)
(0.00176106 1.74683e-05 0)
(0.00158153 2.48508e-05 0)
(0.00132046 3.01626e-05 0)
(0.00100458 3.31509e-05 0)
(0.000665082 3.30987e-05 0)
(0.000341608 2.88395e-05 0)
(9.1663e-05 1.7231e-05 0)
(-1.16003e-05 -4.32683e-06 0)
(-5.37691e-06 6.56689e-06 0)
(-1.80527e-05 4.72295e-06 0)
(-1.48871e-05 -3.13573e-06 0)
(1.18721e-05 -1.28221e-05 0)
(6.46131e-05 -2.25772e-05 0)
(0.00014245 -3.16431e-05 0)
(0.000243234 -3.96954e-05 0)
(0.000364185 -4.66003e-05 0)
(0.000502238 -5.23153e-05 0)
(0.000654227 -5.68409e-05 0)
(0.000816998 -6.0207e-05 0)
(0.000987474 -6.24601e-05 0)
(0.00116271 -6.36633e-05 0)
(0.00133995 -6.38906e-05 0)
(0.00151664 -6.32277e-05 0)
(0.00169045 -6.17678e-05 0)
(0.00185933 -5.96122e-05 0)
(0.0020215 -5.68654e-05 0)
(0.00217547 -5.36357e-05 0)
(0.00232004 -5.00308e-05 0)
(0.00245431 -4.61574e-05 0)
(0.00257764 -4.2118e-05 0)
(0.00268968 -3.80098e-05 0)
(0.00279034 -3.39229e-05 0)
(0.00287977 -2.9941e-05 0)
(0.00295832 -2.61397e-05 0)
(0.00302653 -2.25843e-05 0)
(0.00308512 -1.93286e-05 0)
(0.00313493 -1.64158e-05 0)
(0.00317692 -1.38788e-05 0)
(0.0032121 -1.17395e-05 0)
(0.00324155 -1.00085e-05 0)
(0.00326634 -8.68462e-06 0)
(0.00328753 -7.75463e-06 0)
(0.00330611 -7.19331e-06 0)
(0.00332299 -6.96329e-06 0)
(0.00333896 -7.01467e-06 0)
(0.00335464 -7.28791e-06 0)
(0.00337046 -7.70685e-06 0)
(0.00338665 -8.1917e-06 0)
(0.00340317 -8.64634e-06 0)
(0.00341969 -8.96801e-06 0)
(0.00343561 -9.0498e-06 0)
(0.00345 -8.77461e-06 0)
(0.00346159 -8.02511e-06 0)
(0.00346879 -6.68222e-06 0)
(0.00346964 -4.62329e-06 0)
(0.00346191 -1.74007e-06 0)
(0.00344293 2.09541e-06 0)
(0.0034098 6.98886e-06 0)
(0.00335924 1.30482e-05 0)
(0.00328771 2.03804e-05 0)
(0.00319133 2.90903e-05 0)
(0.00306592 3.92835e-05 0)
(0.00290703 5.10684e-05 0)
(0.00270985 6.456e-05 0)
(0.00246928 7.98704e-05 0)
(0.00217988 9.7126e-05 0)
(0.00183589 0.000116455 0)
(0.00143119 0.000137991 0)
(0.000959347 0.000161897 0)
(0.000413606 0.000188222 0)
(-0.000213027 0.000217092 0)
(-0.000927892 0.000248666 0)
(-0.00173858 0.000283018 0)
(-0.0026525 0.000320151 0)
(-0.00367711 0.000360069 0)
(-0.00481973 0.00040273 0)
(-0.00608735 0.000448037 0)
(-0.00748645 0.000495829 0)
(-0.00902284 0.000545878 0)
(-0.0107015 0.000597885 0)
(-0.0125261 0.000651475 0)
(-0.0144994 0.0007062 0)
(-0.0166224 0.000761532 0)
(-0.0188944 0.00081687 0)
(-0.0213129 0.000871545 0)
(-0.0238734 0.00092482 0)
(-0.0265692 0.000975901 0)
(-0.0293912 0.00102395 0)
(-0.0323281 0.00106807 0)
(-0.035366 0.00110737 0)
(-0.0384887 0.00114093 0)
(-0.0416775 0.00116779 0)
(-0.0449114 0.00118705 0)
(-0.0481669 0.00119779 0)
(-0.0514185 0.00119913 0)
(-0.0546387 0.00119022 0)
(-0.0577978 0.00117025 0)
(-0.0608646 0.00113848 0)
(-0.0638062 0.00109422 0)
(-0.0665886 0.00103689 0)
(-0.0691767 0.000965976 0)
(-0.0715344 0.000881105 0)
(-0.0736257 0.000782034 0)
(-0.0754143 0.000668587 0)
(-0.0768625 0.000540341 0)
(-0.0779418 0.000397704 0)
(-0.078605 0.000242604 0)
(-0.0788373 7.93492e-05 0)
(-0.0786139 -9.90721e-05 0)
(-0.0779004 -0.000285661 0)
(-0.0766863 -0.000478751 0)
(-0.0749608 -0.000675401 0)
(-0.0727226 -0.000872204 0)
(-0.0699795 -0.00106539 0)
(-0.0667494 -0.00125069 0)
(-0.063061 -0.00142345 0)
(-0.0589551 -0.00157883 0)
(-0.0544838 -0.00171198 0)
(-0.0497111 -0.00181829 0)
(-0.0447113 -0.00189368 0)
(-0.0395677 -0.00193485 0)
(-0.0343704 -0.00193957 0)
(-0.0292131 -0.00190696 0)
(-0.0241903 -0.0018376 0)
(-0.019393 -0.00173365 0)
(-0.0149054 -0.00159879 0)
(-0.0108013 -0.0014381 0)
(-0.00714049 -0.00125769 0)
(-0.0039671 -0.00106441 0)
(-0.00130777 -0.000865322 0)
(0.00082851 -0.000667324 0)
(0.00244965 -0.000476625 0)
(0.00357896 -0.000298583 0)
(0.0042524 -0.000137334 0)
(0.00451618 4.10821e-06 0)
(0.00442432 0.000123328 0)
(0.00403751 0.000218984 0)
(0.00342005 0.000288904 0)
(0.00264613 0.000329392 0)
(0.00180049 0.000334011 0)
(0.000985922 0.000292317 0)
(0.000338144 0.000189407 0)
(9.05105e-06 3.78852e-05 0)
(-5.7325e-06 1.23983e-05 0)
(-1.54526e-05 5.87201e-06 0)
(2.06082e-07 -1.45165e-05 0)
(5.12254e-05 -3.96874e-05 0)
(0.000141256 -6.53863e-05 0)
(0.000269438 -8.95637e-05 0)
(0.000432864 -0.000111244 0)
(0.000627516 -0.000129974 0)
(0.000848818 -0.000145565 0)
(0.00109195 -0.000157975 0)
(0.00135205 -0.000167252 0)
(0.00162435 -0.000173505 0)
(0.00190424 -0.00017689 0)
(0.00218738 -0.000177603 0)
(0.00246976 -0.000175868 0)
(0.00274771 -0.000171937 0)
(0.00301797 -0.000166081 0)
(0.00327772 -0.000158583 0)
(0.00352456 -0.000149737 0)
(0.00375656 -0.000139834 0)
(0.00397226 -0.000129164 0)
(0.00417061 -0.000118007 0)
(0.00435101 -0.000106628 0)
(0.00451325 -9.52756e-05 0)
(0.0046575 -8.41768e-05 0)
(0.00478427 -7.35369e-05 0)
(0.00489435 -6.35338e-05 0)
(0.00498881 -5.43163e-05 0)
(0.00506891 -4.60042e-05 0)
(0.00513609 -3.86869e-05 0)
(0.0051919 -3.24234e-05 0)
(0.00523796 -2.72404e-05 0)
(0.00527588 -2.31319e-05 0)
(0.00530725 -2.00586e-05 0)
(0.00533357 -1.79472e-05 0)
(0.00535616 -1.66904e-05 0)
(0.00537618 -1.61464e-05 0)
(0.00539449 -1.61445e-05 0)
(0.00541166 -1.64717e-05 0)
(0.0054279 -1.68982e-05 0)
(0.005443 -1.71545e-05 0)
(0.0054563 -1.69519e-05 0)
(0.00546667 -1.59852e-05 0)
(0.00547245 -1.39225e-05 0)
(0.00547143 -1.04414e-05 0)
(0.00546089 -5.19328e-06 0)
(0.00543749 2.16811e-06 0)
(0.00539739 1.19666e-05 0)
(0.00533616 2.45418e-05 0)
(0.00524887 4.02099e-05 0)
(0.00513004 5.92846e-05 0)
(0.00497367 8.20738e-05 0)
(0.00477328 0.00010888 0)
(0.00452187 0.000140008 0)
(0.00421195 0.000175764 0)
(0.00383551 0.000216469 0)
(0.00338406 0.000262442 0)
(0.00284855 0.000314026 0)
(0.00221946 0.000371611 0)
(0.00148677 0.000435408 0)
(0.000640037 0.000505741 0)
(-0.000331791 0.000583049 0)
(-0.00144029 0.000667622 0)
(-0.00269693 0.000759611 0)
(-0.00411337 0.000859106 0)
(-0.00570137 0.00096613 0)
(-0.0074724 0.0010806 0)
(-0.00943748 0.00120228 0)
(-0.0116069 0.00133078 0)
(-0.0139899 0.00146551 0)
(-0.0165945 0.00160571 0)
(-0.019427 0.0017504 0)
(-0.0224916 0.0018984 0)
(-0.0257904 0.00204833 0)
(-0.0293228 0.0021986 0)
(-0.0330854 0.00234744 0)
(-0.0370714 0.00249288 0)
(-0.0412709 0.00263282 0)
(-0.0456703 0.00276501 0)
(-0.0502523 0.00288712 0)
(-0.054996 0.00299672 0)
(-0.0598765 0.00309138 0)
(-0.0648656 0.00316863 0)
(-0.0699311 0.00322606 0)
(-0.0750375 0.0032613 0)
(-0.0801463 0.00327206 0)
(-0.0852157 0.00325619 0)
(-0.0902013 0.00321165 0)
(-0.0950561 0.00313659 0)
(-0.0997313 0.00302932 0)
(-0.104176 0.00288839 0)
(-0.108339 0.00271259 0)
(-0.112166 0.00250099 0)
(-0.115606 0.00225301 0)
(-0.118604 0.00196846 0)
(-0.121108 0.00164747 0)
(-0.123066 0.00129019 0)
(-0.124441 0.000894054 0)
(-0.125155 0.000477656 0)
(-0.125217 2.55572e-05 0)
(-0.124559 -0.000450171 0)
(-0.123163 -0.000947244 0)
(-0.121009 -0.0014576 0)
(-0.118088 -0.00197384 0)
(-0.114405 -0.00248719 0)
(-0.109975 -0.00298802 0)
(-0.10483 -0.00346565 0)
(-0.099015 -0.00390854 0)
(-0.0925938 -0.00430478 0)
(-0.0856448 -0.00464253 0)
(-0.0782624 -0.00491059 0)
(-0.0705555 -0.00509903 0)
(-0.0626454 -0.00519988 0)
(-0.0546625 -0.00520774 0)
(-0.0467426 -0.00512039 0)
(-0.0390226 -0.00493919 0)
(-0.031635 -0.00466929 0)
(-0.0247035 -0.00431959 0)
(-0.0183374 -0.00390237 0)
(-0.0126272 -0.00343269 0)
(-0.00764148 -0.00292747 0)
(-0.0034241 -0.00240449 0)
(6.38438e-06 -0.00188131 0)
(0.00265624 -0.00137412 0)
(0.00455477 -0.000897137 0)
(0.00575126 -0.000461912 0)
(0.00631169 -7.74287e-05 0)
(0.00631484 0.000249544 0)
(0.00585246 0.000513059 0)
(0.00502277 0.000707405 0)
(0.00393994 0.000822276 0)
(0.00273299 0.000842571 0)
(0.00155285 0.00074596 0)
(0.000588575 0.0005066 0)
(4.12245e-05 0.000149651 0)
(-5.00173e-06 1.66819e-05 0)
(-6.37983e-06 1.74404e-06 0)
(2.69866e-05 -3.63839e-05 0)
(0.00010588 -8.30077e-05 0)
(0.000234604 -0.000130893 0)
(0.000412384 -0.000176273 0)
(0.000635801 -0.000217225 0)
(0.000899906 -0.000252783 0)
(0.00119892 -0.000282504 0)
(0.00152665 -0.000306245 0)
(0.00187679 -0.000324053 0)
(0.00224309 -0.000336108 0)
(0.00261951 -0.000342686 0)
(0.00300031 -0.000344147 0)
(0.00338017 -0.00034091 0)
(0.00375423 -0.000333449 0)
(0.00411813 -0.000322275 0)
(0.0044681 -0.000307925 0)
(0.00480092 -0.000290954 0)
(0.00511399 -0.000271918 0)
(0.00540529 -0.000251369 0)
(0.00567338 -0.000229839 0)
(0.00591741 -0.000207836 0)
(0.00613701 -0.000185835 0)
(0.00633235 -0.000164269 0)
(0.00650402 -0.00014353 0)
(0.006653 -0.000123958 0)
(0.00678062 -0.000105838 0)
(0.00688848 -8.93992e-05 0)
(0.00697841 -7.48127e-05 0)
(0.00705236 -6.21888e-05 0)
(0.00711239 -5.15757e-05 0)
(0.00716056 -4.29579e-05 0)
(0.00719886 -3.62547e-05 0)
(0.00722916 -3.13194e-05 0)
(0.00725311 -2.79393e-05 0)
(0.00727208 -2.58341e-05 0)
(0.00728709 -2.46656e-05 0)
(0.00729872 -2.40182e-05 0)
(0.00730707 -2.34357e-05 0)
(0.00731166 -2.23892e-05 0)
(0.0073114 -2.03203e-05 0)
(0.00730457 -1.66222e-05 0)
(0.00728866 -1.06423e-05 0)
(0.00726048 -1.73953e-06 0)
(0.00721609 1.07637e-05 0)
(0.00715075 2.75426e-05 0)
(0.00705895 4.92562e-05 0)
(0.00693446 7.65644e-05 0)
(0.00677025 0.000110102 0)
(0.0065586 0.000150495 0)
(0.00629106 0.000198354 0)
(0.00595847 0.000254284 0)
(0.00555099 0.000318884 0)
(0.0050581 0.000392762 0)
(0.00446857 0.000476539 0)
(0.00377051 0.000570855 0)
(0.00295134 0.000676331 0)
(0.00199798 0.000793439 0)
(0.000896481 0.000923023 0)
(-0.000367821 0.00106568 0)
(-0.00180979 0.0012219 0)
(-0.00344462 0.00139206 0)
(-0.00528788 0.00157646 0)
(-0.00735505 0.00177523 0)
(-0.00966141 0.00198826 0)
(-0.0122217 0.00221522 0)
(-0.0150497 0.00245546 0)
(-0.0181579 0.00270803 0)
(-0.0215573 0.00297158 0)
(-0.0252565 0.00324443 0)
(-0.0292619 0.00352445 0)
(-0.0335765 0.00380917 0)
(-0.0382002 0.00409568 0)
(-0.043129 0.00438073 0)
(-0.0483548 0.00466071 0)
(-0.053865 0.0049317 0)
(-0.0596423 0.00518952 0)
(-0.0656647 0.00542981 0)
(-0.0719052 0.00564804 0)
(-0.0783319 0.00583962 0)
(-0.0849081 0.00599996 0)
(-0.0915926 0.00612453 0)
(-0.0983398 0.00620891 0)
(-0.1051 0.00624888 0)
(-0.11182 0.00624045 0)
(-0.118442 0.00617991 0)
(-0.124908 0.00606386 0)
(-0.131156 0.0058893 0)
(-0.137121 0.0056536 0)
(-0.14274 0.00535461 0)
(-0.147945 0.00499068 0)
(-0.152671 0.00456072 0)
(-0.156853 0.00406428 0)
(-0.160427 0.00350165 0)
(-0.163329 0.00287386 0)
(-0.1655 0.00218258 0)
(-0.166891 0.00142771 0)
(-0.167439 0.000624424 0)
(-0.167115 -0.000226131 0)
(-0.165872 -0.00112132 0)
(-0.163687 -0.00204896 0)
(-0.160543 -0.00299623 0)
(-0.156437 -0.0039495 0)
(-0.151379 -0.00489284 0)
(-0.145394 -0.00580899 0)
(-0.138527 -0.00667899 0)
(-0.130839 -0.00748258 0)
(-0.122409 -0.00819888 0)
(-0.113336 -0.00880725 0)
(-0.103737 -0.00928819 0)
(-0.0937465 -0.00962445 0)
(-0.0835113 -0.00980208 0)
(-0.0731906 -0.00981162 0)
(-0.0629498 -0.00964902 0)
(-0.0529561 -0.0093164 0)
(-0.0433728 -0.00882246 0)
(-0.0343527 -0.00818246 0)
(-0.0260331 -0.00741769 0)
(-0.0185297 -0.00655446 0)
(-0.0119325 -0.00562268 0)
(-0.00630221 -0.00465411 0)
(-0.00166898 -0.00368047 0)
(0.00196791 -0.00273164 0)
(0.00463829 -0.00183422 0)
(0.00639823 -0.00101053 0)
(0.00732642 -0.000278497 0)
(0.00752023 0.000347546 0)
(0.00709371 0.000855675 0)
(0.00617473 0.0012329 0)
(0.00490863 0.00146096 0)
(0.00346008 0.00151396 0)
(0.00201636 0.00135661 0)
(0.000805949 0.000952515 0)
(7.0654e-05 0.000329501 0)
(-3.76266e-06 1.81262e-05 0)
(6.75527e-06 -1.00654e-05 0)
(6.15338e-05 -7.0593e-05 0)
(0.000170982 -0.00014357 0)
(0.000339458 -0.000218666 0)
(0.00056618 -0.000290173 0)
(0.00084732 -0.000355005 0)
(0.0011772 -0.000411522 0)
(0.00154906 -0.000458918 0)
(0.00195557 -0.000496884 0)
(0.00238921 -0.000525438 0)
(0.00284245 -0.000544823 0)
(0.00330799 -0.000555457 0)
(0.00377887 -0.000557888 0)
(0.00424863 -0.000552775 0)
(0.0047113 -0.000540863 0)
(0.00516158 -0.000522961 0)
(0.00559482 -0.000499923 0)
(0.00600706 -0.00047263 0)
(0.00639506 -0.000441967 0)
(0.0067563 -0.000408814 0)
(0.00708897 -0.00037402 0)
(0.00739191 -0.000338399 0)
(0.00766464 -0.000302707 0)
(0.00790725 -0.000267641 0)
(0.00812037 -0.000233823 0)
(0.00830511 -0.000201798 0)
(0.00846299 -0.000172023 0)
(0.00859586 -0.000144865 0)
(0.00870584 -0.000120595 0)
(0.00879521 -9.93861e-05 0)
(0.00886636 -8.13111e-05 0)
(0.00892168 -6.63382e-05 0)
(0.00896345 -5.43302e-05 0)
(0.00899383 -4.50422e-05 0)
(0.00901465 -3.8121e-05 0)
(0.00902742 -3.31046e-05 0)
(0.00903319 -2.94333e-05 0)
(0.00903245 -2.64275e-05 0)
(0.00902512 -2.33377e-05 0)
(0.00901032 -1.92879e-05 0)
(0.00898646 -1.33675e-05 0)
(0.00895111 -4.57166e-06 0)
(0.00890091 8.15552e-06 0)
(0.00883158 2.58824e-05 0)
(0.0087379 4.97201e-05 0)
(0.00861365 8.07802e-05 0)
(0.00845166 0.000120157 0)
(0.00824377 0.000168939 0)
(0.00798089 0.000228183 0)
(0.00765297 0.000298926 0)
(0.00724907 0.000382182 0)
(0.00675737 0.000478953 0)
(0.00616513 0.000590232 0)
(0.00545879 0.000717013 0)
(0.00462391 0.00086032 0)
(0.00364531 0.00102105 0)
(0.00250696 0.00120026 0)
(0.00119186 0.00139903 0)
(-0.000317527 0.00161828 0)
(-0.00203927 0.00185883 0)
(-0.00399202 0.00212144 0)
(-0.00619467 0.00240665 0)
(-0.00866617 0.00271478 0)
(-0.0114252 0.00304582 0)
(-0.01449 0.00339938 0)
(-0.0178776 0.00377465 0)
(-0.0216036 0.00417032 0)
(-0.0256817 0.0045845 0)
(-0.0301232 0.00501473 0)
(-0.0349361 0.0054579 0)
(-0.0401251 0.00591028 0)
(-0.0456907 0.00636748 0)
(-0.0516288 0.00682453 0)
(-0.0579302 0.00727585 0)
(-0.0645803 0.00771537 0)
(-0.071559 0.00813659 0)
(-0.0788401 0.00853263 0)
(-0.0863917 0.0088964 0)
(-0.0941757 0.00922065 0)
(-0.102148 0.00949815 0)
(-0.110261 0.00972174 0)
(-0.118459 0.00988446 0)
(-0.126683 0.00997968 0)
(-0.134869 0.0100012 0)
(-0.142953 0.00994315 0)
(-0.150862 0.00980041 0)
(-0.158525 0.00956831 0)
(-0.165868 0.00924291 0)
(-0.172816 0.00882094 0)
(-0.179294 0.00829993 0)
(-0.185225 0.00767821 0)
(-0.190536 0.00695505 0)
(-0.195155 0.0061307 0)
(-0.199011 0.00520654 0)
(-0.202037 0.00418513 0)
(-0.20417 0.00307019 0)
(-0.205358 0.0018654 0)
(-0.205546 0.000587785 0)
(-0.204693 -0.000757634 0)
(-0.202762 -0.00216312 0)
(-0.199735 -0.00361068 0)
(-0.195598 -0.00508178 0)
(-0.190356 -0.00655557 0)
(-0.184025 -0.00800802 0)
(-0.176642 -0.00941321 0)
(-0.168261 -0.010743 0)
(-0.158953 -0.0119676 0)
(-0.148811 -0.0130561 0)
(-0.137948 -0.0139783 0)
(-0.126496 -0.0147056 0)
(-0.114605 -0.0152124 0)
(-0.102438 -0.0154782 0)
(-0.0901754 -0.0154888 0)
(-0.0780007 -0.0152378 0)
(-0.0661023 -0.0147277 0)
(-0.0546651 -0.0139708 0)
(-0.0438642 -0.0129889 0)
(-0.0338584 -0.0118131 0)
(-0.0247845 -0.0104819 0)
(-0.0167516 -0.00903999 0)
(-0.00983684 -0.00753491 0)
(-0.00408337 -0.00601502 0)
(0.000500838 -0.00452652 0)
(0.0039418 -0.00311121 0)
(0.00629708 -0.00180508 0)
(0.00765226 -0.000637817 0)
(0.00811708 0.00036619 0)
(0.00782249 0.00118609 0)
(0.00691876 0.00180002 0)
(0.00557619 0.00217995 0)
(0.0039873 0.00228818 0)
(0.00236727 0.0020763 0)
(0.000976168 0.00149627 0)
(9.36156e-05 0.000564607 0)
(-2.27865e-06 1.5653e-05 0)
(2.22913e-05 -3.10834e-05 0)
(0.00010093 -0.000118448 0)
(0.000242781 -0.000222062 0)
(0.000451689 -0.000328602 0)
(0.000726681 -0.000430341 0)
(0.00106353 -0.000522898 0)
(0.00145593 -0.00060384 0)
(0.00189632 -0.000671899 0)
(0.00237643 -0.000726541 0)
(0.00288767 -0.000767719 0)
(0.00342143 -0.00079573 0)
(0.00396932 -0.000811135 0)
(0.00452333 -0.000814699 0)
(0.00507594 -0.000807351 0)
(0.00562026 -0.000790147 0)
(0.0061501 -0.000764242 0)
(0.00666004 -0.000730858 0)
(0.00714543 -0.000691255 0)
(0.00760247 -0.000646707 0)
(0.00802817 -0.000598475 0)
(0.00842032 -0.000547782 0)
(0.00877753 -0.000495796 0)
(0.00909913 -0.000443609 0)
(0.00938512 -0.000392223 0)
(0.00963613 -0.000342535 0)
(0.00985335 -0.00029533 0)
(0.0100384 -0.000251264 0)
(0.0101933 -0.000210865 0)
(0.0103205 -0.00017452 0)
(0.0104224 -0.000142475 0)
(0.0105016 -0.000114826 0)
(0.0105608 -9.15187e-05 0)
(0.0106024 -7.23415e-05 0)
(0.0106288 -5.69264e-05 0)
(0.010642 -4.47462e-05 0)
(0.0106434 -3.51137e-05 0)
(0.010634 -2.72013e-05 0)
(0.0106142 -1.99987e-05 0)
(0.0105835 -1.23859e-05 0)
(0.0105406 -3.0887e-06 0)
(0.0104834 9.25545e-06 0)
(0.0104087 2.61301e-05 0)
(0.010312 4.90927e-05 0)
(0.0101881 7.97363e-05 0)
(0.0100303 0.000119703 0)
(0.00983093 0.000170642 0)
(0.00958103 0.000234186 0)
(0.00927051 0.000311952 0)
(0.00888814 0.000405519 0)
(0.00842155 0.000516435 0)
(0.00785728 0.000646214 0)
(0.00718077 0.000796344 0)
(0.00637642 0.000968294 0)
(0.00542763 0.00116353 0)
(0.00431683 0.00138345 0)
(0.0030254 0.0016296 0)
(0.00153387 0.00190336 0)
(-0.000178075 0.00220608 0)
(-0.00213147 0.0025391 0)
(-0.00434789 0.00290352 0)
(-0.00684933 0.00330025 0)
(-0.00965787 0.00372989 0)
(-0.0127954 0.00419263 0)
(-0.0162832 0.00468815 0)
(-0.0201414 0.00521557 0)
(-0.0243887 0.00577331 0)
(-0.0290415 0.00635902 0)
(-0.0341134 0.0069695 0)
(-0.0396146 0.00760067 0)
(-0.0455513 0.00824751 0)
(-0.0519249 0.00890409 0)
(-0.0587315 0.00956355 0)
(-0.0659613 0.0102182 0)
(-0.0735984 0.0108595 0)
(-0.0816202 0.0114784 0)
(-0.0899972 0.0120651 0)
(-0.0986932 0.0126096 0)
(-0.107665 0.0131016 0)
(-0.116863 0.0135306 0)
(-0.126231 0.0138866 0)
(-0.135707 0.0141595 0)
(-0.145224 0.01434 0)
(-0.154711 0.0144191 0)
(-0.164091 0.0143887 0)
(-0.173287 0.0142415 0)
(-0.182218 0.013971 0)
(-0.190802 0.0135719 0)
(-0.198955 0.0130396 0)
(-0.206596 0.0123708 0)
(-0.213641 0.0115633 0)
(-0.220011 0.0106161 0)
(-0.225628 0.0095294 0)
(-0.230417 0.00830486 0)
(-0.234307 0.00694565 0)
(-0.237232 0.00545661 0)
(-0.23913 0.00384434 0)
(-0.23995 0.00211699 0)
(-0.239644 0.000292723 0)
(-0.238172 -0.00161794 0)
(-0.235507 -0.00360078 0)
(-0.231632 -0.00563247 0)
(-0.226543 -0.0076882 0)
(-0.220251 -0.00973956 0)
(-0.212781 -0.0117541 0)
(-0.204175 -0.0136969 0)
(-0.194494 -0.0155305 0)
(-0.183818 -0.017215 0)
(-0.172249 -0.0187097 0)
(-0.159906 -0.0199741 0)
(-0.146929 -0.0209702 0)
(-0.133477 -0.0216639 0)
(-0.119726 -0.0220274 0)
(-0.105863 -0.0220411 0)
(-0.0920863 -0.0216958 0)
(-0.0785975 -0.0209937 0)
(-0.0655967 -0.0199502 0)
(-0.0532752 -0.0185934 0)
(-0.0418095 -0.0169639 0)
(-0.0313538 -0.015113 0)
(-0.0220346 -0.0131005 0)
(-0.0139453 -0.010991 0)
(-0.00714307 -0.00885104 0)
(-0.00164686 -0.00674508 0)
(0.00256215 -0.00473248 0)
(0.00553878 -0.00286532 0)
(0.00737079 -0.00118766 0)
(0.00817505 0.000263581 0)
(0.0080944 0.00145625 0)
(0.0072956 0.00235755 0)
(0.0059681 0.00292849 0)
(0.0043261 0.00311884 0)
(0.00260672 0.00286661 0)
(0.00109649 0.00210958 0)
(0.000109736 0.000840187 0)
(-7.2045e-07 8.85965e-06 0)
(3.90401e-05 -6.21928e-05 0)
(0.000143019 -0.000180807 0)
(0.000318402 -0.000318981 0)
(0.000568031 -0.000460662 0)
(0.000890529 -0.000596142 0)
(0.00128121 -0.000719687 0)
(0.00173321 -0.000827986 0)
(0.00223827 -0.000919239 0)
(0.00278729 -0.00099263 0)
(0.0033708 -0.00104801 0)
(0.00397925 -0.00108573 0)
(0.0046033 -0.00110648 0)
(0.005234 -0.00111126 0)
(0.00586294 -0.00110131 0)
(0.00648239 -0.00107801 0)
(0.00708539 -0.00104291 0)
(0.0076658 -0.000997642 0)
(0.00821839 -0.000943896 0)
(0.0087388 -0.000883376 0)
(0.00922362 -0.000817775 0)
(0.00967029 -0.000748737 0)
(0.0100772 -0.000677829 0)
(0.0104434 -0.00060652 0)
(0.0107688 -0.000536157 0)
(0.011054 -0.000467947 0)
(0.0113003 -0.000402942 0)
(0.0115094 -0.000342028 0)
(0.0116833 -0.000285908 0)
(0.0118245 -0.000235101 0)
(0.0119358 -0.000189927 0)
(0.0120199 -0.000150506 0)
(0.0120795 -0.00011675 0)
(0.0121173 -8.83574e-05 0)
(0.0121357 -6.48113e-05 0)
(0.0121366 -4.53764e-05 0)
(0.0121214 -2.91019e-05 0)
(0.012091 -1.48247e-05 0)
(0.0120455 -1.16703e-06 0)
(0.011984 1.34331e-05 0)
(0.0119047 3.07294e-05 0)
(0.0118047 5.26141e-05 0)
(0.01168 8.11331e-05 0)
(0.0115253 0.000118437 0)
(0.0113338 0.000166737 0)
(0.0110978 0.000228306 0)
(0.0108077 0.000305428 0)
(0.010453 0.000400373 0)
(0.0100214 0.000515387 0)
(0.00949975 0.00065267 0)
(0.00887314 0.000814373 0)
(0.00812558 0.0010026 0)
(0.00723983 0.00121941 0)
(0.00619739 0.00146684 0)
(0.00497864 0.00174688 0)
(0.00356283 0.00206149 0)
(0.00192814 0.00241262 0)
(5.18102e-05 0.00280215 0)
(-0.00208978 0.00323185 0)
(-0.00452092 0.00370334 0)
(-0.00726636 0.00421794 0)
(-0.0103511 0.00477664 0)
(-0.0137998 0.00537994 0)
(-0.0176369 0.00602773 0)
(-0.0218852 0.00671916 0)
(-0.0265664 0.00745253 0)
(-0.0316995 0.00822514 0)
(-0.0373006 0.00903318 0)
(-0.0433821 0.00987166 0)
(-0.0499516 0.0107344 0)
(-0.0570119 0.0116138 0)
(-0.0645596 0.0125011 0)
(-0.0725848 0.0133866 0)
(-0.0810706 0.0142589 0)
(-0.0899925 0.0151063 0)
(-0.0993185 0.0159159 0)
(-0.109009 0.0166743 0)
(-0.119015 0.0173677 0)
(-0.129283 0.0179825 0)
(-0.139751 0.0185048 0)
(-0.15035 0.0189214 0)
(-0.161006 0.0192196 0)
(-0.17164 0.0193876 0)
(-0.18217 0.0194145 0)
(-0.19251 0.0192908 0)
(-0.202572 0.0190079 0)
(-0.212267 0.0185587 0)
(-0.221507 0.0179377 0)
(-0.230203 0.0171406 0)
(-0.23827 0.0161645 0)
(-0.245623 0.0150084 0)
(-0.25218 0.0136724 0)
(-0.257865 0.0121585 0)
(-0.262605 0.0104706 0)
(-0.266333 0.00861411 0)
(-0.268985 0.00659685 0)
(-0.270506 0.00442887 0)
(-0.270851 0.0021227 0)
(-0.269976 -0.00030158 0)
(-0.267849 -0.00282753 0)
(-0.26445 -0.00543441 0)
(-0.259769 -0.00809359 0)
(-0.253809 -0.0107738 0)
(-0.246584 -0.0134392 0)
(-0.238127 -0.0160492 0)
(-0.228484 -0.0185601 0)
(-0.217721 -0.0209249 0)
(-0.205921 -0.0230943 0)
(-0.193188 -0.0250172 0)
(-0.179645 -0.0266435 0)
(-0.165435 -0.0279253 0)
(-0.15072 -0.0288197 0)
(-0.13568 -0.0292912 0)
(-0.120507 -0.0293142 0)
(-0.105407 -0.0288758 0)
(-0.0905897 -0.0279774 0)
(-0.0762654 -0.0266362 0)
(-0.0626383 -0.0248861 0)
(-0.0498988 -0.0227766 0)
(-0.0382168 -0.0203715 0)
(-0.0277346 -0.0177455 0)
(-0.0185617 -0.0149813 0)
(-0.01077 -0.0121644 0)
(-0.00439113 -0.00937882 0)
(0.000583954 -0.00670345 0)
(0.00420412 -0.00420867 0)
(0.00655546 -0.0019552 0)
(0.00775785 5.16205e-06 0)
(0.00796141 0.00162651 0)
(0.00734448 0.00286382 0)
(0.006111 0.0036654 0)
(0.0044918 0.00396786 0)
(0.00274161 0.00369478 0)
(0.00116939 0.00276664 0)
(0.000119672 0.00114232 0)
(8.21526e-07 -2.43865e-06 0)
(5.62239e-05 -0.000103838 0)
(0.000186248 -0.000258129 0)
(0.000395664 -0.000434555 0)
(0.000685929 -0.000614683 0)
(0.00105504 -0.000786944 0)
(0.00149776 -0.000944256 0)
(0.00200668 -0.00108239 0)
(0.00257288 -0.00119896 0)
(0.00318658 -0.00129282 0)
(0.00383751 -0.00136371 0)
(0.00451532 -0.001412 0)
(0.00520984 -0.00143852 0)
(0.0059113 -0.00144453 0)
(0.00661051 -0.00143155 0)
(0.00729899 -0.00140137 0)
(0.00796911 -0.00135595 0)
(0.0086141 -0.00129736 0)
(0.00922818 -0.00122775 0)
(0.00980651 -0.00114932 0)
(0.0103453 -0.00106421 0)
(0.0108416 -0.000974545 0)
(0.0112936 -0.000882318 0)
(0.0117001 -0.000789414 0)
(0.012061 -0.000697557 0)
(0.0123768 -0.000608294 0)
(0.0126487 -0.000522972 0)
(0.0128783 -0.000442719 0)
(0.013068 -0.000368436 0)
(0.0132202 -0.000300776 0)
(0.0133376 -0.000240142 0)
(0.0134233 -0.00018667 0)
(0.0134798 -0.000140229 0)
(0.01351 -0.000100409 0)
(0.0135161 -6.65159e-05 0)
(0.0135001 -3.75736e-05 0)
(0.0134632 -1.23226e-05 0)
(0.0134061 1.07764e-05 0)
(0.0133283 3.3538e-05 0)
(0.0132287 5.80243e-05 0)
(0.0131049 8.65417e-05 0)
(0.0129531 0.000121591 0)
(0.0127683 0.000165865 0)
(0.0125443 0.000222193 0)
(0.012273 0.000293501 0)
(0.011945 0.000382784 0)
(0.0115495 0.000493058 0)
(0.0110737 0.00062733 0)
(0.0105037 0.000788568 0)
(0.00982378 0.000979687 0)
(0.00901682 0.00120353 0)
(0.00806424 0.00146289 0)
(0.00694605 0.00176046 0)
(0.00564092 0.00209891 0)
(0.00412621 0.00248083 0)
(0.00237811 0.00290876 0)
(0.00037167 0.00338515 0)
(-0.00191901 0.00391234 0)
(-0.00452065 0.00449248 0)
(-0.00746053 0.00512743 0)
(-0.0107662 0.00581865 0)
(-0.0144652 0.00656705 0)
(-0.0185844 0.00737285 0)
(-0.0231497 0.00823541 0)
(-0.0281852 0.00915303 0)
(-0.0337127 0.0101228 0)
(-0.0397507 0.0111405 0)
(-0.0463137 0.0122004 0)
(-0.0534115 0.0132951 0)
(-0.061048 0.0144158 0)
(-0.0692208 0.0155517 0)
(-0.0779202 0.0166907 0)
(-0.0871288 0.0178192 0)
(-0.0968208 0.0189222 0)
(-0.106962 0.0199836 0)
(-0.11751 0.0209865 0)
(-0.128413 0.0219135 0)
(-0.139611 0.022747 0)
(-0.151038 0.0234694 0)
(-0.162619 0.0240638 0)
(-0.174275 0.0245138 0)
(-0.18592 0.0248044 0)
(-0.197464 0.0249217 0)
(-0.208818 0.0248534 0)
(-0.219886 0.0245889 0)
(-0.230575 0.0241194 0)
(-0.240791 0.0234379 0)
(-0.250444 0.0225393 0)
(-0.259442 0.0214203 0)
(-0.267701 0.0200795 0)
(-0.275137 0.0185175 0)
(-0.281673 0.0167366 0)
(-0.287235 0.0147411 0)
(-0.291757 0.0125375 0)
(-0.295177 0.0101343 0)
(-0.297441 0.00754253 0)
(-0.298499 0.00477589 0)
(-0.298312 0.00185118 0)
(-0.296846 -0.0012088 0)
(-0.294077 -0.00438211 0)
(-0.289989 -0.00764187 0)
(-0.284581 -0.0109543 0)
(-0.277857 -0.0142818 0)
(-0.26984 -0.0175817 0)
(-0.260562 -0.0208058 0)
(-0.250073 -0.0239018 0)
(-0.238438 -0.0268141 0)
(-0.225741 -0.0294838 0)
(-0.212085 -0.0318503 0)
(-0.197591 -0.0338534 0)
(-0.182401 -0.0354355 0)
(-0.166677 -0.0365446 0)
(-0.150596 -0.0371371 0)
(-0.134355 -0.0371805 0)
(-0.118159 -0.0366575 0)
(-0.102226 -0.0355672 0)
(-0.0867725 -0.0339281 0)
(-0.0720125 -0.0317785 0)
(-0.0581484 -0.0291759 0)
(-0.0453642 -0.0261958 0)
(-0.0338175 -0.0229282 0)
(-0.0236333 -0.019473 0)
(-0.0148988 -0.0159358 0)
(-0.00765981 -0.0124213 0)
(-0.0019187 -0.00902921 0)
(0.00236492 -0.0058502 0)
(0.00527252 -0.00296376 0)
(0.00692353 -0.000438787 0)
(0.00747204 0.00166332 0)
(0.00710313 0.00328304 0)
(0.00603197 0.00435504 0)
(0.00450188 0.0048018 0)
(0.00278196 0.00453124 0)
(0.00119976 0.00344365 0)
(0.000124414 0.00145852 0)
(2.28731e-06 -1.82411e-05 0)
(7.3297e-05 -0.000156152 0)
(0.00022949 -0.000350568 0)
(0.000472935 -0.000568777 0)
(0.000803412 -0.000790362 0)
(0.00121809 -0.00100207 0)
(0.00171109 -0.00119552 0)
(0.00227441 -0.00136556 0)
(0.00289854 -0.00150921 0)
(0.00357303 -0.00162496 0)
(0.00428694 -0.0017124 0)
(0.00502921 -0.00177191 0)
(0.00578895 -0.00180448 0)
(0.00655568 -0.00181161 0)
(0.00731951 -0.00179516 0)
(0.00807133 -0.00175731 0)
(0.00880287 -0.00170047 0)
(0.00950685 -0.00162718 0)
(0.010177 -0.0015401 0)