/*--------------------------------*- C++ -*----------------------------------*\
  =========                 |
  \\      /  F ield         | OpenFOAM: The Open Source CFD Toolbox
   \\    /   O peration     | Website:  https://openfoam.org
    \\  /    A nd           | Version:  12
     \\/     M anipulation  |
\*---------------------------------------------------------------------------*/
FoamFile
{
    format      ascii;
    class       volScalarField;
    location    "2.5";
    object      nut;
}
// * * * * * * * * * * * * * * * * * * * * * * * * * * * * * * * * * * * * * //

dimensions      [0 2 -1 0 0 0 0];

internalField   nonuniform List<scalar> 
5625
(
2.30968e-16
6.97815e-15
1.47876e-14
2.41045e-14
3.45934e-14
4.60005e-14
5.81402e-14
7.08691e-14
8.40692e-14
9.76383e-14
1.11485e-13
1.25524e-13
1.39677e-13
1.5387e-13
1.68032e-13
1.82095e-13
1.95994e-13
2.09666e-13
2.23053e-13
2.36096e-13
2.48742e-13
2.60937e-13
2.72632e-13
2.83781e-13
2.94339e-13
3.04264e-13
3.13519e-13
3.22067e-13
3.29876e-13
3.36918e-13
3.43165e-13
3.48595e-13
3.53188e-13
3.56928e-13
3.59801e-13
3.61798e-13
3.62913e-13
3.63143e-13
3.62488e-13
3.60951e-13
3.58541e-13
3.55266e-13
3.51141e-13
3.46182e-13
3.40409e-13
3.33845e-13
3.26516e-13
3.18451e-13
3.0968e-13
3.00239e-13
2.90164e-13
2.79494e-13
2.68272e-13
2.56542e-13
2.4435e-13
2.31745e-13
2.18779e-13
2.05504e-13
1.91976e-13
1.78252e-13
1.64392e-13
1.50457e-13
1.36513e-13
1.22627e-13
1.08869e-13
9.53139e-14
8.20428e-14
6.91426e-14
5.6711e-14
4.48612e-14
3.37315e-14
2.35012e-14
1.44162e-14
6.80243e-15
2.25142e-16
1.56226e-15
2.28198e-13
1.21868e-12
2.8494e-12
4.79001e-12
6.88566e-12
9.08101e-12
1.13523e-11
1.36845e-11
1.6065e-11
1.84817e-11
2.09229e-11
2.33771e-11
2.58328e-11
2.8279e-11
3.0705e-11
3.31001e-11
3.54543e-11
3.77575e-11
4.00004e-11
4.21737e-11
4.42688e-11
4.62773e-11
4.81912e-11
5.00032e-11
5.17063e-11
5.32939e-11
5.476e-11
5.60992e-11
5.73064e-11
5.83772e-11
5.93078e-11
6.00948e-11
6.07354e-11
6.12274e-11
6.15692e-11
6.17597e-11
6.17984e-11
6.16854e-11
6.14213e-11
6.10073e-11
6.04453e-11
5.97375e-11
5.88868e-11
5.78965e-11
5.67707e-11
5.55136e-11
5.41301e-11
5.26257e-11
5.10061e-11
4.92775e-11
4.74467e-11
4.55207e-11
4.3507e-11
4.14135e-11
3.92482e-11
3.70199e-11
3.47373e-11
3.24095e-11
3.00461e-11
2.76567e-11
2.52514e-11
2.28404e-11
2.04341e-11
1.80434e-11
1.5679e-11
1.33521e-11
1.10741e-11
8.85686e-12
6.71478e-12
4.67065e-12
2.77819e-12
1.18814e-12
2.22461e-13
1.52285e-15
3.4734e-15
5.71401e-13
3.9032e-12
1.16679e-11
2.35791e-11
3.84035e-11
5.50292e-11
7.27372e-11
9.1108e-11
1.09893e-10
1.28932e-10
1.48107e-10
1.67321e-10
1.86489e-10
2.05531e-10
2.2437e-10
2.4293e-10
2.6114e-10
2.7893e-10
2.9623e-10
3.12974e-10
3.29099e-10
3.44545e-10
3.59252e-10
3.73167e-10
3.86236e-10
3.98414e-10
4.09654e-10
4.19916e-10
4.29163e-10
4.37362e-10
4.44484e-10
4.50505e-10
4.55404e-10
4.59164e-10
4.61774e-10
4.63226e-10
4.63516e-10
4.62646e-10
4.6062e-10
4.57447e-10
4.53141e-10
4.47719e-10
4.41204e-10
4.3362e-10
4.24996e-10
4.15367e-10
4.04768e-10
3.93238e-10
3.80823e-10
3.67567e-10
3.5352e-10
3.38735e-10
3.23267e-10
3.07172e-10
2.90511e-10
2.73345e-10
2.55738e-10
2.37756e-10
2.19465e-10
2.00934e-10
1.82234e-10
1.63436e-10
1.44617e-10
1.25857e-10
1.07246e-10
8.8896e-11
7.09606e-11
5.36789e-11
3.74575e-11
2.29959e-11
1.13778e-11
3.80545e-12
5.56984e-13
3.38531e-15
5.74596e-15
9.68853e-13
7.06811e-12
2.32391e-11
5.1978e-11
9.27563e-11
1.43284e-10
2.00918e-10
2.63402e-10
3.29047e-10
3.96649e-10
4.6535e-10
5.34523e-10
6.03683e-10
6.72436e-10
7.40446e-10
8.07411e-10
8.73055e-10
9.37121e-10
9.99363e-10
1.05955e-09
1.11746e-09
1.17288e-09
1.2256e-09
1.27546e-09
1.32225e-09
1.36582e-09
1.40602e-09
1.4427e-09
1.47574e-09
1.50502e-09
1.53045e-09
1.55194e-09
1.56941e-09
1.58282e-09
1.59213e-09
1.5973e-09
1.59833e-09
1.59523e-09
1.588e-09
1.57668e-09
1.56132e-09
1.54199e-09
1.51875e-09
1.49169e-09
1.46092e-09
1.42656e-09
1.38872e-09
1.34754e-09
1.30318e-09
1.2558e-09
1.20556e-09
1.15264e-09
1.09724e-09
1.03954e-09
9.79762e-10
9.18108e-10
8.54805e-10
7.90083e-10
7.24188e-10
6.57378e-10
5.89936e-10
5.22179e-10
4.54479e-10
3.87296e-10
3.2123e-10
2.57107e-10
1.9609e-10
1.39822e-10
9.04985e-11
5.07004e-11
2.26609e-11
6.88991e-12
9.44155e-13
5.59856e-15
8.27852e-15
1.40766e-12
1.05164e-11
3.5954e-11
8.44577e-11
1.588e-10
2.57909e-10
3.78273e-10
5.1547e-10
6.65199e-10
8.23757e-10
9.88148e-10
1.15601e-09
1.32548e-09
1.49509e-09
1.66362e-09
1.83006e-09
1.99353e-09
2.15326e-09
2.30855e-09
2.45877e-09
2.60331e-09
2.74164e-09
2.87323e-09
2.99761e-09
3.11435e-09
3.22301e-09
3.32324e-09
3.41468e-09
3.49702e-09
3.56999e-09
3.63334e-09
3.68688e-09
3.73043e-09
3.76386e-09
3.78706e-09
3.79999e-09
3.80262e-09
3.79495e-09
3.77704e-09
3.74896e-09
3.71084e-09
3.66282e-09
3.60509e-09
3.53786e-09
3.46139e-09
3.37595e-09
3.28186e-09
3.17944e-09
3.06907e-09
2.95113e-09
2.82605e-09
2.69426e-09
2.55625e-09
2.41251e-09
2.26356e-09
2.10998e-09
1.95237e-09
1.79138e-09
1.62776e-09
1.46231e-09
1.296e-09
1.12999e-09
9.65676e-10
8.04859e-10
6.49815e-10
5.0345e-10
3.69367e-10
2.51763e-10
1.54958e-10
8.23773e-11
3.50508e-11
1.02473e-11
1.37113e-12
8.06214e-15
1.10072e-14
1.87865e-12
1.41861e-11
4.94043e-11
1.18989e-10
2.30338e-10
3.85755e-10
5.83095e-10
8.17283e-10
1.08187e-09
1.37021e-09
1.67614e-09
1.99428e-09
2.32005e-09
2.64966e-09
2.97992e-09
3.30816e-09
3.63211e-09
3.9498e-09
4.25952e-09
4.55973e-09
4.84908e-09
5.12631e-09
5.39029e-09
5.63998e-09
5.87442e-09
6.09276e-09
6.2942e-09
6.47803e-09
6.64361e-09
6.79038e-09
6.91785e-09
7.02561e-09
7.11331e-09
7.18069e-09
7.22755e-09
7.25377e-09
7.25931e-09
7.2442e-09
7.20851e-09
7.15242e-09
7.07617e-09
6.98005e-09
6.86445e-09
6.72979e-09
6.57658e-09
6.40538e-09
6.21682e-09
6.01158e-09
5.79042e-09
5.55413e-09
5.3036e-09
5.03977e-09
4.76365e-09
4.47633e-09
4.179e-09
3.87298e-09
3.5597e-09
3.24079e-09
2.91811e-09
2.59383e-09
2.27049e-09
1.95114e-09
1.63945e-09
1.33985e-09
1.05758e-09
7.98657e-10
5.69566e-10
3.76611e-10
2.24743e-10
1.16021e-10
4.8139e-11
1.38144e-11
1.82861e-12
1.07117e-14
1.38853e-14
2.37447e-12
1.80307e-11
6.34135e-11
1.54852e-10
3.04869e-10
5.20277e-10
8.01999e-10
1.14612e-09
1.54551e-09
1.99134e-09
2.47436e-09
2.98564e-09
3.51702e-09
4.06128e-09
4.6121e-09
5.16405e-09
5.71238e-09
6.25302e-09
6.78237e-09
7.29728e-09
7.79495e-09
8.27289e-09
8.72883e-09
9.16076e-09
9.56685e-09
9.94545e-09
1.02951e-08
1.06144e-08
1.09022e-08
1.11575e-08
1.13794e-08
1.15671e-08
1.172e-08
1.18377e-08
1.19197e-08
1.19659e-08
1.19762e-08
1.19506e-08
1.18892e-08
1.17924e-08
1.16606e-08
1.14943e-08
1.12942e-08
1.10611e-08
1.07958e-08
1.04994e-08
1.0173e-08
9.81785e-09
9.43534e-09
9.02697e-09
8.59437e-09
8.13936e-09
7.66388e-09
7.17012e-09
6.66044e-09
6.13752e-09
5.60434e-09
5.06432e-09
4.52135e-09
3.97997e-09
3.44544e-09
2.92386e-09
2.42226e-09
1.94861e-09
1.51162e-09
1.12036e-09
7.83453e-10
5.0786e-10
2.97342e-10
1.50896e-10
6.17408e-11
1.75423e-11
2.30898e-12
1.3499e-14
1.68754e-14
2.88904e-12
2.20089e-11
7.78491e-11
1.91667e-10
3.8126e-10
6.58425e-10
1.02808e-09
1.48877e-09
2.03406e-09
2.65414e-09
3.33743e-09
4.07177e-09
4.84522e-09
5.64661e-09
6.46576e-09
7.2935e-09
8.12173e-09
8.94326e-09
9.75173e-09
1.05415e-08
1.13076e-08
1.20455e-08
1.27513e-08
1.34214e-08
1.40525e-08
1.46418e-08
1.51868e-08
1.56852e-08
1.61349e-08
1.65342e-08
1.68816e-08
1.71758e-08
1.74158e-08
1.76008e-08
1.77301e-08
1.78034e-08
1.78205e-08
1.77816e-08
1.76868e-08
1.75366e-08
1.73317e-08
1.7073e-08
1.67614e-08
1.63984e-08
1.59854e-08
1.55241e-08
1.50163e-08
1.44642e-08
1.38701e-08
1.32365e-08
1.25663e-08
1.18627e-08
1.11289e-08
1.0369e-08
9.58712e-09
8.78807e-09
7.97725e-09
7.16075e-09
6.34547e-09
5.53929e-09
4.75107e-09
3.99076e-09
3.2693e-09
2.59837e-09
1.98992e-09
1.4553e-09
1.00405e-09
6.42383e-10
3.71571e-10
1.86593e-10
7.57118e-11
2.13867e-11
2.80574e-12
1.63843e-14
1.9946e-14
3.41713e-12
2.60841e-11
9.25926e-11
2.29144e-10
4.58828e-10
7.98566e-10
1.25768e-09
1.83791e-09
2.53447e-09
3.3376e-09
4.23431e-09
5.20981e-09
6.24875e-09
7.336e-09
8.4572e-09
9.59902e-09
1.07493e-08
1.1897e-08
1.30323e-08
1.41463e-08
1.5231e-08
1.62792e-08
1.72847e-08
1.82417e-08
1.9145e-08
1.99901e-08
2.07728e-08
2.14897e-08
2.21374e-08
2.27133e-08
2.32149e-08
2.36402e-08
2.39876e-08
2.42558e-08
2.44438e-08
2.45512e-08
2.45775e-08
2.45229e-08
2.43877e-08
2.41726e-08
2.38787e-08
2.35071e-08
2.30597e-08
2.25382e-08
2.19451e-08
2.12829e-08
2.05544e-08
1.97631e-08
1.89126e-08
1.80068e-08
1.70504e-08
1.60483e-08
1.5006e-08
1.39297e-08
1.28262e-08
1.17032e-08
1.05692e-08
9.43376e-09
8.30757e-09
7.20249e-09
6.13154e-09
5.10883e-09
4.14922e-09
3.26782e-09
2.47914e-09
1.79589e-09
1.22749e-09
7.78413e-10
4.46666e-10
2.22785e-10
8.99185e-11
2.53066e-11
3.31315e-12
1.93333e-14
2.30701e-14
3.95416e-12
3.02229e-11
1.07535e-10
2.67028e-10
5.37041e-10
9.39614e-10
1.4886e-09
2.18926e-09
3.03901e-09
4.02886e-09
5.1451e-09
6.37103e-09
7.68835e-09
9.07828e-09
1.05223e-08
1.20029e-08
1.35034e-08
1.50087e-08
1.65047e-08
1.79788e-08
1.94195e-08
2.08163e-08
2.21599e-08
2.34419e-08
2.46547e-08
2.57916e-08
2.68465e-08
2.7814e-08
2.86895e-08
2.94688e-08
3.01485e-08
3.07255e-08
3.11975e-08
3.15624e-08
3.1819e-08
3.19663e-08
3.20039e-08
3.19318e-08
3.17505e-08
3.1461e-08
3.10647e-08
3.05635e-08
2.99597e-08
2.92562e-08
2.84562e-08
2.75635e-08
2.65824e-08
2.55177e-08
2.43747e-08
2.31595e-08
2.18786e-08
2.05395e-08
1.91502e-08
1.77198e-08
1.62583e-08
1.47769e-08
1.32879e-08
1.18048e-08
1.03425e-08
8.91733e-09
7.54652e-09
6.24833e-09
5.04126e-09
3.94335e-09
2.97098e-09
2.13743e-09
1.45129e-09
9.14693e-10
5.22003e-10
2.59171e-10
1.04233e-10
2.92639e-11
3.82598e-12
2.23149e-14
2.62237e-14
4.49609e-12
3.43955e-11
1.22575e-10
3.05083e-10
6.15436e-10
1.08071e-09
1.71927e-09
2.54e-09
3.54278e-09
4.71976e-09
6.05708e-09
7.53661e-09
9.13761e-09
1.0838e-08
1.26154e-08
1.4448e-08
1.63149e-08
1.81963e-08
2.0074e-08
2.19311e-08
2.37522e-08
2.55232e-08
2.72313e-08
2.88649e-08
3.04136e-08
3.1868e-08
3.32199e-08
3.44616e-08
3.55867e-08
3.65896e-08
3.74651e-08
3.82093e-08
3.88187e-08
3.92907e-08
3.96232e-08
3.9815e-08
3.98653e-08
3.97745e-08
3.95428e-08
3.91715e-08
3.86628e-08
3.80191e-08
3.72437e-08
3.63403e-08
3.53135e-08
3.41685e-08
3.29112e-08
3.15481e-08
3.00868e-08
2.85354e-08
2.69032e-08
2.52003e-08
2.3438e-08
2.16285e-08
1.97857e-08
1.79245e-08
1.60613e-08
1.42141e-08
1.24022e-08
1.06462e-08
8.96771e-09
7.38886e-09
5.93142e-09
4.61583e-09
3.45978e-09
2.4766e-09
1.67356e-09
1.05016e-09
5.97002e-10
2.95457e-10
1.18534e-10
3.32225e-11
4.33937e-12
2.53006e-14
2.93856e-14
5.0393e-12
3.8575e-11
1.37622e-10
3.43092e-10
6.9359e-10
1.22111e-09
1.94843e-09
2.88803e-09
4.04232e-09
5.40482e-09
6.96177e-09
8.69401e-09
1.05787e-08
1.25908e-08
1.47045e-08
1.68937e-08
1.91334e-08
2.13993e-08
2.36688e-08
2.59207e-08
2.81353e-08
3.02947e-08
3.23822e-08
3.43831e-08
3.62835e-08
3.80713e-08
3.97355e-08
4.12663e-08
4.2655e-08
4.38941e-08
4.49771e-08
4.58986e-08
4.66538e-08
4.72394e-08
4.76526e-08
4.78917e-08
4.79557e-08
4.78448e-08
4.75595e-08
4.71016e-08
4.64736e-08
4.56787e-08
4.47213e-08
4.36062e-08
4.23395e-08
4.09278e-08
3.93791e-08
3.77019e-08
3.5906e-08
3.40022e-08
3.20027e-08
2.99206e-08
2.77705e-08
2.55686e-08
2.33323e-08
2.10809e-08
1.88351e-08
1.66173e-08
1.44512e-08
1.23618e-08
1.03748e-08
8.51588e-09
6.80965e-09
5.27857e-09
3.94124e-09
2.8107e-09
1.89264e-09
1.18382e-09
6.71106e-10
3.31363e-10
1.32703e-10
3.71482e-11
4.84877e-12
2.82637e-14
3.25368e-14
5.58057e-12
4.27371e-11
1.52592e-10
3.80855e-10
7.71114e-10
1.36015e-09
2.17501e-09
3.23165e-09
4.53501e-09
6.08e-09
7.85316e-09
9.83448e-09
1.19993e-08
1.432e-08
1.67673e-08
1.93116e-08
2.19233e-08
2.45742e-08
2.72371e-08
2.98864e-08
3.24983e-08
3.50508e-08
3.75234e-08
3.98976e-08
4.21564e-08
4.42845e-08
4.6268e-08
4.80946e-08
4.97535e-08
5.1235e-08
5.2531e-08
5.36344e-08
5.45395e-08
5.52417e-08
5.57377e-08
5.60251e-08
5.61027e-08
5.59708e-08
5.56298e-08
5.5082e-08
5.43305e-08
5.33795e-08
5.22342e-08
5.0901e-08
4.93873e-08
4.77016e-08
4.58538e-08
4.38548e-08
4.17169e-08
3.94536e-08
3.70801e-08
3.46129e-08
3.20702e-08
2.94719e-08
2.68396e-08
2.41967e-08
2.15682e-08
1.89811e-08
1.64633e-08
1.4044e-08
1.17527e-08
9.61829e-09
7.66809e-09
5.92615e-09
4.41172e-09
3.13733e-09
2.10699e-09
1.31474e-09
7.4377e-10
3.6661e-10
1.46625e-10
4.10084e-11
5.34986e-12
3.11787e-14
3.56606e-14
6.11703e-12
4.68602e-11
1.67409e-10
4.1819e-10
8.47657e-10
1.49722e-09
2.39804e-09
3.56941e-09
5.01869e-09
6.74218e-09
8.72672e-09
1.09516e-08
1.33906e-08
1.60136e-08
1.87882e-08
2.16812e-08
2.46591e-08
2.76895e-08
3.07409e-08
3.37835e-08
3.67893e-08
3.9732e-08
4.25875e-08
4.53335e-08
4.79496e-08
5.04173e-08
5.27199e-08
5.48424e-08
5.67715e-08
5.84957e-08
6.00047e-08
6.12902e-08
6.23451e-08
6.31637e-08
6.37419e-08
6.40769e-08
6.41671e-08
6.40129e-08
6.36147e-08
6.29753e-08
6.20985e-08
6.09894e-08
5.96543e-08
5.81011e-08
5.63386e-08
5.43774e-08
5.22293e-08
4.99078e-08
4.74275e-08
4.48052e-08
4.20589e-08
3.92087e-08
3.62763e-08
3.32856e-08
3.0262e-08
2.72333e-08
2.42288e-08
2.12796e-08
1.84178e-08
1.56766e-08
1.30891e-08
1.06871e-08
8.50015e-09
6.55388e-09
4.86793e-09
3.45423e-09
2.31513e-09
1.44198e-09
8.1446e-10
4.00931e-10
1.60191e-10
4.47716e-11
5.83849e-12
3.40215e-14
3.87422e-14
6.64616e-12
5.09253e-11
1.82007e-10
4.54937e-10
9.229e-10
1.63179e-09
2.61667e-09
3.90006e-09
5.49157e-09
7.38881e-09
9.57893e-09
1.20406e-08
1.4746e-08
1.76627e-08
2.07556e-08
2.39878e-08
2.73223e-08
3.07224e-08
3.41527e-08
3.75792e-08
4.09698e-08
4.42942e-08
4.75244e-08
5.06346e-08
5.36008e-08
5.64014e-08
5.90168e-08
6.14294e-08
6.36235e-08
6.55854e-08
6.73032e-08
6.87667e-08
6.99677e-08
7.08995e-08
7.15571e-08
7.19372e-08
7.2038e-08
7.18599e-08
7.14033e-08
7.06717e-08
6.96695e-08
6.84027e-08
6.6879e-08
6.51073e-08
6.30986e-08
6.0865e-08
5.84207e-08
5.57814e-08
5.29647e-08
4.99899e-08
4.68783e-08
4.36535e-08
4.03407e-08
3.69674e-08
3.35634e-08
3.01601e-08
2.67912e-08
2.34917e-08
2.02979e-08
1.72464e-08
1.43736e-08
1.17142e-08
9.29991e-09
7.15741e-09
5.30677e-09
3.75925e-09
2.51561e-09
1.56463e-09
8.82654e-10
4.34062e-10
1.73294e-10
4.84076e-11
6.31068e-12
3.67688e-14
4.17689e-14
7.16578e-12
5.49157e-11
1.96327e-10
4.90953e-10
9.96568e-10
1.76337e-09
2.83018e-09
4.22251e-09
5.95212e-09
8.01779e-09
1.04069e-08
1.30976e-08
1.60604e-08
1.92609e-08
2.26609e-08
2.62206e-08
2.98992e-08
3.36563e-08
3.74524e-08
4.12496e-08
4.50116e-08
4.87046e-08
5.22967e-08
5.57585e-08
5.90627e-08
6.21847e-08
6.51019e-08
6.77942e-08
7.02435e-08
7.2434e-08
7.43521e-08
7.59862e-08
7.73265e-08
7.83656e-08
7.90976e-08
7.95187e-08
7.9627e-08
7.94228e-08
7.89068e-08
7.8083e-08
7.69565e-08
7.55344e-08
7.38253e-08
7.184e-08
6.95907e-08
6.70918e-08
6.43594e-08
6.14117e-08
5.82688e-08
5.4953e-08
5.14888e-08
4.79027e-08
4.42237e-08
4.04828e-08
3.67136e-08
3.29515e-08
2.92339e-08
2.55997e-08
2.20889e-08
1.87415e-08
1.5597e-08
1.26926e-08
1.00619e-08
7.73262e-09
5.7252e-09
4.05027e-09
2.707e-09
1.6818e-09
9.47838e-10
4.65746e-10
1.85829e-10
5.1887e-11
6.7626e-12
3.93981e-14
4.473e-14
7.67407e-12
5.88176e-11
2.10322e-10
5.2612e-10
1.06842e-09
1.89156e-09
3.03793e-09
4.53586e-09
6.39907e-09
8.62741e-09
1.12085e-08
1.41196e-08
1.733e-08
2.0803e-08
2.44978e-08
2.83715e-08
3.23799e-08
3.64787e-08
4.06249e-08
4.47766e-08
4.88938e-08
5.29389e-08
5.68764e-08
6.06735e-08
6.42998e-08
6.77276e-08
7.09317e-08
7.38893e-08
7.65803e-08
7.89869e-08
8.10937e-08
8.28876e-08
8.43578e-08
8.54958e-08
8.62952e-08
8.67518e-08
8.68634e-08
8.66303e-08
8.60538e-08
8.51381e-08
8.38892e-08
8.23152e-08
8.0426e-08
7.82336e-08
7.57522e-08
7.29978e-08
6.99887e-08
6.67454e-08
6.32906e-08
5.96493e-08
5.58488e-08
5.1919e-08
4.78919e-08
4.38023e-08
3.9687e-08
3.55853e-08
3.1538e-08
2.75877e-08
2.37777e-08
2.01513e-08
1.67507e-08
1.36154e-08
1.07807e-08
8.27549e-09
6.1203e-09
4.32519e-09
2.8879e-09
1.79261e-09
1.00951e-09
4.95736e-10
1.97697e-10
5.51816e-11
7.19052e-12
4.18879e-14
4.76166e-14
8.16951e-12
6.26196e-11
2.23949e-10
5.60339e-10
1.13828e-09
2.01605e-09
3.23942e-09
4.83937e-09
6.8314e-09
9.21632e-09
1.19818e-08
1.51043e-08
1.85517e-08
2.22852e-08
2.62616e-08
3.04346e-08
3.47568e-08
3.91807e-08
4.36592e-08
4.81471e-08
5.26006e-08
5.69786e-08
6.12423e-08
6.53555e-08
6.92848e-08
7.29998e-08
7.64726e-08
7.96782e-08
8.25942e-08
8.52012e-08
8.74821e-08
8.94225e-08
9.10107e-08
9.22373e-08
9.30953e-08
9.35801e-08
9.36897e-08
9.34243e-08
9.27855e-08
9.17783e-08
9.04094e-08
8.86879e-08
8.66249e-08
8.42339e-08
8.15305e-08
7.85328e-08
7.52609e-08
7.17377e-08
6.7988e-08
6.40397e-08
5.99227e-08
5.56698e-08
5.13162e-08
4.68998e-08
4.24607e-08
3.80414e-08
3.36862e-08
2.9441e-08
2.53521e-08
2.14656e-08
1.78264e-08
1.44761e-08
1.14513e-08
8.78213e-09
6.48918e-09
4.58198e-09
3.05695e-09
1.89619e-09
1.06718e-09
5.23786e-10
2.088e-10
5.82639e-11
7.59087e-12
4.42171e-14
5.04221e-14
8.65095e-12
6.63127e-11
2.3718e-10
5.93536e-10
1.20598e-09
2.13657e-09
3.43426e-09
5.13248e-09
7.24838e-09
9.78351e-09
1.27255e-08
1.60501e-08
1.97235e-08
2.37051e-08
2.79487e-08
3.24055e-08
3.70248e-08
4.17555e-08
4.65474e-08
5.13513e-08
5.61205e-08
6.08102e-08
6.53785e-08
6.97861e-08
7.3997e-08
7.79778e-08
8.16985e-08
8.51318e-08
8.82536e-08
9.10427e-08
9.34807e-08
9.55521e-08
9.72441e-08
9.85469e-08
9.94528e-08
9.99574e-08
1.00058e-07
9.97561e-08
9.9053e-08
9.79545e-08
9.64681e-08
9.46039e-08
9.23743e-08
8.97941e-08
8.68805e-08
8.36533e-08
8.01346e-08
7.63491e-08
7.23242e-08
6.80899e-08
6.36788e-08
5.91262e-08
5.44703e-08
4.97517e-08
4.50136e-08
4.03015e-08
3.56627e-08
3.11459e-08
2.68004e-08
2.26748e-08
1.88162e-08
1.52681e-08
1.20687e-08
9.24868e-09
6.82899e-09
4.81861e-09
3.21278e-09
1.9917e-09
1.12037e-09
5.49661e-10
2.19042e-10
6.11073e-11
7.96017e-12
4.63657e-14
5.31416e-14
9.11757e-12
6.9891e-11
2.49992e-10
6.25657e-10
1.27143e-09
2.25295e-09
3.6222e-09
5.41484e-09
7.64949e-09
1.03284e-08
1.34388e-08
1.69558e-08
2.08441e-08
2.50606e-08
2.95571e-08
3.42815e-08
3.91801e-08
4.41987e-08
4.92836e-08
5.43824e-08
5.9445e-08
6.44236e-08
6.92731e-08
7.39515e-08
7.84202e-08
8.26434e-08
8.65888e-08
9.02275e-08
9.35334e-08
9.6484e-08
9.90598e-08
1.01244e-07
1.03024e-07
1.04389e-07
1.0533e-07
1.05845e-07
1.05929e-07
1.05585e-07
1.04815e-07
1.03624e-07
1.02023e-07
1.00021e-07
9.76326e-08
9.48735e-08
9.17625e-08
8.83209e-08
8.45728e-08
8.05447e-08
7.62659e-08
7.17687e-08
6.7088e-08
6.22615e-08
5.73297e-08
5.2336e-08
4.73261e-08
4.23482e-08
3.74522e-08
3.26894e-08
2.81115e-08
2.37695e-08
1.97124e-08
1.59854e-08
1.26279e-08
9.67138e-09
7.13695e-09
5.03313e-09
3.35408e-09
2.07833e-09
1.16862e-09
5.73132e-10
2.28332e-10
6.36862e-11
8.29509e-12
4.8314e-14
5.57724e-14
9.56891e-12
7.33507e-11
2.62372e-10
6.56675e-10
1.33457e-09
2.36512e-09
3.8031e-09
5.68627e-09
8.03454e-09
1.08506e-08
1.41215e-08
1.78212e-08
2.19128e-08
2.63512e-08
3.10855e-08
3.6061e-08
4.12208e-08
4.65075e-08
5.18643e-08
5.72357e-08
6.25683e-08
6.78115e-08
7.29173e-08
7.78413e-08
8.25422e-08
8.69824e-08
9.11275e-08
9.49468e-08
9.84131e-08
1.01503e-07
1.04195e-07
1.06473e-07
1.08322e-07
1.09732e-07
1.10696e-07
1.11208e-07
1.11267e-07
1.10875e-07
1.10034e-07
1.08751e-07
1.07037e-07
1.04902e-07
1.02363e-07
9.94355e-08
9.61406e-08
9.25009e-08
8.8542e-08
8.42922e-08
7.97827e-08
7.50475e-08
7.01236e-08
6.50508e-08
5.98717e-08
5.4632e-08
4.93795e-08
4.41648e-08
3.904e-08
3.40586e-08
2.92745e-08
2.47405e-08
2.05073e-08
1.66217e-08
1.31241e-08
1.00466e-08
7.41034e-09
5.22361e-09
3.47957e-09
2.15527e-09
1.21147e-09
5.93978e-10
2.36582e-10
6.59761e-11
8.59242e-12
5.00435e-14
5.83137e-14
1.00048e-11
7.6691e-11
2.74319e-10
6.86584e-10
1.3954e-09
2.47306e-09
3.97697e-09
5.94681e-09
8.40356e-09
1.13502e-08
1.47735e-08
1.86462e-08
2.29297e-08
2.75767e-08
3.25339e-08
3.77435e-08
4.3146e-08
4.86807e-08
5.42876e-08
5.99084e-08
6.54867e-08
7.0969e-08
7.6305e-08
8.14477e-08
8.63539e-08
9.09837e-08
9.53015e-08
9.9275e-08
1.02876e-07
1.0608e-07
1.08865e-07
1.11214e-07
1.13113e-07
1.14552e-07
1.15522e-07
1.16019e-07
1.16043e-07
1.15594e-07
1.14678e-07
1.13302e-07
1.11476e-07
1.09214e-07
1.06531e-07
1.03447e-07
9.99822e-08
9.61614e-08
9.20113e-08
8.7562e-08
8.28462e-08
7.78994e-08
7.27604e-08
6.74707e-08
6.20748e-08
5.66199e-08
5.11561e-08
4.57355e-08
4.04122e-08
3.52415e-08
3.02789e-08
2.55789e-08
2.11938e-08
1.71712e-08
1.35526e-08
1.03706e-08
7.64651e-09
5.38818e-09
3.58799e-09
2.22175e-09
1.2485e-09
6.11988e-10
2.43708e-10
6.79534e-11
8.84911e-12
5.15364e-14
6.07667e-14
1.04255e-11
7.99137e-11
2.85838e-10
7.15402e-10
1.45396e-09
2.57686e-09
4.14396e-09
6.19667e-09
8.7569e-09
1.18278e-08
1.53955e-08
1.94316e-08
2.38956e-08
2.87381e-08
3.3903e-08
3.933e-08
4.49562e-08
5.07183e-08
5.65531e-08
6.23995e-08
6.81982e-08
7.38933e-08
7.94321e-08
8.47654e-08
8.98481e-08
9.46389e-08
9.91007e-08
1.032e-07
1.06908e-07
1.10199e-07
1.13053e-07
1.1545e-07
1.17377e-07
1.18824e-07
1.19783e-07
1.20251e-07
1.20227e-07
1.19714e-07
1.18717e-07
1.17246e-07
1.1531e-07
1.12925e-07
1.10107e-07
1.06877e-07
1.03257e-07
9.92726e-08
9.4952e-08
9.03264e-08
8.54298e-08
8.02992e-08
7.49747e-08
6.9499e-08
6.39183e-08
5.8281e-08
5.26387e-08
4.70449e-08
4.15552e-08
3.62262e-08
3.11146e-08
2.62764e-08
2.17647e-08
1.76282e-08
1.3909e-08
1.06401e-08
7.84294e-09
5.52505e-09
3.67818e-09
2.27704e-09
1.27929e-09
6.26959e-10
2.4963e-10
6.9596e-11
9.06226e-12
5.27758e-14
6.31343e-14
1.08316e-11
8.30227e-11
2.96946e-10
7.4317e-10
1.51034e-09
2.67668e-09
4.30434e-09
6.43627e-09
9.09516e-09
1.22841e-08
1.59886e-08
2.01787e-08
2.48121e-08
2.9837e-08
3.51947e-08
4.0822e-08
4.66532e-08
5.26217e-08
5.86618e-08
6.47093e-08
7.07026e-08
7.65831e-08
8.22961e-08
8.77906e-08
9.30199e-08
9.79414e-08
1.02517e-07
1.06712e-07
1.10498e-07
1.13849e-07
1.16743e-07
1.19162e-07
1.21094e-07
1.22528e-07
1.23458e-07
1.23881e-07
1.23797e-07
1.2321e-07
1.22126e-07
1.20556e-07
1.18511e-07
1.16007e-07
1.13062e-07
1.09698e-07
1.05937e-07
1.01807e-07
9.73373e-08
9.25594e-08
8.75087e-08
8.22233e-08
7.6744e-08
7.1115e-08
6.53829e-08
5.95976e-08
5.38113e-08
4.80787e-08
4.24562e-08
3.70014e-08
3.1772e-08
2.68246e-08
2.22132e-08
1.79871e-08
1.41889e-08
1.08517e-08
7.99719e-09
5.63254e-09
3.74899e-09
2.32044e-09
1.30345e-09
6.38704e-10
2.54273e-10
7.08831e-11
9.22919e-12
5.37462e-14
6.54216e-14
1.12237e-11
8.60248e-11
3.07666e-10
7.69951e-10
1.56466e-09
2.77275e-09
4.4585e-09
6.66622e-09
9.41918e-09
1.27203e-08
1.65542e-08
2.08892e-08
2.56812e-08
3.08758e-08
3.64115e-08
4.22223e-08
4.82394e-08
5.43934e-08
6.06157e-08
6.68395e-08
7.30006e-08
7.90384e-08
8.48961e-08
9.05213e-08
9.58658e-08
1.00886e-07
1.05543e-07
1.09803e-07
1.13636e-07
1.17016e-07
1.19921e-07
1.22337e-07
1.24248e-07
1.25647e-07
1.26527e-07
1.26887e-07
1.26729e-07
1.26057e-07
1.2488e-07
1.23207e-07
1.21053e-07
1.18434e-07
1.1537e-07
1.11883e-07
1.07997e-07
1.0374e-07
9.91424e-08
9.42371e-08
8.90599e-08
8.36496e-08
7.80478e-08
7.2299e-08
6.64506e-08
6.0553e-08
5.46588e-08
4.88233e-08
4.31032e-08
3.75568e-08
3.2242e-08
2.7216e-08
2.25331e-08
1.82429e-08
1.43882e-08
1.10024e-08
8.10701e-09
5.70906e-09
3.79939e-09
2.35133e-09
1.32064e-09
6.47048e-10
2.57569e-10
7.17957e-11
9.34744e-12
5.44332e-14
6.7635e-14
1.16032e-11
8.89286e-11
3.1803e-10
7.95827e-10
1.6171e-09
2.8654e-09
4.60696e-09
6.88728e-09
9.73007e-09
1.31379e-08
1.70941e-08
2.15655e-08
2.65056e-08
3.18574e-08
3.75566e-08
4.35341e-08
4.97183e-08
5.60367e-08
6.24179e-08
6.87925e-08
7.50942e-08
8.12602e-08
8.72322e-08
9.29563e-08
9.83834e-08
1.03469e-07
1.08175e-07
1.12466e-07
1.16313e-07
1.1969e-07
1.22577e-07
1.24959e-07
1.26824e-07
1.28162e-07
1.28971e-07
1.29251e-07
1.29004e-07
1.28235e-07
1.26956e-07
1.25177e-07
1.22913e-07
1.20183e-07
1.17008e-07
1.13409e-07
1.09413e-07
1.05048e-07
1.00345e-07
9.53377e-08
9.00625e-08
8.45583e-08
7.88671e-08
7.30335e-08
6.7105e-08
6.11321e-08
5.51674e-08
4.92662e-08
4.34852e-08
3.78826e-08
3.25163e-08
2.74435e-08
2.27184e-08
1.83908e-08
1.45033e-08
1.10894e-08
8.17036e-09
5.75317e-09
3.82843e-09
2.3691e-09
1.33051e-09
6.51837e-10
2.59456e-10
7.23169e-11
9.41482e-12
5.48241e-14
6.97826e-14
1.19713e-11
9.17451e-11
3.28079e-10
8.209e-10
1.66788e-09
2.95501e-09
4.75033e-09
7.10041e-09
1.00291e-08
1.35385e-08
1.76105e-08
2.22102e-08
2.72883e-08
3.27854e-08
3.86339e-08
4.47617e-08
5.1094e-08
5.75555e-08
6.4072e-08
7.05717e-08
7.69859e-08
8.32503e-08
8.93051e-08
9.50953e-08
1.00571e-07
1.05688e-07
1.10407e-07
1.14695e-07
1.18521e-07
1.21862e-07
1.247e-07
1.27018e-07
1.28807e-07
1.3006e-07
1.30775e-07
1.30955e-07
1.30602e-07
1.29725e-07
1.28334e-07
1.26444e-07
1.24071e-07
1.21233e-07
1.17953e-07
1.14255e-07
1.10164e-07
1.0571e-07
1.00925e-07
9.58422e-08
9.04981e-08
8.49319e-08
7.91854e-08
7.33029e-08
6.73317e-08
6.13216e-08
5.53251e-08
4.93966e-08
4.35926e-08
3.79704e-08
3.25876e-08
2.75009e-08
2.27642e-08
1.84267e-08
1.4531e-08
1.11102e-08
8.18541e-09
5.76362e-09
3.83528e-09
2.37327e-09
1.33281e-09
6.52936e-10
2.59881e-10
7.24324e-11
9.42949e-12
5.49084e-14
7.18737e-14
1.23297e-11
9.44867e-11
3.37858e-10
8.45288e-10
1.71723e-09
3.04201e-09
4.88934e-09
7.30666e-09
1.03179e-08
1.39242e-08
1.81061e-08
2.28263e-08
2.80331e-08
3.36637e-08
3.96477e-08
4.59094e-08
5.2371e-08
5.89543e-08
6.55822e-08
7.21806e-08
7.86789e-08
8.5011e-08
9.1116e-08
9.69383e-08
1.02428e-07
1.0754e-07
1.12237e-07
1.16484e-07
1.20254e-07
1.23525e-07
1.26279e-07
1.28502e-07
1.30186e-07
1.31326e-07
1.31925e-07
1.31983e-07
1.31508e-07
1.30509e-07
1.28999e-07
1.26992e-07
1.24508e-07
1.21566e-07
1.18189e-07
1.14402e-07
1.10233e-07
1.0571e-07
1.00866e-07
9.57345e-08
9.03515e-08
8.4756e-08
7.8989e-08
7.30945e-08
6.71188e-08
6.11109e-08
5.51221e-08
4.92059e-08
4.34176e-08
3.78135e-08
3.24503e-08
2.73835e-08
2.26664e-08
1.83475e-08
1.44687e-08
1.10628e-08
8.1508e-09
5.73946e-09
3.81932e-09
2.36346e-09
1.32732e-09
6.50244e-10
2.58807e-10
7.21313e-11
9.39005e-12
5.46777e-14
7.39188e-14
1.26802e-11
9.71676e-11
3.47418e-10
8.69122e-10
1.76543e-09
3.12689e-09
5.02477e-09
7.50721e-09
1.05979e-08
1.42971e-08
1.85834e-08
2.34171e-08
2.87435e-08
3.44966e-08
4.06024e-08
4.6982e-08
5.35541e-08
6.02376e-08
6.69528e-08
7.3623e-08
8.01761e-08
8.65444e-08
9.26663e-08
9.84856e-08
1.03952e-07
1.09023e-07
1.13659e-07
1.17829e-07
1.21506e-07
1.24671e-07
1.27306e-07
1.29402e-07
1.3095e-07
1.31951e-07
1.32407e-07
1.32324e-07
1.31708e-07
1.30573e-07
1.28933e-07
1.26805e-07
1.24209e-07
1.21166e-07
1.17701e-07
1.13838e-07
1.09607e-07
1.05036e-07
1.00157e-07
9.50033e-08
8.96117e-08
8.40199e-08
7.8268e-08
7.23989e-08
6.64577e-08
6.04917e-08
5.45508e-08
4.8687e-08
4.29539e-08
3.74063e-08
3.20993e-08
2.70871e-08
2.24215e-08
1.81502e-08
1.43142e-08
1.09456e-08
8.06525e-09
5.67978e-09
3.77997e-09
2.3393e-09
1.31384e-09
6.43672e-10
2.56198e-10
7.14044e-11
9.29532e-12
5.41255e-14
7.5929e-14
1.30248e-11
9.98028e-11
3.56815e-10
8.92542e-10
1.81276e-09
3.21018e-09
5.15746e-09
7.7033e-09
1.08711e-08
1.46595e-08
1.90453e-08
2.39859e-08
2.94234e-08
3.52882e-08
4.15026e-08
4.79841e-08
5.46479e-08
6.14099e-08
6.81877e-08
7.49025e-08
8.14802e-08
8.78524e-08
9.39566e-08
9.97368e-08
1.05144e-07
1.10134e-07
1.14671e-07
1.18725e-07
1.22271e-07
1.25292e-07
1.27774e-07
1.29708e-07
1.31088e-07
1.31923e-07
1.32212e-07
1.31965e-07
1.31192e-07
1.29908e-07
1.28129e-07
1.25875e-07
1.23167e-07
1.20027e-07
1.16481e-07
1.12555e-07
1.08278e-07
1.03678e-07
9.87883e-08
9.36412e-08
8.82719e-08
8.27175e-08
7.70167e-08
7.12109e-08
6.53433e-08
5.94594e-08
5.36071e-08
4.78363e-08
4.21983e-08
3.67459e-08
3.15321e-08
2.66093e-08
2.20277e-08
1.78333e-08
1.40662e-08
1.07577e-08
7.9281e-09
5.58415e-09
3.71694e-09
2.30064e-09
1.29229e-09
6.33178e-10
2.52038e-10
7.02475e-11
9.14482e-12
5.32489e-14
7.79158e-14
1.33653e-11
1.02408e-10
3.66104e-10
9.15693e-10
1.85953e-09
3.29241e-09
5.28828e-09
7.89621e-09
1.1139e-08
1.50137e-08
1.94947e-08
2.45362e-08
3.00767e-08
3.60427e-08
4.23527e-08
4.89201e-08
5.56566e-08
6.24751e-08
6.92904e-08
7.60217e-08
8.25934e-08
8.89362e-08
9.49874e-08
1.00691e-07
1.06e-07
1.1087e-07
1.15268e-07
1.19167e-07
1.22543e-07
1.25383e-07
1.27675e-07
1.29411e-07
1.30596e-07
1.31235e-07
1.31333e-07
1.30901e-07
1.29953e-07
1.28507e-07
1.26581e-07
1.24196e-07
1.21376e-07
1.18144e-07
1.14526e-07
1.10549e-07
1.06243e-07
1.01636e-07
9.67602e-08
9.16475e-08
8.63317e-08
8.08485e-08
7.5235e-08
6.95304e-08
6.37758e-08
5.80144e-08
5.22913e-08
4.66539e-08
4.11509e-08
3.58324e-08
3.07489e-08
2.59503e-08
2.14849e-08
1.73969e-08
1.37247e-08
1.0499e-08
7.73933e-09
5.45254e-09
3.63022e-09
2.24747e-09
1.26267e-09
6.18765e-10
2.4633e-10
6.86618e-11
8.9387e-12
5.2049e-14
7.98907e-14
1.37038e-11
1.04998e-10
3.75344e-10
9.38722e-10
1.90605e-09
3.37411e-09
5.41808e-09
8.08721e-09
1.14034e-08
1.53619e-08
1.99342e-08
2.5071e-08
3.07068e-08
3.67639e-08
4.31563e-08
4.97937e-08
5.65839e-08
6.34363e-08
7.02634e-08
7.69824e-08
8.35165e-08
8.97957e-08
9.57579e-08
1.01347e-07
1.06517e-07
1.11228e-07
1.15448e-07
1.1915e-07
1.22318e-07
1.24938e-07
1.27004e-07
1.28509e-07
1.29469e-07
1.29884e-07
1.29766e-07
1.29129e-07
1.2799e-07
1.2637e-07
1.24288e-07
1.21769e-07
1.18837e-07
1.15518e-07
1.11837e-07
1.07825e-07
1.03507e-07
9.89153e-08
9.40786e-08
8.90287e-08
8.37978e-08
7.84197e-08
7.29294e-08
6.73638e-08
6.17612e-08
5.61619e-08
5.06082e-08
4.51441e-08
3.98154e-08
3.46689e-08
2.97522e-08
2.51123e-08
2.07949e-08
1.68422e-08
1.32908e-08
1.01702e-08
7.49948e-09
5.28535e-09
3.52007e-09
2.17995e-09
1.22508e-09
6.00484e-10
2.39095e-10
6.66532e-11
8.67775e-12
5.05307e-14
8.18649e-14
1.40423e-11
1.07589e-10
3.84588e-10
9.61769e-10
1.95259e-09
3.45581e-09
5.54769e-09
8.27748e-09
1.1666e-08
1.57062e-08
2.03663e-08
2.55931e-08
3.13168e-08
3.74548e-08
4.39167e-08
5.06077e-08
5.7432e-08
6.42953e-08
7.1108e-08
7.77852e-08
8.42492e-08
9.04301e-08
9.62655e-08
1.01702e-07
1.06694e-07
1.11204e-07
1.15204e-07
1.18671e-07
1.2159e-07
1.23954e-07
1.25754e-07
1.27001e-07
1.27703e-07
1.27868e-07
1.27511e-07
1.2665e-07
1.25306e-07
1.235e-07
1.21257e-07
1.18602e-07
1.1556e-07
1.12161e-07
1.08429e-07
1.04395e-07
1.00086e-07
9.55304e-08
9.07585e-08
8.57999e-08
8.06851e-08
7.54457e-08
7.01141e-08
6.47245e-08
5.9312e-08
5.39137e-08
4.85684e-08
4.33165e-08
3.82001e-08
3.32627e-08
2.85481e-08
2.41001e-08
1.99617e-08
1.61724e-08
1.2767e-08
9.7733e-09