/*--------------------------------*- C++ -*----------------------------------*\
  =========                 |
  \\      /  F ield         | OpenFOAM: The Open Source CFD Toolbox
   \\    /   O peration     | Website:  https://openfoam.org
    \\  /    A nd           | Version:  12
     \\/     M anipulation  |
\*---------------------------------------------------------------------------*/
FoamFile
{
    format      ascii;
    class       volScalarField;
    location    "7.5";
    object      epsilon;
}
// * * * * * * * * * * * * * * * * * * * * * * * * * * * * * * * * * * * * * //

dimensions      [0 2 -3 0 0 0 0];

internalField   nonuniform List<scalar> 
5625
(
9.99201e-13
2.498e-13
2.498e-13
2.498e-13
2.498e-13
2.498e-13
2.498e-13
2.498e-13
2.498e-13
2.76849e-13
3.19586e-13
3.62699e-13
4.05779e-13
4.48651e-13
4.91181e-13
5.33232e-13
5.74661e-13
6.15317e-13
6.55051e-13
6.93711e-13
7.31151e-13
7.67227e-13
8.018e-13
8.3474e-13
8.65921e-13
8.95225e-13
9.22541e-13
9.47768e-13
9.70812e-13
9.91588e-13
1.01002e-12
1.02604e-12
1.0396e-12
1.05063e-12
1.05912e-12
1.06502e-12
1.06832e-12
1.06902e-12
1.0671e-12
1.06259e-12
1.0555e-12
1.04587e-12
1.03372e-12
1.01912e-12
1.00211e-12
9.82774e-13
9.61172e-13
9.37393e-13
9.11528e-13
8.83675e-13
8.5394e-13
8.22437e-13
7.89284e-13
7.54607e-13
7.18536e-13
6.81208e-13
6.42761e-13
6.03338e-13
5.63084e-13
5.2214e-13
4.80648e-13
4.3874e-13
3.96542e-13
3.54178e-13
3.11829e-13
2.69969e-13
2.498e-13
2.498e-13
2.498e-13
2.498e-13
2.498e-13
2.498e-13
2.498e-13
2.498e-13
9.99201e-13
9.99201e-13
2.10818e-13
9.57851e-14
8.06269e-14
8.58714e-14
9.48927e-14
1.04397e-13
1.14069e-13
1.24882e-13
1.39438e-13
1.57135e-13
1.76195e-13
1.95826e-13
2.15651e-13
2.35464e-13
2.55133e-13
2.74556e-13
2.93646e-13
3.12321e-13
3.30505e-13
3.48125e-13
3.6511e-13
3.81395e-13
3.96914e-13
4.11609e-13
4.25423e-13
4.38302e-13
4.50199e-13
4.61068e-13
4.70869e-13
4.79566e-13
4.87126e-13
4.93524e-13
4.98735e-13
5.02743e-13
5.05532e-13
5.07095e-13
5.07427e-13
5.06529e-13
5.04405e-13
5.01065e-13
4.96523e-13
4.90797e-13
4.83912e-13
4.75893e-13
4.66773e-13
4.56586e-13
4.45373e-13
4.33177e-13
4.20044e-13
4.06026e-13
3.91176e-13
3.75552e-13
3.59213e-13
3.42224e-13
3.24648e-13
3.06556e-13
2.88018e-13
2.69108e-13
2.49904e-13
2.30491e-13
2.10969e-13
1.91472e-13
1.72215e-13
1.53608e-13
1.36528e-13
1.22952e-13
1.12557e-13
1.03065e-13
9.36444e-14
8.46929e-14
7.96169e-14
9.55301e-14
2.10782e-13
9.99201e-13
9.99201e-13
2.11535e-13
1.07126e-13
8.22894e-14
7.68658e-14
7.86454e-14
8.36959e-14
9.06074e-14
9.89973e-14
1.08897e-13
1.20101e-13
1.32221e-13
1.44922e-13
1.57957e-13
1.71147e-13
1.84361e-13
1.97496e-13
2.10468e-13
2.23203e-13
2.35638e-13
2.47712e-13
2.59371e-13
2.70564e-13
2.81243e-13
2.91365e-13
3.00886e-13
3.0977e-13
3.17981e-13
3.25487e-13
3.32258e-13
3.38269e-13
3.43497e-13
3.47922e-13
3.51528e-13
3.54302e-13
3.56235e-13
3.57319e-13
3.57552e-13
3.56934e-13
3.55467e-13
3.5316e-13
3.50021e-13
3.46063e-13
3.41304e-13
3.35761e-13
3.29458e-13
3.22419e-13
3.14673e-13
3.06251e-13
2.97187e-13
2.87516e-13
2.77279e-13
2.66516e-13
2.55274e-13
2.43599e-13
2.31541e-13
2.19155e-13
2.06498e-13
1.93635e-13
1.80636e-13
1.67584e-13
1.54582e-13
1.41762e-13
1.29304e-13
1.1746e-13
1.06564e-13
9.69863e-14
8.88352e-14
8.208e-14
7.71232e-14
7.53933e-14
8.08431e-14
1.0576e-13
2.11264e-13
9.99201e-13
9.99201e-13
2.32617e-13
1.34843e-13
1.03646e-13
9.14607e-14
8.75531e-14
8.80919e-14
9.13702e-14
9.65448e-14
1.03155e-13
1.10877e-13
1.19435e-13
1.28599e-13
1.38179e-13
1.4802e-13
1.57999e-13
1.68014e-13
1.77978e-13
1.87819e-13
1.97473e-13
2.06882e-13
2.15996e-13
2.24768e-13
2.33155e-13
2.41117e-13
2.48618e-13
2.55625e-13
2.62109e-13
2.6804e-13
2.73395e-13
2.78152e-13
2.82291e-13
2.85796e-13
2.88653e-13
2.90851e-13
2.92382e-13
2.9324e-13
2.93423e-13
2.92931e-13
2.91766e-13
2.89932e-13
2.8744e-13
2.84299e-13
2.80522e-13
2.76126e-13
2.71129e-13
2.65552e-13
2.59419e-13
2.52756e-13
2.45592e-13
2.37958e-13
2.29888e-13
2.21419e-13
2.1259e-13
2.03444e-13
1.94028e-13
1.84393e-13
1.74594e-13
1.64695e-13
1.54768e-13
1.44897e-13
1.35183e-13
1.25747e-13
1.16743e-13
1.08354e-13
1.00805e-13
9.43543e-14
8.93055e-14
8.61026e-14
8.55731e-14
8.93942e-14
1.0133e-13
1.31941e-13
2.28352e-13
9.99201e-13
9.99201e-13
2.91293e-13
1.75277e-13
1.33526e-13
1.14365e-13
1.053e-13
1.01782e-13
1.01717e-13
1.03991e-13
1.07944e-13
1.13142e-13
1.19273e-13
1.261e-13
1.33435e-13
1.41125e-13
1.49045e-13
1.57092e-13
1.65176e-13
1.73223e-13
1.81168e-13
1.88951e-13
1.96522e-13
2.03834e-13
2.10846e-13
2.17518e-13
2.23817e-13
2.29712e-13
2.35173e-13
2.40175e-13
2.44695e-13
2.48712e-13
2.5221e-13
2.55172e-13
2.57587e-13
2.59444e-13
2.60735e-13
2.61455e-13
2.61601e-13
2.61175e-13
2.60177e-13
2.58612e-13
2.56488e-13
2.53814e-13
2.50602e-13
2.46867e-13
2.42626e-13
2.37897e-13
2.32703e-13
2.27068e-13
2.21019e-13
2.14584e-13
2.07797e-13
2.00692e-13
1.93308e-13
1.85687e-13
1.77875e-13
1.69923e-13
1.61889e-13
1.53838e-13
1.45843e-13
1.37992e-13
1.30387e-13
1.2315e-13
1.16429e-13
1.10407e-13
1.05316e-13
1.01455e-13
9.92458e-14
9.93316e-14
1.02803e-13
1.11714e-13
1.30543e-13
1.71633e-13
2.86418e-13
9.99201e-13
9.99201e-13
3.43178e-13
2.1477e-13
1.64638e-13
1.39753e-13
1.26435e-13
1.19546e-13
1.16679e-13
1.16532e-13
1.1832e-13
1.21532e-13
1.25812e-13
1.30897e-13
1.36584e-13
1.42713e-13
1.49154e-13
1.55797e-13
1.62552e-13
1.69339e-13
1.76091e-13
1.82747e-13
1.89254e-13
1.95566e-13
2.0164e-13
2.07436e-13
2.12922e-13
2.18065e-13
2.22838e-13
2.27215e-13
2.31175e-13
2.34696e-13
2.37763e-13
2.4036e-13
2.42475e-13
2.44098e-13
2.45223e-13
2.45843e-13
2.45957e-13
2.45564e-13
2.44666e-13
2.43267e-13
2.41375e-13
2.38999e-13
2.36149e-13
2.32841e-13
2.2909e-13
2.24914e-13
2.20335e-13
2.15377e-13
2.10066e-13
2.0443e-13
1.98502e-13
1.92317e-13
1.85913e-13
1.79334e-13
1.72626e-13
1.65843e-13
1.59044e-13
1.52296e-13
1.45677e-13
1.39277e-13
1.33203e-13
1.27582e-13
1.22572e-13
1.18369e-13
1.1523e-13
1.13503e-13
1.13687e-13
1.1655e-13
1.23371e-13
1.36517e-13
1.61055e-13
2.10545e-13
3.3793e-13
9.99201e-13
9.99201e-13
3.87649e-13
2.51212e-13
1.94784e-13
1.65446e-13
1.48772e-13
1.39195e-13
1.34072e-13
1.31964e-13
1.32001e-13
1.33619e-13
1.36427e-13
1.40141e-13
1.44544e-13
1.49467e-13
1.54772e-13
1.60345e-13
1.6609e-13
1.71927e-13
1.77784e-13
1.83599e-13
1.89317e-13
1.94889e-13
2.00272e-13
2.05427e-13
2.10317e-13
2.14913e-13
2.19184e-13
2.23107e-13
2.26658e-13
2.29818e-13
2.32569e-13
2.34897e-13
2.3679e-13
2.38239e-13
2.39235e-13
2.39774e-13
2.39853e-13
2.39473e-13
2.38634e-13
2.37342e-13
2.35602e-13
2.33425e-13
2.30822e-13
2.27806e-13
2.24393e-13
2.20602e-13
2.16454e-13
2.11972e-13
2.07184e-13
2.02119e-13
1.96808e-13
1.91289e-13
1.856e-13
1.79785e-13
1.73894e-13
1.67982e-13
1.62109e-13
1.56347e-13
1.50776e-13
1.45491e-13
1.40602e-13
1.36246e-13
1.32586e-13
1.29837e-13
1.28276e-13
1.28286e-13
1.30423e-13
1.35539e-13
1.45053e-13
1.61571e-13
1.90598e-13
2.46461e-13
3.82127e-13
9.99201e-13
9.99201e-13
4.25676e-13
2.84497e-13
2.23574e-13
1.90888e-13
1.71611e-13
1.59899e-13
1.52952e-13
1.49239e-13
1.47837e-13
1.48145e-13
1.49748e-13
1.52346e-13
1.5571e-13
1.59662e-13
1.64058e-13
1.6878e-13
1.73728e-13
1.78816e-13
1.83972e-13
1.89131e-13
1.94235e-13
1.99234e-13
2.04084e-13
2.08744e-13
2.13177e-13
2.17352e-13
2.21238e-13
2.24812e-13
2.28049e-13
2.3093e-13
2.33436e-13
2.35555e-13
2.37273e-13
2.3858e-13
2.3947e-13
2.39937e-13
2.39978e-13
2.39594e-13
2.38787e-13
2.37561e-13
2.35922e-13
2.3388e-13
2.31446e-13
2.28635e-13
2.25462e-13
2.21947e-13
2.18111e-13
2.13978e-13
2.09575e-13
2.04933e-13
2.00084e-13
1.95067e-13
1.89921e-13
1.84692e-13
1.79431e-13
1.74195e-13
1.69048e-13
1.64063e-13
1.59324e-13
1.54929e-13
1.50995e-13
1.47662e-13
1.45105e-13
1.43548e-13
1.43285e-13
1.44724e-13
1.48458e-13
1.55395e-13
1.67052e-13
1.86201e-13
2.18644e-13
2.79155e-13
4.19912e-13
9.99201e-13
9.99201e-13
4.59274e-13
3.16139e-13
2.52084e-13
2.16723e-13
1.95224e-13
1.81633e-13
1.73066e-13
1.67931e-13
1.65263e-13
1.64431e-13
1.64997e-13
1.66646e-13
1.69135e-13
1.72278e-13
1.75924e-13
1.79948e-13
1.84245e-13
1.88728e-13
1.93318e-13
1.9795e-13
2.02563e-13
2.07106e-13
2.11531e-13
2.15798e-13
2.19868e-13
2.23709e-13
2.2729e-13
2.30585e-13
2.33571e-13
2.36228e-13
2.38537e-13
2.40484e-13
2.42056e-13
2.43244e-13
2.44039e-13
2.44438e-13
2.44437e-13
2.44037e-13
2.43239e-13
2.42048e-13
2.40471e-13
2.38518e-13
2.362e-13
2.33533e-13
2.30531e-13
2.27215e-13
2.23608e-13
2.19733e-13
2.1562e-13
2.11298e-13
2.06802e-13
2.02171e-13
1.97447e-13
1.92677e-13
1.87914e-13
1.83217e-13
1.78652e-13
1.74296e-13
1.70237e-13
1.66576e-13
1.63436e-13
1.60963e-13
1.59341e-13
1.58804e-13
1.59662e-13
1.62343e-13
1.67466e-13
1.7598e-13
1.89459e-13
2.10765e-13
2.45833e-13
3.09531e-13
4.52667e-13
9.99201e-13
1.07187e-12
5.08288e-13
3.5441e-13
2.84286e-13
2.44943e-13
2.20578e-13
2.04795e-13
1.94473e-13
1.87884e-13
1.83978e-13
1.82071e-13
1.81688e-13
1.82487e-13
1.84209e-13
1.86654e-13
1.89659e-13
1.93095e-13
1.96849e-13
2.00829e-13
2.04954e-13
2.09154e-13
2.13367e-13
2.17538e-13
2.21619e-13
2.25566e-13
2.29342e-13
2.32912e-13
2.36244e-13
2.39312e-13
2.42092e-13
2.44563e-13
2.46707e-13
2.48508e-13
2.49954e-13
2.51036e-13
2.51744e-13
2.52075e-13
2.52027e-13
2.51598e-13
2.50792e-13
2.49613e-13
2.48069e-13
2.46169e-13
2.43926e-13
2.41354e-13
2.38471e-13
2.35297e-13
2.31855e-13
2.28171e-13
2.24273e-13
2.20193e-13
2.15968e-13
2.11637e-13
2.07243e-13
2.02837e-13
1.98473e-13
1.94213e-13
1.90125e-13
1.8629e-13
1.828e-13
1.79762e-13
1.77305e-13
1.75584e-13
1.74795e-13
1.75186e-13
1.77089e-13
1.80962e-13
1.87466e-13
1.97614e-13
2.13072e-13
2.36841e-13
2.75074e-13
3.42957e-13
4.91465e-13
1.03488e-12
1.22767e-12
5.79364e-13
4.02049e-13
3.21317e-13
2.76002e-13
2.47811e-13
2.29351e-13
2.17032e-13
2.08881e-13
2.03707e-13
2.0074e-13
1.99452e-13
1.99462e-13
2.00488e-13
2.02312e-13
2.04759e-13
2.07687e-13
2.10979e-13
2.14535e-13
2.1827e-13
2.22111e-13
2.25992e-13
2.29856e-13
2.33654e-13
2.37339e-13
2.40872e-13
2.44217e-13
2.47344e-13
2.50222e-13
2.52829e-13
2.55142e-13
2.57144e-13
2.58817e-13
2.60151e-13
2.61134e-13
2.61759e-13
2.62021e-13
2.61919e-13
2.61451e-13
2.60621e-13
2.59433e-13
2.57897e-13
2.56021e-13
2.53818e-13
2.51305e-13
2.48498e-13
2.4542e-13
2.42093e-13
2.38544e-13
2.34804e-13
2.30905e-13
2.26886e-13
2.22786e-13
2.18652e-13
2.14535e-13
2.10493e-13
2.06589e-13
2.02897e-13
1.995e-13
1.96497e-13
1.94e-13
1.92148e-13
1.91107e-13
1.91088e-13
1.92362e-13
1.95295e-13
2.00392e-13
2.08393e-13
2.20441e-13
2.38431e-13
2.65813e-13
3.097e-13
3.87718e-13
5.58867e-13
1.18441e-12
1.37914e-12
6.50554e-13
4.50803e-13
3.59558e-13
3.08135e-13
2.75962e-13
2.54706e-13
2.40319e-13
2.30574e-13
2.2413e-13
2.20124e-13
2.17967e-13
2.17237e-13
2.17624e-13
2.18886e-13
2.20836e-13
2.2332e-13
2.26212e-13
2.29406e-13
2.32812e-13
2.3635e-13
2.39953e-13
2.43562e-13
2.47123e-13
2.5059e-13
2.5392e-13
2.57078e-13
2.60031e-13
2.62748e-13
2.65206e-13
2.67382e-13
2.69258e-13
2.70817e-13
2.72046e-13
2.72935e-13
2.73478e-13
2.73668e-13
2.73504e-13
2.72986e-13
2.72118e-13
2.70904e-13
2.69352e-13
2.67475e-13
2.65284e-13
2.62797e-13
2.60032e-13
2.5701e-13
2.53756e-13
2.50299e-13
2.46669e-13
2.42901e-13
2.39033e-13
2.35109e-13
2.31176e-13
2.27288e-13
2.23504e-13
2.19893e-13
2.16531e-13
2.13507e-13
2.10924e-13
2.08905e-13
2.07595e-13
2.07177e-13
2.0788e-13
2.10002e-13
2.13945e-13
2.20272e-13
2.29812e-13
2.43847e-13
2.64515e-13
2.95704e-13
3.45422e-13
4.33453e-13
6.25886e-13
1.32721e-12
1.52841e-12
7.20884e-13
4.99267e-13
3.97812e-13
3.40439e-13
3.04364e-13
2.80358e-13
2.63934e-13
2.52624e-13
2.44944e-13
2.39937e-13
2.36953e-13
2.3553e-13
2.35326e-13
2.36079e-13
2.37584e-13
2.39676e-13
2.42219e-13
2.451e-13
2.48223e-13
2.51505e-13
2.54874e-13
2.58267e-13
2.6163e-13
2.64912e-13
2.68072e-13
2.7107e-13
2.73874e-13
2.76452e-13
2.78779e-13
2.80833e-13
2.82594e-13
2.84046e-13
2.85176e-13
2.85974e-13
2.86432e-13
2.86545e-13
2.86312e-13
2.85733e-13
2.84812e-13
2.83554e-13
2.81969e-13
2.80068e-13
2.77864e-13
2.75374e-13
2.72619e-13
2.69621e-13
2.66405e-13
2.63e-13
2.5944e-13
2.55759e-13
2.51998e-13
2.48202e-13
2.44421e-13
2.40711e-13
2.37134e-13
2.33762e-13
2.30675e-13
2.27968e-13
2.2575e-13
2.24152e-13
2.23332e-13
2.23486e-13
2.24861e-13
2.27785e-13
2.32698e-13
2.4022e-13
2.51264e-13
2.67248e-13
2.90534e-13
3.25417e-13
3.80737e-13
4.78328e-13
6.91129e-13
1.46576e-12
1.67564e-12
7.9027e-13
5.47156e-13
4.35709e-13
3.72533e-13
3.32662e-13
3.05986e-13
2.87589e-13
2.74769e-13
2.65901e-13
2.59941e-13
2.56178e-13
2.54107e-13
2.53358e-13
2.53646e-13
2.54751e-13
2.56494e-13
2.58731e-13
2.61341e-13
2.64221e-13
2.67283e-13
2.70452e-13
2.73663e-13
2.76856e-13
2.79982e-13
2.82995e-13
2.85855e-13
2.88528e-13
2.90983e-13
2.93193e-13
2.95134e-13
2.96788e-13
2.98138e-13
2.99171e-13
2.99875e-13
3.00245e-13
3.00275e-13
2.99965e-13
2.99313e-13
2.98326e-13
2.97008e-13
2.9537e-13
2.93423e-13
2.91183e-13
2.88666e-13
2.85893e-13
2.82889e-13
2.79679e-13
2.76294e-13
2.72767e-13
2.69136e-13
2.65444e-13
2.61736e-13
2.58064e-13
2.54488e-13
2.51072e-13
2.47892e-13
2.45033e-13
2.42595e-13
2.40693e-13
2.39467e-13
2.39085e-13
2.39759e-13
2.41757e-13
2.4543e-13
2.51258e-13
2.59915e-13
2.72394e-13
2.90243e-13
3.16034e-13
3.54453e-13
4.15141e-13
5.21918e-13
7.54391e-13
1.60008e-12
1.82049e-12
8.58536e-13
5.943e-13
4.73059e-13
4.04216e-13
3.60652e-13
3.31387e-13
3.11085e-13
2.96814e-13
2.86812e-13
2.79947e-13
2.7545e-13
2.72776e-13
2.71523e-13
2.71388e-13
2.72131e-13
2.73563e-13
2.75529e-13
2.77901e-13
2.8057e-13
2.83443e-13
2.8644e-13
2.89493e-13
2.92541e-13
2.95531e-13
2.98416e-13
3.01154e-13
3.03711e-13
3.06053e-13
3.08154e-13
3.0999e-13
3.1154e-13
3.12789e-13
3.13723e-13
3.14332e-13
3.14608e-13
3.14547e-13
3.14148e-13
3.13412e-13
3.12344e-13
3.10951e-13
3.09241e-13
3.0723e-13
3.04931e-13
3.02363e-13
2.99548e-13
2.9651e-13
2.93278e-13
2.89882e-13
2.86358e-13
2.82744e-13
2.79085e-13
2.75428e-13
2.71829e-13
2.68348e-13
2.65054e-13
2.62025e-13
2.59351e-13
2.57137e-13
2.55506e-13
2.54605e-13
2.54615e-13
2.5576e-13
2.58327e-13
2.62694e-13
2.69376e-13
2.79098e-13
2.92933e-13
3.12548e-13
3.40722e-13
3.82512e-13
4.48336e-13
5.63931e-13
8.15334e-13
1.72948e-12
1.96251e-12
9.25472e-13
6.40541e-13
5.0972e-13
4.35346e-13
3.88189e-13
3.56415e-13
3.34275e-13
3.18612e-13
3.07527e-13
2.99804e-13
2.94617e-13
2.91379e-13
2.89661e-13
2.89137e-13
2.89553e-13
2.90706e-13
2.92432e-13
2.94594e-13
2.97077e-13
2.99785e-13
3.02633e-13
3.05549e-13
3.0847e-13
3.11339e-13
3.14109e-13
3.16737e-13
3.19186e-13
3.21423e-13
3.23419e-13
3.25152e-13
3.26599e-13
3.27746e-13
3.28577e-13
3.29084e-13
3.29258e-13
3.29097e-13
3.28598e-13
3.27765e-13
3.26601e-13
3.25115e-13
3.23317e-13
3.2122e-13
3.18842e-13
3.16201e-13
3.1332e-13
3.10224e-13
3.06943e-13
3.03509e-13
2.99958e-13
2.96332e-13
2.92675e-13
2.89038e-13
2.85478e-13
2.82057e-13
2.78848e-13
2.75933e-13
2.73406e-13
2.71377e-13
2.69975e-13
2.69357e-13
2.69712e-13
2.71278e-13
2.74362e-13
2.79366e-13
2.86839e-13
2.97555e-13
3.1266e-13
3.33939e-13
3.64365e-13
4.09354e-13
4.80062e-13
6.04065e-13
8.7354e-13
1.85308e-12
2.10125e-12
9.90873e-13
6.85734e-13
5.45569e-13
4.6581e-13
4.15164e-13
3.80961e-13
3.5705e-13
3.40049e-13
3.27931e-13
3.19394e-13
3.13555e-13
3.0979e-13
3.07641e-13
3.0676e-13
3.06877e-13
3.07778e-13
3.09288e-13
3.11264e-13
3.13583e-13
3.16145e-13
3.18861e-13
3.21654e-13
3.2446e-13
3.2722e-13
3.29885e-13
3.32409e-13
3.34755e-13
3.36889e-13
3.38782e-13
3.4041e-13
3.41752e-13
3.4279e-13
3.43513e-13
3.43909e-13
3.43972e-13
3.43699e-13
3.43088e-13
3.42142e-13
3.40867e-13
3.39272e-13
3.37366e-13
3.35166e-13
3.32687e-13
3.29952e-13
3.26981e-13
3.23804e-13
3.2045e-13
3.16952e-13
3.13348e-13
3.09682e-13
3.05999e-13
3.02352e-13
2.98799e-13
2.95408e-13
2.92252e-13
2.89417e-13
2.87001e-13
2.8512e-13
2.83908e-13
2.83531e-13
2.84187e-13
2.86129e-13
2.89679e-13
2.95262e-13
3.0346e-13
3.15095e-13
3.31382e-13
3.54216e-13
3.86754e-13
4.34753e-13
5.10069e-13
6.42013e-13
9.28571e-13
1.96993e-12
2.23635e-12
1.05456e-12
7.29757e-13
5.80504e-13
4.95517e-13
4.41489e-13
4.04939e-13
3.7932e-13
3.61036e-13
3.47932e-13
3.38621e-13
3.32167e-13
3.27908e-13
3.25357e-13
3.24146e-13
3.23989e-13
3.2466e-13
3.25975e-13
3.27782e-13
3.29955e-13
3.32385e-13
3.3498e-13
3.37662e-13
3.40362e-13
3.43019e-13
3.45583e-13
3.48006e-13
3.5025e-13
3.5228e-13
3.54067e-13
3.55586e-13
3.56816e-13
3.57739e-13
3.58343e-13
3.58618e-13
3.58557e-13
3.58158e-13
3.5742e-13
3.56347e-13
3.54943e-13
3.5322e-13
3.51189e-13
3.48864e-13
3.46265e-13
3.43413e-13
3.40332e-13
3.3705e-13
3.33599e-13
3.30013e-13
3.26332e-13
3.22599e-13
3.18864e-13
3.1518e-13
3.11608e-13
3.08216e-13
3.05083e-13
3.02296e-13
2.99959e-13
2.98191e-13
2.97133e-13
2.96957e-13
2.97873e-13
3.00143e-13
3.04107e-13
3.10213e-13
3.1907e-13
3.31547e-13
3.48922e-13
3.73194e-13
4.07695e-13
4.58496e-13
5.38109e-13
6.77467e-13
9.79983e-13
2.07911e-12
2.36752e-12
1.1164e-12
7.72511e-13
6.14447e-13
5.24396e-13
4.67098e-13
4.28283e-13
4.0102e-13
3.81506e-13
3.67458e-13
3.57412e-13
3.50377e-13
3.45652e-13
3.42725e-13
3.41207e-13
3.40797e-13
3.41257e-13
3.42393e-13
3.44046e-13
3.46083e-13
3.48391e-13
3.50875e-13
3.53451e-13
3.5605e-13
3.58607e-13
3.6107e-13
3.63391e-13
3.6553e-13
3.67452e-13
3.69127e-13
3.70528e-13
3.71636e-13
3.72433e-13
3.72907e-13
3.73047e-13
3.72848e-13
3.72307e-13
3.71425e-13
3.70206e-13
3.68656e-13
3.66786e-13
3.64608e-13
3.62139e-13
3.59399e-13
3.56408e-13
3.53194e-13
3.49785e-13
3.46214e-13
3.42517e-13
3.38734e-13
3.34911e-13
3.31098e-13
3.27352e-13
3.23734e-13
3.20315e-13
3.17177e-13
3.14409e-13
3.1212e-13
3.10432e-13
3.09493e-13
3.09481e-13
3.10614e-13
3.13168e-13
3.17495e-13
3.24064e-13
3.33513e-13
3.4675e-13
3.65115e-13
3.90701e-13
4.27e-13
4.80375e-13
5.63941e-13
7.10126e-13
1.02734e-12
2.17968e-12
2.49455e-12
1.17629e-12
8.13929e-13
6.47341e-13
5.52395e-13
4.9194e-13
4.50943e-13
4.22101e-13
4.01408e-13
3.86458e-13
3.75711e-13
3.68125e-13
3.6296e-13
3.5968e-13
3.57874e-13
3.57229e-13
3.57492e-13
3.58462e-13
3.59971e-13
3.61881e-13
3.64074e-13
3.6645e-13
3.68924e-13
3.71421e-13
3.73877e-13
3.76236e-13
3.78451e-13
3.80478e-13
3.82283e-13
3.83835e-13
3.85109e-13
3.86082e-13
3.86739e-13
3.87067e-13
3.87055e-13
3.86701e-13
3.86e-13
3.84955e-13
3.83569e-13
3.81852e-13
3.79814e-13
3.77469e-13
3.74834e-13
3.7193e-13
3.6878e-13
3.6541e-13
3.61851e-13
3.58138e-13
3.54306e-13
3.50399e-13
3.46462e-13
3.42548e-13
3.38715e-13
3.35026e-13
3.31555e-13
3.28384e-13
3.25609e-13
3.23337e-13
3.21699e-13
3.20845e-13
3.2096e-13
3.2227e-13
3.25062e-13
3.297e-13
3.36673e-13
3.46644e-13
3.60556e-13
3.79806e-13
4.06572e-13
4.44491e-13
5.0019e-13
5.87333e-13
7.39697e-13
1.07023e-12
2.27075e-12
2.61731e-12
1.23418e-12
8.5397e-13
6.79152e-13
5.79483e-13
5.15988e-13
4.7289e-13
4.42531e-13
4.20707e-13
4.04896e-13
3.93481e-13
3.8537e-13
3.79789e-13
3.76175e-13
3.74099e-13
3.73231e-13
3.73309e-13
3.74121e-13
3.75494e-13
3.77281e-13
3.79362e-13
3.81632e-13
3.84002e-13
3.86395e-13
3.88744e-13
3.90994e-13
3.93092e-13
3.94998e-13
3.96675e-13
3.98091e-13
3.99221e-13
4.00044e-13
4.00543e-13
4.00706e-13
4.00524e-13
3.99993e-13
3.99111e-13
3.97881e-13
3.96308e-13
3.94401e-13
3.92172e-13
3.89636e-13
3.86812e-13
3.83721e-13
3.80388e-13
3.76839e-13
3.73108e-13
3.69229e-13
3.6524e-13
3.61185e-13
3.57112e-13
3.53074e-13
3.49131e-13
3.45347e-13
3.41799e-13
3.38571e-13
3.3576e-13
3.33479e-13
3.31859e-13
3.31057e-13
3.31264e-13
3.32711e-13
3.35694e-13
3.40591e-13
3.47906e-13
3.58325e-13
3.72824e-13
3.92847e-13
4.2065e-13
4.59998e-13
5.17752e-13
6.08061e-13
7.65902e-13
1.10823e-12
2.35146e-12
2.73579e-12
1.29006e-12
8.92626e-13
7.09871e-13
6.05652e-13
5.39228e-13
4.94111e-13
4.62295e-13
4.39386e-13
4.2275e-13
4.10698e-13
4.02087e-13
3.96111e-13
3.92179e-13
3.89846e-13
3.88767e-13
3.88668e-13
3.89329e-13
3.90569e-13
3.92236e-13
3.94204e-13
3.96365e-13
3.98627e-13
4.00909e-13
4.03144e-13
4.05273e-13
4.07244e-13
4.09014e-13
4.10547e-13
4.1181e-13
4.12778e-13
4.13431e-13
4.13751e-13
4.13727e-13
4.13352e-13
4.12621e-13
4.11534e-13
4.10094e-13
4.08308e-13
4.06187e-13
4.03742e-13
4.00991e-13
3.97953e-13
3.9465e-13
3.91109e-13
3.87358e-13
3.8343e-13
3.79362e-13
3.75193e-13
3.70968e-13
3.66736e-13
3.62551e-13
3.58474e-13
3.54573e-13
3.50924e-13
3.47613e-13
3.44741e-13
3.42423e-13
3.40792e-13
3.4001e-13
3.40272e-13
3.41816e-13
3.44944e-13
3.50047e-13
3.5764e-13
3.6843e-13
3.83422e-13
4.04101e-13
4.32789e-13
4.7336e-13
5.3288e-13
6.25913e-13
7.88471e-13
1.14096e-12
2.42099e-12
2.85005e-12
1.34395e-12
9.29917e-13
7.39513e-13
6.30911e-13
5.61668e-13
5.14609e-13
4.81393e-13
4.57443e-13
4.40017e-13
4.27354e-13
4.18265e-13
4.11911e-13
4.07676e-13
4.05097e-13
4.03816e-13
4.03546e-13
4.0406e-13
4.05168e-13
4.06714e-13
4.08566e-13
4.10613e-13
4.12758e-13
4.1492e-13
4.17029e-13
4.19024e-13
4.20852e-13
4.22469e-13
4.23839e-13
4.24928e-13
4.25713e-13
4.26171e-13
4.26288e-13
4.26052e-13
4.25457e-13
4.24499e-13
4.2318e-13
4.21503e-13
4.19476e-13
4.17112e-13
4.14424e-13
4.1143e-13
4.0815e-13
4.04609e-13
4.00834e-13
3.96856e-13
3.92707e-13
3.88425e-13
3.84052e-13
3.79633e-13
3.75219e-13
3.70864e-13
3.66632e-13
3.6259e-13
3.58817e-13
3.554e-13
3.52442e-13
3.50059e-13
3.48389e-13
3.47595e-13
3.47875e-13
3.49475e-13
3.52702e-13
3.57954e-13
3.6576e-13
3.76843e-13
3.92228e-13
4.13439e-13
4.4285e-13
4.84427e-13
5.45405e-13
6.40691e-13
8.07153e-13
1.16806e-12
2.47856e-12
2.96025e-12
1.39593e-12
9.65891e-13
7.68114e-13
6.55289e-13
5.83332e-13
5.34402e-13
4.9984e-13
4.7489e-13
4.56704e-13
4.43456e-13
4.33909e-13
4.27192e-13
4.22666e-13
4.1985e-13
4.18372e-13
4.17935e-13
4.18303e-13
4.19278e-13
4.20699e-13
4.2243e-13
4.24354e-13
4.26374e-13
4.28403e-13
4.30371e-13
4.32214e-13
4.33881e-13
4.35324e-13
4.36508e-13
4.374e-13
4.37974e-13
4.38211e-13
4.38097e-13
4.37619e-13
4.36774e-13
4.35559e-13
4.33976e-13
4.3203e-13
4.29732e-13
4.27094e-13
4.24132e-13
4.20865e-13
4.17315e-13
4.13507e-13
4.09471e-13
4.05237e-13
4.0084e-13
3.9632e-13
3.91719e-13
3.87082e-13
3.82462e-13
3.77915e-13
3.73504e-13
3.69298e-13
3.65378e-13
3.61832e-13
3.58762e-13
3.56288e-13
3.54549e-13
3.53711e-13
3.53975e-13
3.55589e-13
3.58867e-13
3.64213e-13
3.72163e-13
3.83455e-13
3.99132e-13
4.20744e-13
4.50707e-13
4.93061e-13
5.55169e-13
6.52208e-13
8.21715e-13
1.18919e-12
2.52344e-12
3.06663e-12
1.44611e-12
1.00063e-12
7.95734e-13
6.78834e-13
6.04258e-13
5.53526e-13
5.17665e-13
4.91752e-13
4.72835e-13
4.59022e-13
4.49034e-13
4.41967e-13
4.37161e-13
4.34115e-13
4.32444e-13
4.31843e-13
4.32063e-13
4.32903e-13
4.34194e-13
4.35795e-13
4.37587e-13
4.39467e-13
4.41349e-13
4.43157e-13
4.4483e-13
4.46312e-13
4.47557e-13
4.48528e-13
4.49194e-13
4.49528e-13
4.49514e-13
4.49135e-13
4.48383e-13
4.47253e-13
4.45746e-13
4.43864e-13
4.41616e-13
4.39011e-13
4.36065e-13
4.32795e-13
4.29222e-13
4.25369e-13
4.21264e-13
4.16936e-13
4.12418e-13
4.07746e-13
4.0296e-13
3.98104e-13
3.93226e-13
3.88376e-13
3.83613e-13
3.79e-13
3.74609e-13
3.70518e-13
3.66819e-13
3.63613e-13
3.61022e-13
3.59186e-13
3.58271e-13
3.58482e-13
3.60069e-13
3.63349e-13
3.6873e-13
3.76756e-13
3.88171e-13
4.04033e-13
4.25909e-13
4.56247e-13
4.99136e-13
5.6203e-13
6.60298e-13
8.31943e-13
1.20404e-12
2.555e-12
3.16951e-12
1.49465e-12
1.03422e-12
8.22451e-13
7.01611e-13
6.24503e-13
5.72027e-13
5.34911e-13
5.08066e-13
4.88443e-13
4.74085e-13
4.63671e-13
4.56265e-13
4.51186e-13
4.47916e-13
4.46056e-13
4.4529e-13
4.45361e-13
4.4606e-13
4.47213e-13
4.48675e-13
4.50321e-13
4.52047e-13
4.53763e-13
4.55393e-13
4.56871e-13
4.58142e-13
4.59162e-13
4.59891e-13
4.60297e-13
4.60359e-13
4.60056e-13
4.59376e-13
4.58312e-13
4.5686e-13
4.55022e-13
4.52803e-13
4.50212e-13
4.47263e-13
4.43971e-13
4.40356e-13
4.36441e-13
4.3225e-13
4.27813e-13
4.23161e-13
4.18328e-13
4.13351e-13
4.08272e-13
4.03135e-13
3.97988e-13
3.92884e-13
3.87881e-13
3.83044e-13
3.78444e-13
3.7416e-13
3.70283e-13
3.66918e-13
3.64183e-13
3.6222e-13
3.61198e-13
3.61319e-13
3.62837e-13
3.66069e-13
3.71427e-13
3.79456e-13
3.90906e-13
4.06842e-13
4.28842e-13
4.59369e-13
5.02541e-13
5.65864e-13
6.64812e-13
8.3765e-13
1.21233e-12
2.57263e-12
3.26928e-12
1.54172e-12
1.0668e-12
8.48361e-13
7.23699e-13
6.44134e-13
5.89966e-13
5.51631e-13
5.23883e-13
5.03574e-13
4.88687e-13
4.77859e-13
4.70124e-13
4.64778e-13
4.61288e-13
4.59241e-13
4.58309e-13
4.58228e-13
4.58781e-13
4.59789e-13
4.61099e-13
4.62586e-13
4.6414e-13
4.65669e-13
4.67096e-13
4.68353e-13
4.69386e-13
4.70147e-13
4.70599e-13
4.70711e-13
4.70461e-13
4.69831e-13
4.6881e-13
4.67391e-13
4.65573e-13
4.63361e-13
4.60761e-13
4.57785e-13
4.54449e-13
4.50769e-13
4.46769e-13
4.42472e-13
4.37905e-13
4.331e-13
4.28089e-13
4.22907e-13
4.17594e-13
4.12191e-13
4.06745e-13
4.01303e-13
3.95919e-13
3.90653e-13
3.85568e-13
3.80735e-13
3.76236e-13
3.72159e-13
3.68608e-13
3.65704e-13
3.63587e-13
3.62425e-13
3.62422e-13
3.63828e-13
3.66963e-13
3.72236e-13
3.80196e-13
3.91591e-13
4.07487e-13
4.29464e-13
4.59989e-13
5.03184e-13
5.66565e-13
6.65625e-13
8.38678e-13
1.21383e-12
2.57586e-12
3.36639e-12
1.58753e-12
1.09852e-12
8.73577e-13
7.45191e-13
6.63231e-13
6.07413e-13
5.67891e-13
5.39261e-13
5.18283e-13
5.02881e-13
4.91649e-13
4.83593e-13
4.77987e-13
4.7428e-13
4.72046e-13
4.70948e-13
4.70711e-13
4.71111e-13
4.71963e-13
4.7311e-13
4.7442e-13
4.75783e-13
4.77103e-13
4.78301e-13
4.79308e-13
4.80069e-13
4.80536e-13
4.80673e-13
4.80451e-13
4.79846e-13
4.78844e-13
4.77434e-13
4.75614e-13
4.73384e-13
4.70749e-13
4.67721e-13
4.64312e-13
4.60541e-13
4.56429e-13
4.51998e-13
4.47276e-13
4.42293e-13
4.3708e-13
4.31672e-13
4.26107e-13
4.20424e-13
4.14667e-13
4.08881e-13
4.03117e-13
3.97428e-13
3.91873e-13
3.86517e-13
3.81429e-13
3.76691e-13
3.72391e-13
3.68632e-13
3.65534e-13
3.63235e-13
3.61903e-13
3.61739e-13
3.62992e-13
3.6598e-13
3.7111e-13
3.78926e-13
3.90175e-13
4.05916e-13
4.27721e-13
4.58049e-13
5.01e-13
5.64058e-13
6.62647e-13
8.34909e-13
1.20838e-12
2.56431e-12
3.46134e-12
1.63232e-12
1.12952e-12
8.98221e-13
7.66189e-13
6.81882e-13
6.24447e-13
5.8376e-13
5.54266e-13
5.32634e-13
5.16727e-13
5.05101e-13
4.96731e-13
4.9087e-13
4.86949e-13
4.8453e-13
4.83264e-13
4.82867e-13
4.83107e-13
4.83792e-13
4.84761e-13
4.85878e-13
4.87028e-13
4.88113e-13
4.89053e-13
4.89777e-13
4.90229e-13
4.90364e-13
4.90144e-13
4.89541e-13
4.88534e-13
4.8711e-13
4.85262e-13
4.82988e-13
4.80292e-13
4.77183e-13
4.73673e-13
4.6978e-13
4.65523e-13
4.60927e-13
4.56018e-13
4.50826e-13
4.45381e-13
4.39718e-13
4.33874e-13
4.27887e-13
4.21799e-13
4.15655e-13
4.095e-13
4.03386e-13
3.97366e-13
3.91498e-13
3.85846e-13
3.80482e-13
3.75483e-13
3.70939e-13
3.66949e-13
3.63632e-13
3.61125e-13
3.59592e-13
3.59231e-13
3.6029e-13
3.63081e-13
3.68006e-13
3.75605e-13
3.86614e-13
4.02082e-13
4.23565e-13
4.53494e-13
4.9593e-13
5.58277e-13
6.558e-13
8.26246e-13
1.19583e-12
2.53768e-12
3.55466e-12
1.67635e-12
1.15998e-12
9.22427e-13
7.86803e-13
7.00184e-13
6.41154e-13
5.99318e-13
5.68972e-13
5.46696e-13
5.30294e-13
5.1828e-13
5.09603e-13
5.03492e-13
4.99362e-13
4.96758e-13
4.95323e-13
4.94762e-13
4.94834e-13
4.95342e-13
4.96118e-13
4.97022e-13
4.97936e-13
4.98759e-13
4.99408e-13
4.99813e-13
4.99917e-13
4.99675e-13
4.99051e-13
4.98017e-13
4.96556e-13
4.94655e-13
4.92312e-13
4.89526e-13
4.86306e-13
4.82664e-13
4.78615e-13
4.7418e-13
4.69383e-13
4.6425e-13
4.58811e-13
4.53097e-13
4.47143e-13
4.40986e-13
4.34664e-13
4.28217e-13
4.21689e-13
4.15125e-13
4.0857e-13
4.02077e-13
3.95699e-13
3.89494e-13
3.83525e-13
3.77862e-13
3.72581e-13
3.67771e-13
3.63528e-13
3.59969e-13
3.57227e-13
3.55464e-13
3.54874e-13
3.55699e-13
3.58244e-13
3.62906e-13
3.70213e-13
3.80891e-13
3.95969e-13
4.16979e-13
4.4631e-13
4.87956e-13
5.49201e-13
6.45059e-13
8.12654e-13
1.17612e-12
2.49585e-12
3.64691e-12
1.71986e-12
1.19008e-12
9.46331e-13
8.07147e-13
7.18233e-13
6.5762e-13
6.14645e-13
5.83456e-13
5.60543e-13
5.43652e-13
5.31259e-13
5.22282e-13
5.15926e-13
5.1159e-13
5.08805e-13
5.07199e-13
5.06471e-13
5.06369e-13
5.06688e-13
5.07256e-13
5.07927e-13
5.08579e-13
5.09109e-13
5.09432e-13
5.09478e-13
5.09189e-13
5.08522e-13
5.0744e-13
5.0592e-13
5.03945e-13
5.01507e-13
4.98606e-13
4.95246e-13
4.91439e-13
4.872e-13
4.82549e-13
4.77511e-13
4.72113e-13
4.66385e-13
4.60359e-13
4.54072e-13
4.47561e-13
4.40863e-13
4.34021e-13
4.27075e-13
4.20069e-13
4.1305e-13
4.06066e-13
3.99166e-13
3.92405e-13
3.85839e-13
3.79532e-13
3.7355e-13
3.67969e-13
3.62873e-13
3.58358e-13
3.54536e-13
3.51536e-13
3.49517e-13
3.48666e-13
3.49218e-13
3.51472e-13
3.55814e-13
3.62759e-13
3.73015e-13
3.87588e-13
4.07974e-13
4.36508e-13
4.77092e-13
5.36845e-13
6.30439e-13
7.94151e-13
1.14928e-12
2.43888e-12
3.73864e-12
1.76312e-12
1.21999e-12
9.70068e-13
8.27333e-13
7.36128e-13
6.73935e-13
6.29823e-13
5.97795e-13
5.7425e-13
5.56878e-13
5.44112e-13
5.34842e-13
5.28249e-13
5.23713e-13
5.20751e-13
5.18975e-13
5.18076e-13
5.17793e-13
5.17912e-13
5.18254e-13
5.18669e-13
5.19032e-13
5.19234e-13
5.19193e-13
5.18836e-13
5.18105e-13
5.16958e-13
5.1536e-13
5.13292e-13
5.10739e-13
5.07697e-13
5.0417e-13
5.00166e-13
4.95702e-13
4.90797e-13
4.85477e-13
4.79769e-13
4.73706e-13
4.67321e-13
4.60653e-13
4.53738e-13
4.46617e-13
4.39332e-13
4.31924e-13
4.24438e-13
4.16919e-13
4.09414e-13
4.0197e-13
3.94637e-13
3.8747e-13
3.80524e-13
3.73859e-13
3.67541e-13
3.61642e-13
3.56245e-13
3.51442e-13
3.47339e-13
3.44062e-13
3.41762e-13
3.40623e-13
3.40868e-13
3.42788e-13
3.46755e-13
3.53269e-13
3.63017e-13
3.76973e-13
3.96589e-13
4.2413e-13
4.63386e-13
5.21263e-13
6.12003e-13
7.70816e-13
1.11543e-12
2.36699e-12
3.83037e-12
1.80637e-12
1.24987e-12
9.93767e-13
8.47469e-13
7.53963e-13
6.90183e-13
6.44932e-13
6.12064e-13
5.87892e-13
5.70045e-13
5.56915e-13
5.47361e-13
5.40539e-13
5.35812e-13
5.32676e-13
5.30735e-13
5.29662e-13
5.29191e-13
5.29098e-13
5.29196e-13
5.29331e-13
5.29372e-13
5.29213e-13
5.28763e-13
5.27952e-13
5.26724e-13
5.25036e-13
5.22858e-13
5.20172e-13
5.1697e-13
5.1325e-13
5.09021e-13
5.04298e-13
4.99101e-13
4.93457e-13
4.87394e-13
4.80946e-13
4.74151e-13
4.67047e-13
4.59675e-13
4.52076e-13
4.44294e-13
4.36373e-13
4.28357e-13
4.20293e-13
4.12226e-13
4.04203e-13
3.96273e-13
3.88485e-13
3.80892e-13
3.73547e-13
3.66509e-13
3.59842e-13
3.53615e-13
3.47904e-13
3.428e-13
3.38402e-13
3.34832e-13
3.32232e-13
3.30781e-13
3.30689e-13
3.32236e-13
3.3578e-13
3.418e-13
3.50957e-13
3.6419e-13