/*--------------------------------*- C++ -*----------------------------------*\
  =========                 |
  \\      /  F ield         | OpenFOAM: The Open Source CFD Toolbox
   \\    /   O peration     | Website:  https://openfoam.org
    \\  /    A nd           | Version:  12
     \\/     M anipulation  |
\*---------------------------------------------------------------------------*/
FoamFile
{
    format      ascii;
    class       volScalarField;
    location    "7.5";
    object      k;
}
// * * * * * * * * * * * * * * * * * * * * * * * * * * * * * * * * * * * * * //

dimensions      [0 2 -2 0 0 0 0];

internalField   nonuniform List<scalar> 
5625
(
2.22045e-16
2.22045e-16
2.22045e-16
2.22045e-16
2.22045e-16
2.22045e-16
2.22045e-16
2.22045e-16
2.22045e-16
2.42052e-16
2.79462e-16
3.17246e-16
3.55e-16
3.92563e-16
4.29817e-16
4.66645e-16
5.02924e-16
5.38523e-16
5.73312e-16
6.07159e-16
6.39937e-16
6.71519e-16
7.01786e-16
7.30622e-16
7.57917e-16
7.83569e-16
8.07482e-16
8.29565e-16
8.49736e-16
8.67923e-16
8.84058e-16
8.98082e-16
9.09947e-16
9.19609e-16
9.27036e-16
9.32203e-16
9.35093e-16
9.357e-16
9.34025e-16
9.30076e-16
9.23871e-16
9.15436e-16
9.04806e-16
8.92023e-16
8.77137e-16
8.60207e-16
8.41298e-16
8.20483e-16
7.97842e-16
7.7346e-16
7.4743e-16
7.19852e-16
6.9083e-16
6.60472e-16
6.28894e-16
5.96214e-16
5.62553e-16
5.28036e-16
4.92788e-16
4.56933e-16
4.20593e-16
3.83883e-16
3.46909e-16
3.0978e-16
2.72664e-16
2.36023e-16
2.22045e-16
2.22045e-16
2.22045e-16
2.22045e-16
2.22045e-16
2.22045e-16
2.22045e-16
2.22045e-16
2.22045e-16
2.22045e-16
2.22045e-16
2.22045e-16
3.45104e-16
5.80656e-16
8.56791e-16
1.16207e-15
1.48741e-15
1.82435e-15
2.16545e-15
2.50699e-15
2.84788e-15
3.18754e-15
3.52528e-15
3.86024e-15
4.1914e-15
4.51763e-15
4.83778e-15
5.15064e-15
5.45503e-15
5.74981e-15
6.03384e-15
6.30603e-15
6.56536e-15
6.81083e-15
7.04152e-15
7.25656e-15
7.45515e-15
7.63655e-15
7.8001e-15
7.9452e-15
8.07131e-15
8.17801e-15
8.2649e-15
8.33168e-15
8.37815e-15
8.40414e-15
8.40959e-15
8.39452e-15
8.35899e-15
8.30318e-15
8.22731e-15
8.13171e-15
8.01674e-15
7.88287e-15
7.73061e-15
7.56056e-15
7.37337e-15
7.16975e-15
6.95048e-15
6.7164e-15
6.46839e-15
6.20739e-15
5.93438e-15
5.6504e-15
5.35651e-15
5.05381e-15
4.74341e-15
4.42644e-15
4.10404e-15
3.7773e-15
3.44725e-15
3.11482e-15
2.78076e-15
2.44562e-15
2.10992e-15
1.77481e-15
1.44458e-15
1.12659e-15
8.28999e-16
5.60609e-16
3.32655e-16
2.22045e-16
2.22045e-16
2.22045e-16
2.22045e-16
2.22045e-16
4.59744e-16
9.2842e-16
1.49043e-15
2.11867e-15
2.79636e-15
3.51078e-15
4.25123e-15
5.00879e-15
5.77673e-15
6.55014e-15
7.32518e-15
8.0985e-15
8.86702e-15
9.62771e-15
1.03776e-14
1.11138e-14
1.18335e-14
1.25338e-14
1.3212e-14
1.38656e-14
1.44919e-14
1.50887e-14
1.56535e-14
1.61844e-14
1.66792e-14
1.71362e-14
1.75537e-14
1.793e-14
1.82639e-14
1.85541e-14
1.87996e-14
1.89995e-14
1.91532e-14
1.926e-14
1.93198e-14
1.93323e-14
1.92976e-14
1.92158e-14
1.90873e-14
1.89127e-14
1.86926e-14
1.8428e-14
1.81199e-14
1.77695e-14
1.73781e-14
1.69473e-14
1.64787e-14
1.59741e-14
1.54354e-14
1.48647e-14
1.42641e-14
1.36359e-14
1.29825e-14
1.23063e-14
1.161e-14
1.0896e-14
1.01672e-14
9.42626e-15
8.6759e-15
7.91894e-15
7.15821e-15
6.39664e-15
5.6374e-15
4.88421e-15
4.14191e-15
3.41725e-15
2.719e-15
2.05752e-15
1.44515e-15
8.98209e-16
4.43304e-16
2.22045e-16
2.22045e-16
2.22045e-16
2.67373e-16
8.74478e-16
1.68427e-15
2.6302e-15
3.67583e-15
4.79715e-15
5.97638e-15
7.19924e-15
8.45391e-15
9.7305e-15
1.10206e-14
1.23171e-14
1.36134e-14
1.49034e-14
1.61817e-14
1.74427e-14
1.86813e-14
1.98924e-14
2.10713e-14
2.22132e-14
2.33136e-14
2.43684e-14
2.53733e-14
2.63246e-14
2.72187e-14
2.80521e-14
2.88217e-14
2.95247e-14
3.01585e-14
3.07208e-14
3.12095e-14
3.16228e-14
3.19594e-14
3.2218e-14
3.23979e-14
3.24984e-14
3.25192e-14
3.24606e-14
3.23226e-14
3.2106e-14
3.18117e-14
3.14409e-14
3.0995e-14
3.04759e-14
2.98855e-14
2.92262e-14
2.85005e-14
2.77111e-14
2.68612e-14
2.59538e-14
2.49926e-14
2.39812e-14
2.29233e-14
2.18231e-14
2.06848e-14
1.95128e-14
1.83114e-14
1.70855e-14
1.58398e-14
1.45793e-14
1.33092e-14
1.20346e-14
1.07615e-14
9.49596e-15
8.24499e-15
7.01667e-15
5.82064e-15
4.66837e-15
3.57368e-15
2.55387e-15
1.63226e-15
8.44365e-16
2.55213e-16
2.22045e-16
2.22045e-16
4.81991e-16
1.39016e-15
2.57198e-15
3.94126e-15
5.44965e-15
7.06496e-15
8.76335e-15
1.05259e-14
1.23367e-14
1.41822e-14
1.60505e-14
1.79308e-14
1.98132e-14
2.16885e-14
2.35481e-14
2.53837e-14
2.71875e-14
2.8952e-14
3.06699e-14
3.23343e-14
3.39385e-14
3.54762e-14
3.69415e-14
3.83285e-14
3.96322e-14
4.08474e-14
4.19696e-14
4.29946e-14
4.39187e-14
4.47384e-14
4.54508e-14
4.60533e-14
4.65438e-14
4.69206e-14
4.71825e-14
4.73287e-14
4.73587e-14
4.72726e-14
4.7071e-14
4.67546e-14
4.63249e-14
4.57837e-14
4.5133e-14
4.43755e-14
4.35141e-14
4.25522e-14
4.14935e-14
4.03421e-14
3.91024e-14
3.77792e-14
3.63774e-14
3.49026e-14
3.33604e-14
3.17567e-14
3.00977e-14
2.839e-14
2.66402e-14
2.48552e-14
2.30425e-14
2.12093e-14
1.93637e-14
1.75137e-14
1.56683e-14
1.38366e-14
1.20292e-14
1.02574e-14
8.53432e-15
6.87529e-15
5.29862e-15
3.82746e-15
2.49313e-15
1.34288e-15
4.61161e-16
2.22045e-16
2.22045e-16
7.5106e-16
1.99082e-15
3.57255e-15
5.39461e-15
7.39806e-15
9.54284e-15
1.17989e-14
1.41421e-14
1.65521e-14
1.90112e-14
2.15033e-14
2.4014e-14
2.65297e-14
2.9038e-14
3.15269e-14
3.39849e-14
3.64014e-14
3.8766e-14
4.10687e-14
4.33e-14
4.54511e-14
4.75132e-14
4.94782e-14
5.13386e-14
5.3087e-14
5.47169e-14
5.6222e-14
5.75967e-14
5.88359e-14
5.99351e-14
6.08902e-14
6.16979e-14
6.23552e-14
6.286e-14
6.32105e-14
6.34057e-14
6.34451e-14
6.33287e-14
6.30573e-14
6.26319e-14
6.20545e-14
6.13274e-14
6.04536e-14
5.94365e-14
5.82801e-14
5.69889e-14
5.5568e-14
5.40229e-14
5.23594e-14
5.05841e-14
4.87037e-14
4.67255e-14
4.46573e-14
4.25071e-14
4.02832e-14
3.79946e-14
3.56503e-14
3.326e-14
3.08334e-14
2.83811e-14
2.59137e-14
2.34426e-14
2.09798e-14
1.85381e-14
1.61314e-14
1.37747e-14
1.14853e-14
9.28264e-15
7.1901e-15
5.23682e-15
3.46182e-15
1.92279e-15
7.19628e-16
2.22045e-16
2.22045e-16
1.06424e-15
2.66245e-15
4.66678e-15
6.96383e-15
9.48581e-15
1.21856e-14
1.5027e-14
1.79807e-14
2.10214e-14
2.41268e-14
2.72767e-14
3.04527e-14
3.36374e-14
3.68146e-14
3.99688e-14
4.30854e-14
4.61503e-14
4.91502e-14
5.20723e-14
5.49044e-14
5.76349e-14
6.02528e-14
6.27476e-14
6.51096e-14
6.73295e-14
6.93988e-14
7.13096e-14
7.30548e-14
7.46279e-14
7.60229e-14
7.72349e-14
7.82596e-14
7.90932e-14
7.97329e-14
8.01766e-14
8.0423e-14
8.04714e-14
8.0322e-14
7.99755e-14
7.94336e-14
7.86985e-14
7.77734e-14
7.6662e-14
7.53687e-14
7.38986e-14
7.22575e-14
7.04518e-14
6.84884e-14
6.63751e-14
6.412e-14
6.17318e-14
5.92199e-14
5.65941e-14
5.38648e-14
5.10427e-14
4.81391e-14
4.5166e-14
4.21355e-14
3.90605e-14
3.59543e-14
3.28309e-14
2.97049e-14
2.65918e-14
2.3508e-14
2.04711e-14
1.75002e-14
1.46167e-14
1.18448e-14
9.21282e-15
6.75575e-15
4.51954e-15
2.57057e-15
1.02053e-15
2.22045e-16
2.22045e-16
1.40965e-15
3.38586e-15
5.82929e-15
8.61767e-15
1.16756e-14
1.49494e-14
1.83969e-14
2.19831e-14
2.56779e-14
2.94542e-14
3.32873e-14
3.71546e-14
4.10346e-14
4.49073e-14
4.87536e-14
5.25554e-14
5.62952e-14
5.99566e-14
6.35236e-14
6.69813e-14
7.03154e-14
7.35121e-14
7.65587e-14
7.9443e-14
8.21539e-14
8.46807e-14
8.70139e-14
8.91446e-14
9.10648e-14
9.27675e-14
9.42463e-14
9.54961e-14
9.65124e-14
9.72916e-14
9.78313e-14
9.81298e-14
9.81862e-14
9.80011e-14
9.75751e-14
9.69103e-14
9.60096e-14
9.48768e-14
9.35165e-14
9.19341e-14
9.0136e-14
8.81291e-14
8.59213e-14
8.35213e-14
8.09385e-14
7.81828e-14
7.52652e-14
7.2197e-14
6.89903e-14
6.56578e-14
6.2213e-14
5.86697e-14
5.50425e-14
5.13467e-14
4.7598e-14
4.38131e-14
4.0009e-14
3.62039e-14
3.2417e-14
2.86682e-14
2.49792e-14
2.13734e-14
1.78765e-14
1.45173e-14
1.13295e-14
8.3536e-15
5.64188e-15
3.26808e-15
1.35277e-15
2.22045e-16
2.22045e-16
1.76888e-15
4.13296e-15
7.02645e-15
1.03189e-14
1.39271e-14
1.77903e-14
2.18603e-14
2.60963e-14
3.04629e-14
3.49283e-14
3.94632e-14
4.40406e-14
4.8635e-14
5.32224e-14
5.77799e-14
6.22857e-14
6.67191e-14
7.10602e-14
7.52901e-14
7.93907e-14
8.33449e-14
8.71364e-14
9.07498e-14
9.41707e-14
9.73857e-14
1.00382e-13
1.03149e-13
1.05675e-13
1.07951e-13
1.09969e-13
1.11721e-13
1.132e-13
1.14403e-13
1.15324e-13
1.15961e-13
1.16311e-13
1.16374e-13
1.1615e-13
1.1564e-13
1.14848e-13
1.13775e-13
1.12427e-13
1.10809e-13
1.08927e-13
1.0679e-13
1.04406e-13
1.01784e-13
9.89338e-14
9.58674e-14
9.25965e-14
8.91341e-14
8.54937e-14
8.16899e-14
7.77378e-14
7.36534e-14
6.94533e-14
6.51551e-14
6.07768e-14
5.63375e-14
5.18568e-14
4.73555e-14
4.28551e-14
3.83783e-14
3.39491e-14
2.95931e-14
2.5338e-14
2.1214e-14
1.72548e-14
1.34993e-14
9.99382e-15
6.79705e-15
3.98983e-15
1.70021e-15
2.22045e-16
2.34234e-16
2.10726e-15
4.86375e-15
8.21879e-15
1.20288e-14
1.62013e-14
2.0668e-14
2.53741e-14
3.02733e-14
3.53251e-14
4.04927e-14
4.57424e-14
5.10428e-14
5.63642e-14
6.16787e-14
6.69597e-14
7.21817e-14
7.73205e-14
8.23529e-14
8.72567e-14
9.20108e-14
9.65953e-14
1.00991e-13
1.0518e-13
1.09146e-13
1.12873e-13
1.16346e-13
1.19552e-13
1.22478e-13
1.25115e-13
1.27451e-13
1.29479e-13
1.3119e-13
1.3258e-13
1.33643e-13
1.34376e-13
1.34776e-13
1.34843e-13
1.34578e-13
1.33981e-13
1.33055e-13
1.31805e-13
1.30235e-13
1.28353e-13
1.26166e-13
1.23683e-13
1.20913e-13
1.17868e-13
1.14559e-13
1.11e-13
1.07204e-13
1.03187e-13
9.8965e-14
9.4554e-14
8.99723e-14
8.52382e-14
8.03714e-14
7.53921e-14
7.03215e-14
6.51817e-14
5.99958e-14
5.47877e-14
4.95825e-14
4.44066e-14
3.92878e-14
3.42558e-14
2.93423e-14
2.4582e-14
2.00136e-14
1.56811e-14
1.16369e-14
7.94663e-15
4.69967e-15
2.03462e-15
2.26136e-16
2.6852e-16
2.41537e-15
5.56453e-15
9.3892e-15
1.37269e-14
1.84739e-14
2.35538e-14
2.89053e-14
3.44766e-14
4.02218e-14
4.60995e-14
5.20714e-14
5.81019e-14
6.41573e-14
7.02056e-14
7.62164e-14
8.21606e-14
8.80104e-14
9.37394e-14
9.9322e-14
1.04734e-13
1.09953e-13
1.14957e-13
1.19726e-13
1.24239e-13
1.2848e-13
1.32431e-13
1.36078e-13
1.39406e-13
1.42403e-13
1.45057e-13
1.4736e-13
1.49302e-13
1.50877e-13
1.5208e-13
1.52907e-13
1.53355e-13
1.53423e-13
1.53112e-13
1.52423e-13
1.51361e-13
1.49929e-13
1.48134e-13
1.45983e-13
1.43485e-13
1.4065e-13
1.3749e-13
1.34017e-13
1.30245e-13
1.26188e-13
1.21863e-13
1.17287e-13
1.12479e-13
1.07456e-13
1.02241e-13
9.68532e-14
9.13159e-14
8.56521e-14
7.98859e-14
7.40425e-14
6.81482e-14
6.22304e-14
5.63176e-14
5.04397e-14
4.46284e-14
3.89171e-14
3.33417e-14
2.79411e-14
2.27587e-14
1.78436e-14
1.3254e-14
9.06296e-15
5.36976e-15
2.33034e-15
2.59048e-16
3.01732e-16
2.71397e-15
6.25072e-15
1.05437e-14
1.54104e-14
2.07344e-14
2.64306e-14
3.24307e-14
3.8677e-14
4.51184e-14
5.17086e-14
5.84048e-14
6.51672e-14
7.19578e-14
7.87409e-14
8.54822e-14
9.2149e-14
9.87099e-14
1.05135e-13
1.11396e-13
1.17466e-13
1.23318e-13
1.28928e-13
1.34274e-13
1.39333e-13
1.44085e-13
1.48512e-13
1.52596e-13
1.56323e-13
1.59676e-13
1.62646e-13
1.65219e-13
1.67388e-13
1.69145e-13
1.70483e-13
1.71399e-13
1.7189e-13
1.71954e-13
1.71594e-13
1.7081e-13
1.69607e-13
1.67989e-13
1.65965e-13
1.63543e-13
1.60731e-13
1.57543e-13
1.53991e-13
1.50088e-13
1.45851e-13
1.41296e-13
1.36441e-13
1.31307e-13
1.25912e-13
1.2028e-13
1.14432e-13
1.08393e-13
1.02187e-13
9.58411e-14
8.93822e-14
8.28383e-14
7.6239e-14
6.9615e-14
6.29981e-14
5.64218e-14
4.99213e-14
4.35339e-14
3.72994e-14
3.12612e-14
2.54671e-14
1.99715e-14
1.48389e-14
1.01503e-14
6.01634e-15
2.61188e-15
2.90364e-16
3.34423e-16
3.00799e-15
6.92763e-15
1.16849e-14
1.70771e-14
2.29754e-14
2.92855e-14
3.5932e-14
4.2851e-14
4.99861e-14
5.7286e-14
6.47035e-14
7.21943e-14
7.97165e-14
8.72302e-14
9.46975e-14
1.02082e-13
1.09349e-13
1.16465e-13
1.23399e-13
1.3012e-13
1.36599e-13
1.42809e-13
1.48725e-13
1.54323e-13
1.5958e-13
1.64475e-13
1.68989e-13
1.73106e-13
1.7681e-13
1.80086e-13
1.82924e-13
1.85312e-13
1.87243e-13
1.88711e-13
1.8971e-13
1.90238e-13
1.90293e-13
1.89879e-13
1.88995e-13
1.87647e-13
1.85842e-13
1.83586e-13
1.8089e-13
1.77764e-13
1.74222e-13
1.70277e-13
1.65947e-13
1.61247e-13
1.56196e-13
1.50816e-13
1.45127e-13
1.39152e-13
1.32915e-13
1.26441e-13
1.19757e-13
1.12891e-13
1.05872e-13
9.87286e-14
9.14934e-14
8.41985e-14
7.68778e-14
6.95665e-14
6.23015e-14
5.51216e-14
4.80677e-14
4.11837e-14
3.4517e-14
2.81203e-14
2.20532e-14
1.63867e-14
1.12098e-14
6.6448e-15
2.88485e-15
3.20712e-16
3.66654e-16
3.29791e-15
7.59533e-15
1.2811e-14
1.87227e-14
2.51892e-14
3.2107e-14
3.93934e-14
4.69784e-14
5.48001e-14
6.28024e-14
7.09335e-14
7.91447e-14
8.739e-14
9.56256e-14
1.0381e-13
1.11903e-13
1.19866e-13
1.27662e-13
1.35258e-13
1.42619e-13
1.49715e-13
1.56514e-13
1.62989e-13
1.69114e-13
1.74864e-13
1.80216e-13
1.8515e-13
1.89646e-13
1.93688e-13
1.97261e-13
2.00352e-13
2.0295e-13
2.05047e-13
2.06634e-13
2.07708e-13
2.08266e-13
2.08306e-13
2.07831e-13
2.06843e-13
2.05347e-13
2.0335e-13
2.00861e-13
1.9789e-13
1.9445e-13
1.90556e-13
1.86222e-13
1.81467e-13
1.76309e-13
1.7077e-13
1.64871e-13
1.58636e-13
1.52089e-13
1.45258e-13
1.3817e-13
1.30854e-13
1.2334e-13
1.15661e-13
1.07848e-13
9.99362e-14
9.19609e-14
8.39591e-14
7.59691e-14
6.80312e-14
6.01875e-14
5.24828e-14
4.49646e-14
3.76847e-14
3.07002e-14
2.40761e-14
1.78896e-14
1.22378e-14
7.25416e-15
3.14938e-15
3.50118e-16
3.98357e-16
3.58308e-15
8.25215e-15
1.39189e-14
2.0342e-14
2.73678e-14
3.48838e-14
4.28003e-14
5.1041e-14
5.95387e-14
6.82323e-14
7.70653e-14
8.59848e-14
9.49406e-14
1.03885e-13
1.12773e-13
1.2156e-13
1.30205e-13
1.38668e-13
1.46911e-13
1.54897e-13
1.62593e-13
1.69966e-13
1.76985e-13
1.83621e-13
1.89849e-13
1.95642e-13
2.0098e-13
2.05841e-13
2.10207e-13
2.14063e-13
2.17394e-13
2.20189e-13
2.22438e-13
2.24134e-13
2.25273e-13
2.25851e-13
2.25868e-13
2.25326e-13
2.24227e-13
2.22579e-13
2.20387e-13
2.17663e-13
2.14418e-13
2.10666e-13
2.06422e-13
2.01704e-13
1.96531e-13
1.90923e-13
1.84904e-13
1.78496e-13
1.71727e-13
1.64623e-13
1.57212e-13
1.49526e-13
1.41594e-13
1.33451e-13
1.2513e-13
1.16667e-13
1.08099e-13
9.94639e-14
9.08019e-14
8.21546e-14
7.35652e-14
6.50792e-14
5.67449e-14
4.86135e-14
4.07409e-14
3.31885e-14
2.60265e-14
1.93383e-14
1.32285e-14
7.84118e-15
3.40418e-15
3.78441e-16
4.29436e-16
3.86264e-15
8.89606e-15
1.50051e-14
2.19294e-14
2.95035e-14
3.7606e-14
4.614e-14
5.50232e-14
6.4183e-14
7.35533e-14
8.30732e-14
9.26853e-14
1.02335e-13
1.11972e-13
1.21546e-13
1.3101e-13
1.40319e-13
1.49429e-13
1.583e-13
1.66893e-13
1.75171e-13
1.83097e-13
1.9064e-13
1.97768e-13
2.04454e-13
2.1067e-13
2.16392e-13
2.21599e-13
2.26271e-13
2.30392e-13
2.33946e-13
2.36922e-13
2.3931e-13
2.41101e-13
2.42292e-13
2.4288e-13
2.42863e-13
2.42246e-13
2.4103e-13
2.39224e-13
2.36835e-13
2.33875e-13
2.30356e-13
2.26294e-13
2.21705e-13
2.16609e-13
2.11026e-13
2.04978e-13
1.9849e-13
1.91589e-13
1.84301e-13
1.76656e-13
1.68684e-13
1.60419e-13
1.51894e-13
1.43143e-13
1.34205e-13
1.25116e-13
1.15917e-13
1.06648e-13
9.7352e-14
8.80739e-14
7.88597e-14
6.97582e-14
6.08207e-14
5.21022e-14
4.36622e-14
3.55665e-14
2.78902e-14
2.07222e-14
1.41747e-14
8.40185e-15
3.64753e-15
4.0549e-16
4.59799e-16
4.13575e-15
9.52509e-15
1.60661e-14
2.348e-14
3.15895e-14
4.02646e-14
4.94012e-14
5.89112e-14
6.87166e-14
7.87464e-14
8.89352e-14
9.92214e-14
1.09547e-13
1.19855e-13
1.30095e-13
1.40214e-13
1.50165e-13
1.59902e-13
1.69379e-13
1.78555e-13
1.87391e-13
1.95848e-13
2.03891e-13
2.11488e-13
2.18608e-13
2.25223e-13
2.31308e-13
2.36839e-13
2.41795e-13
2.4616e-13
2.49918e-13
2.53056e-13
2.55564e-13
2.57434e-13
2.58662e-13
2.59246e-13
2.59185e-13
2.58482e-13
2.57142e-13
2.55172e-13
2.52582e-13
2.49384e-13
2.45592e-13
2.41223e-13
2.36295e-13
2.30828e-13
2.24845e-13
2.18369e-13
2.11428e-13
2.04048e-13
1.9626e-13
1.88094e-13
1.79585e-13
1.70765e-13
1.61671e-13
1.5234e-13
1.42812e-13
1.33127e-13
1.23327e-13
1.13455e-13
1.03557e-13
9.36796e-14
8.38726e-14
7.41871e-14
6.46779e-14
5.54031e-14
4.64257e-14
3.78157e-14
2.96526e-14
2.20309e-14
1.50694e-14
8.93194e-15
3.87759e-15
4.31063e-16
4.89364e-16
4.40169e-15
1.01376e-14
1.70991e-14
2.49896e-14
3.362e-14
4.2852e-14
5.25747e-14
6.26938e-14
7.31261e-14
8.3796e-14
9.46334e-14
1.05572e-13
1.16551e-13
1.27509e-13
1.38391e-13
1.49142e-13
1.59711e-13
1.70047e-13
1.80104e-13
1.89838e-13
1.99205e-13
2.08166e-13
2.16683e-13
2.24721e-13
2.32249e-13
2.39237e-13
2.45657e-13
2.51486e-13
2.56702e-13
2.61286e-13
2.65224e-13
2.68502e-13
2.7111e-13
2.7304e-13
2.74288e-13
2.74852e-13
2.74732e-13
2.73933e-13
2.72459e-13
2.70318e-13
2.67523e-13
2.64086e-13
2.60022e-13
2.55349e-13
2.50087e-13
2.44258e-13
2.37886e-13
2.30997e-13
2.23618e-13
2.1578e-13
2.07513e-13
1.98851e-13
1.89828e-13
1.80481e-13
1.70848e-13
1.60969e-13
1.50884e-13
1.40636e-13
1.30269e-13
1.1983e-13
1.09366e-13
9.89261e-14
8.85627e-14
7.83299e-14
6.8285e-14
5.84892e-14
4.90091e-14
3.9918e-14
3.12997e-14
2.32537e-14
1.59053e-14
9.4272e-15
4.09253e-15
4.54954e-16
5.18067e-16
4.65986e-15
1.07321e-14
1.81018e-14
2.64547e-14
3.55906e-14
4.53626e-14
5.5653e-14
6.63621e-14
7.74011e-14
8.86898e-14
1.00153e-13
1.11722e-13
1.2333e-13
1.34913e-13
1.46411e-13
1.57767e-13
1.68925e-13
1.79834e-13
1.90443e-13
2.00704e-13
2.10573e-13
2.20007e-13
2.28967e-13
2.37417e-13
2.45322e-13
2.52651e-13
2.59377e-13
2.65475e-13
2.70921e-13
2.75698e-13
2.7979e-13
2.83182e-13
2.85866e-13
2.87834e-13
2.89081e-13
2.89607e-13
2.89413e-13
2.88504e-13
2.86885e-13
2.84567e-13
2.81561e-13
2.77881e-13
2.73546e-13
2.68573e-13
2.62984e-13
2.56803e-13
2.50055e-13
2.42767e-13
2.3497e-13
2.26694e-13
2.17972e-13
2.08839e-13
1.99333e-13
1.8949e-13
1.79351e-13
1.68958e-13
1.58352e-13
1.4758e-13
1.36686e-13
1.2572e-13
1.1473e-13
1.03769e-13
9.28906e-14
8.21515e-14
7.16115e-14
6.13346e-14
5.13903e-14
4.18554e-14
3.28174e-14
2.43804e-14
1.66755e-14
9.88344e-15
4.29053e-15
4.76962e-16
5.45864e-16
4.90988e-15
1.13079e-14
1.90727e-14
2.78731e-14
3.74979e-14
4.7792e-14
5.86312e-14
6.99097e-14
8.1534e-14
9.34188e-14
1.05485e-13
1.17659e-13
1.29869e-13
1.4205e-13
1.54137e-13
1.66069e-13
1.77788e-13
1.89238e-13
2.00366e-13
2.11123e-13
2.21461e-13
2.31336e-13
2.40705e-13
2.49532e-13
2.5778e-13
2.65418e-13
2.72416e-13
2.78749e-13
2.84394e-13
2.89332e-13
2.93547e-13
2.97025e-13
2.99758e-13
3.01738e-13
3.02962e-13
3.0343e-13
3.03144e-13
3.02108e-13
3.00332e-13
2.97826e-13
2.94602e-13
2.90678e-13
2.86071e-13
2.80801e-13
2.74893e-13
2.68369e-13
2.61259e-13
2.5359e-13
2.45394e-13
2.36703e-13
2.27553e-13
2.17979e-13
2.0802e-13
1.97716e-13
1.87108e-13
1.76239e-13
1.65154e-13
1.53899e-13
1.42522e-13
1.31073e-13
1.19603e-13
1.08166e-13
9.68181e-14
8.5618e-14
7.46278e-14
6.3914e-14
5.35484e-14
4.36109e-14
3.41923e-14
2.54008e-14
1.73729e-14
1.02966e-14
4.46983e-15
4.96892e-16
5.72727e-16
5.1515e-15
1.18642e-14
2.00109e-14
2.92435e-14
3.93402e-14
5.0138e-14
6.15061e-14
7.33331e-14
8.55202e-14
9.79776e-14
1.10622e-13
1.23374e-13
1.36161e-13
1.48911e-13
1.61557e-13
1.74034e-13
1.86282e-13
1.98241e-13
2.09855e-13
2.21073e-13
2.31844e-13
2.42123e-13
2.51865e-13
2.61032e-13
2.69586e-13
2.77495e-13
2.84728e-13
2.9126e-13
2.97068e-13
3.02132e-13
3.06436e-13
3.09968e-13
3.1272e-13
3.14684e-13
3.15859e-13
3.16244e-13
3.15845e-13
3.14666e-13
3.12717e-13
3.10012e-13
3.06563e-13
3.02389e-13
2.9751e-13
2.91947e-13
2.85725e-13
2.7887e-13
2.71411e-13
2.63379e-13
2.54806e-13
2.45726e-13
2.36176e-13
2.26193e-13
2.15817e-13
2.05088e-13
1.94051e-13
1.82749e-13
1.71229e-13
1.59537e-13
1.47724e-13
1.3584e-13
1.23939e-13
1.12076e-13
1.00309e-13
8.86971e-14
7.73059e-14
6.6203e-14
5.54629e-14
4.51677e-14
3.54114e-14
2.63055e-14
1.79912e-14
1.06628e-14
4.62873e-15
5.14553e-16
5.98654e-16
5.38468e-15
1.24012e-14
2.09161e-14
3.05654e-14
4.1117e-14
5.24e-14
6.4277e-14
7.6631e-14
8.93583e-14
1.02364e-13
1.15561e-13
1.28866e-13
1.422e-13
1.5549e-13
1.68665e-13
1.81655e-13
1.94398e-13
2.06831e-13
2.18896e-13
2.30537e-13
2.41704e-13
2.52348e-13
2.62423e-13
2.7189e-13
2.80709e-13
2.88848e-13
2.96276e-13
3.02967e-13
3.08898e-13
3.14049e-13
3.18406e-13
3.21956e-13
3.24692e-13
3.26609e-13
3.27705e-13
3.27982e-13
3.27445e-13
3.26102e-13
3.23965e-13
3.21046e-13
3.17363e-13
3.12934e-13
3.0778e-13
3.01926e-13
2.95398e-13
2.88222e-13
2.8043e-13
2.72054e-13
2.63127e-13
2.53684e-13
2.43764e-13
2.33406e-13
2.2265e-13
2.11538e-13
2.00115e-13
1.88425e-13
1.76517e-13
1.64438e-13
1.5224e-13
1.39974e-13
1.27695e-13
1.1546e-13
1.03327e-13
9.13579e-14
7.96185e-14
6.81787e-14
5.71145e-14
4.65102e-14
3.64623e-14
2.70852e-14
1.85239e-14
1.09783e-14
4.76561e-15
5.29767e-16
6.23657e-16
5.60956e-15
1.29189e-14
2.17888e-14
3.18398e-14
4.28293e-14
5.4579e-14
6.69451e-14
7.98049e-14
9.30498e-14
1.0658e-13
1.20304e-13
1.34134e-13
1.47988e-13
1.61788e-13
1.75459e-13
1.8893e-13
2.02133e-13
2.15003e-13
2.27481e-13
2.39507e-13
2.51029e-13
2.61996e-13
2.72363e-13
2.82086e-13
2.91127e-13
2.99452e-13
3.07031e-13
3.13837e-13
3.19847e-13
3.25044e-13
3.29412e-13
3.32941e-13
3.35624e-13
3.37458e-13
3.38442e-13
3.38581e-13
3.3788e-13
3.36351e-13
3.34005e-13
3.30858e-13
3.26928e-13
3.22237e-13
3.16807e-13
3.10664e-13
3.03834e-13
2.96349e-13
2.88239e-13
2.79538e-13
2.70281e-13
2.60505e-13
2.50248e-13
2.3955e-13
2.28453e-13
2.17e-13
2.05237e-13
1.93209e-13
1.80963e-13
1.68551e-13
1.56022e-13
1.43431e-13
1.30831e-13
1.18281e-13
1.0584e-13
9.35709e-14
8.15401e-14
6.98189e-14
5.84848e-14
4.76235e-14
3.73333e-14
2.77311e-14
1.89651e-14
1.12395e-14
4.87896e-15
5.42365e-16
6.47771e-16
5.82644e-15
1.34182e-14
2.26303e-14
3.30682e-14
4.44794e-14
5.6678e-14
6.95138e-14
8.28588e-14
9.65989e-14
1.1063e-13
1.24855e-13
1.39184e-13
1.53529e-13
1.67808e-13
1.81944e-13
1.95861e-13
2.09489e-13
2.2276e-13
2.3561e-13
2.47981e-13
2.59815e-13
2.71062e-13
2.81674e-13
2.91608e-13
3.00824e-13
3.09288e-13
3.1697e-13
3.23843e-13
3.29886e-13
3.35082e-13
3.39417e-13
3.42882e-13
3.45471e-13
3.47183e-13
3.48019e-13
3.47986e-13
3.47092e-13
3.4535e-13
3.42774e-13
3.39381e-13
3.35192e-13
3.3023e-13
3.24519e-13
3.18087e-13
3.10964e-13
3.03179e-13
2.94767e-13
2.85762e-13
2.762e-13
2.66119e-13
2.55558e-13
2.44559e-13
2.33163e-13
2.21415e-13
2.0936e-13
1.97045e-13
1.84517e-13
1.71827e-13
1.59026e-13
1.46169e-13
1.33309e-13
1.20505e-13
1.07817e-13
9.53089e-14
8.3047e-14
7.11035e-14
5.95567e-14
4.84935e-14
3.80135e-14
2.82353e-14
1.93093e-14
1.14433e-14
4.96734e-15
5.52187e-16
6.71049e-16
6.03579e-15
1.39001e-14
2.34424e-14
3.42533e-14
4.60709e-14
5.87013e-14
7.19886e-14
8.57988e-14
1.00013e-13
1.14522e-13
1.29224e-13
1.44025e-13
1.58832e-13
1.73561e-13
1.88129e-13
2.02458e-13
2.16474e-13
2.30107e-13
2.4329e-13
2.55962e-13
2.68065e-13
2.79545e-13
2.90355e-13
3.0045e-13
3.09791e-13
3.18344e-13
3.26077e-13
3.32967e-13
3.38993e-13
3.44138e-13
3.48391e-13
3.51744e-13
3.54194e-13
3.55741e-13
3.5639e-13
3.56149e-13
3.5503e-13
3.53046e-13
3.50214e-13
3.46555e-13
3.42092e-13
3.36848e-13
3.30852e-13
3.24132e-13
3.16719e-13
3.08646e-13
2.99947e-13
2.90659e-13
2.80817e-13
2.70463e-13
2.59634e-13
2.48373e-13
2.36723e-13
2.24727e-13
2.12432e-13
1.99883e-13
1.8713e-13
1.74222e-13
1.61211e-13
1.48149e-13
1.35093e-13
1.221e-13
1.0923e-13
9.65468e-14
8.41173e-14
7.20137e-14
6.03147e-14
4.91077e-14
3.8493e-14
2.85903e-14
1.95515e-14
1.15866e-14
5.02948e-15
5.59092e-16
6.93562e-16
6.23824e-15
1.4366e-14
2.42274e-14
3.53988e-14
4.76083e-14
6.06551e-14
7.43767e-14
8.86335e-14
1.03301e-13
1.18266e-13
1.33422e-13
1.48669e-13
1.63911e-13
1.7906e-13
1.94028e-13
2.08735e-13
2.23102e-13
2.37057e-13
2.50531e-13
2.6346e-13
2.75785e-13
2.87451e-13
2.98409e-13
3.08614e-13
3.18027e-13
3.26614e-13
3.34345e-13
3.41197e-13
3.4715e-13
3.52191e-13
3.56309e-13
3.595e-13
3.61762e-13
3.63098e-13
3.63516e-13
3.63028e-13
3.61647e-13
3.59389e-13
3.56276e-13
3.52328e-13
3.47573e-13
3.42036e-13
3.35748e-13
3.28738e-13
3.21041e-13
3.1269e-13
3.0372e-13
2.94169e-13
2.84076e-13
2.73479e-13
2.62419e-13
2.50938e-13
2.39079e-13
2.26885e-13
2.14403e-13
2.01678e-13
1.88759e-13
1.75695e-13
1.62537e-13
1.49338e-13
1.36152e-13
1.23038e-13
1.10053e-13
9.72622e-14
8.47315e-14
7.25328e-14
6.07448e-14
4.94547e-14
3.8763e-14
2.87897e-14
1.96872e-14
1.16668e-14
5.06421e-15
5.6295e-16
7.15393e-16
6.43456e-15
1.48178e-14
2.49885e-14
3.65088e-14
4.90977e-14
6.25467e-14
7.6687e-14
9.13734e-14
1.06476e-13
1.21877e-13
1.37463e-13
1.53132e-13
1.68783e-13
1.84322e-13
1.99659e-13
2.14708e-13
2.2939e-13
2.43628e-13
2.5735e-13
2.70492e-13
2.82991e-13
2.94792e-13
3.05845e-13
3.16105e-13
3.25534e-13
3.34098e-13
3.41769e-13
3.48524e-13
3.54347e-13
3.59226e-13
3.63153e-13
3.66126e-13
3.68148e-13
3.69222e-13
3.69364e-13
3.68585e-13
3.66903e-13
3.64338e-13
3.60912e-13
3.56652e-13
3.51586e-13
3.45743e-13
3.39154e-13
3.31854e-13
3.23876e-13
3.15256e-13
3.06032e-13
2.96241e-13
2.85923e-13
2.75117e-13
2.63864e-13
2.52205e-13
2.40185e-13
2.27845e-13
2.15232e-13
2.0239e-13
1.89367e-13
1.76212e-13
1.62974e-13
1.49705e-13
1.3646e-13
1.23293e-13
1.10265e-13
9.74358e-14
8.48728e-14
7.26467e-14
6.08351e-14
4.95249e-14
3.88159e-14
2.88278e-14
1.97127e-14
1.16816e-14
5.07058e-15
5.63656e-16
7.36643e-16
6.62565e-15
1.52576e-14
2.5729e-14
3.75886e-14
5.05456e-14
6.43845e-14
7.89298e-14
9.40307e-14
1.09552e-13
1.25369e-13
1.41366e-13
1.57433e-13
1.73467e-13
1.89368e-13
2.05042e-13
2.20401e-13
2.3536e-13
2.4984e-13
2.63768e-13
2.77075e-13
2.89698e-13
3.01582e-13
3.12676e-13
3.22935e-13
3.32321e-13
3.40801e-13
3.4835e-13
3.54947e-13
3.60578e-13
3.65233e-13
3.68908e-13
3.71606e-13
3.7333e-13
3.7409e-13
3.73905e-13
3.72789e-13
3.70764e-13
3.67854e-13
3.64085e-13
3.59485e-13
3.54087e-13
3.47922e-13
3.41025e-13
3.33431e-13
3.25177e-13
3.16299e-13
3.06837e-13
2.96828e-13
2.86313e-13
2.75332e-13
2.63925e-13
2.52134e-13
2.40002e-13
2.2757e-13
2.14883e-13
2.01986e-13
1.88923e-13
1.75744e-13
1.62495e-13
1.49228e-13
1.35994e-13
1.22849e-13
1.09848e-13
9.70534e-14
8.45291e-14
7.23448e-14
6.0577e-14
4.93113e-14
3.86463e-14
2.87005e-14
1.9625e-14
1.16294e-14
5.04787e-15
5.61129e-16
7.5742e-16
6.81247e-15
1.56874e-14
2.64528e-14
3.86435e-14
5.19597e-14
6.6178e-14
8.11167e-14
9.66188e-14
1.12543e-13
1.2876e-13
1.45149e-13
1.61593e-13
1.77986e-13
1.94222e-13
2.10204e-13
2.25838e-13
2.41037e-13
2.55719e-13
2.69808e-13
2.83232e-13
2.9593e-13
3.07842e-13
3.18919e-13
3.29117e-13
3.38398e-13
3.46731e-13
3.54093e-13
3.60466e-13
3.65838e-13
3.70205e-13
3.73565e-13
3.75924e-13
3.7729e-13
3.7768e-13
3.77114e-13
3.75612e-13
3.732e-13
3.69904e-13
3.65757e-13
3.6079e-13
3.55038e-13
3.48537e-13
3.41322e-13
3.33432e-13
3.24905e-13
3.1578e-13
3.06097e-13
2.95893e-13
2.85211e-13
2.7409e-13
2.6257e-13
2.50693e-13
2.38499e-13
2.2603e-13
2.13329e-13
2.00439e-13
1.87403e-13
1.74268e-13
1.6108e-13
1.47886e-13
1.34738e-13
1.21687e-13
1.08789e-13
9.61018e-14
8.36888e-14
7.16175e-14
5.99625e-14
4.88074e-14
3.82491e-14
2.84044e-14
1.94219e-14
1.15088e-14
4.99546e-15
5.55301e-16
7.77842e-16
6.9961e-15
1.61099e-14
2.71639e-14
3.96797e-14
5.33478e-14
6.79374e-14
8.32601e-14
9.91525e-14
1.15468e-13
1.3207e-13
1.48833e-13
1.65635e-13
1.82363e-13
1.98909e-13
2.15169e-13
2.31046e-13
2.46448e-13
2.61291e-13
2.75496e-13
2.88989e-13
3.01708e-13
3.13593e-13
3.24593e-13
3.34667e-13
3.43778e-13
3.51897e-13
3.59004e-13
3.65083e-13
3.70128e-13
3.74137e-13
3.77114e-13
3.79069e-13
3.80012e-13
3.79973e-13
3.7897e-13
3.7703e-13
3.74184e-13
3.70464e-13
3.65904e-13
3.6054e-13
3.54412e-13
3.47557e-13
3.40015e-13
3.31827e-13
3.23031e-13
3.1367e-13
3.03782e-13
2.93409e-13
2.82589e-13
2.71365e-13
2.59774e-13
2.47857e-13
2.35654e-13
2.23205e-13
2.10551e-13
1.97732e-13
1.84791e-13
1.7177e-13
1.58714e-13
1.45668e-13
1.3268e-13
1.198e-13
1.07079e-13
9.4575e-14
8.23471e-14
7.04608e-14
5.89882e-14
4.80107e-14
3.76226e-14
2.79379e-14
1.91024e-14
1.13192e-14
4.91313e-15
5.46148e-16
7.98028e-16
7.1776e-15
1.65274e-14
2.78666e-14
4.07031e-14
5.47182e-14
6.96731e-14
8.53726e-14
1.01647e-13
1.18342e-13
1.35317e-13
1.52439e-13
1.69582e-13
1.86625e-13
2.03455e-13
2.19965e-13
2.36052e-13
2.51621e-13
2.66584e-13
2.80858e-13
2.94372e-13
3.07057e-13
3.18855e-13
3.29718e-13
3.39602e-13
3.48475e-13
3.56309e-13
3.63089e-13
3.68802e-13
3.73447e-13
3.77025e-13
3.79548e-13
3.81026e-13
3.81485e-13
3.80953e-13
3.79456e-13
3.77026e-13
3.73697e-13
3.69509e-13
3.64499e-13
3.5871e-13
3.52182e-13
3.44958e-13
3.3708e-13
3.2859e-13
3.19532e-13
3.09946e-13
2.99874e-13
2.89356e-13
2.78432e-13
2.67141e-13
2.55523e-13
2.43616e-13
2.31458e-13
2.19087e-13
2.06542e-13
1.93861e-13
1.81083e-13
1.68248e-13
1.55397e-13
1.42573e-13
1.29821e-13
1.17187e-13
1.0472e-13
9.24735e-14
8.05046e-14
6.88754e-14
5.76551e-14
4.6922e-14
3.67673e-14
2.73017e-14
1.86668e-14
1.1061e-14
4.80098e-15
5.3368e-16
8.181e-16
7.35806e-15
1.69425e-14
2.85651e-14
4.17201e-14
5.60791e-14
7.13956e-14
8.74669e-14
1.04116e-13
1.21184e-13
1.38522e-13
1.5599e-13
1.73456e-13
1.90795e-13
2.07887e-13
2.24619e-13
2.40884e-13
2.56583e-13
2.71624e-13
2.85922e-13
2.99403e-13
3.11998e-13
3.23651e-13
3.3431e-13
3.43937e-13
3.52499e-13
3.59976e-13
3.66353e-13
3.71624e-13
3.75791e-13
3.78864e-13
3.80857e-13
3.81787e-13
3.81696e-13
3.80607e-13
3.78554e-13
3.75578e-13
3.71718e-13
3.67019e-13
3.61524e-13
3.55279e-13
3.48329e-13
3.40721e-13
3.325e-13
3.2371e-13
3.14396e-13
3.046e-13
2.94364e-13
2.83728e-13
2.72734e-13
2.61418e-13
2.49818e-13
2.37971e-13
2.25913e-13
2.1368e-13
2.01308e-13
1.8883e-13
1.76285e-13
1.63707e-13
1.51136e-13
1.38609e-13
1.26168e-13
1.13856e-13
1.01718e-13
8.9804e-14
7.81673e-14
6.68668e-14
5.59678e-14
4.55452e-14
3.56865e-14
2.6498e-14
1.81169e-14
1.0735e-14
4.65946e-15
5.17948e-16
8.38172e-16
7.53852e-15
1.73575e-14
2.92633e-14
4.27364e-14
5.74385e-14
7.31149e-14
8.95554e-14
1.06576e-13
1.2401e-13
1.41702e-13
1.59505e-13
1.77281e-13
1.94898e-13
2.12229e-13
2.29156e-13
2.45567e-13
2.61359e-13
2.76436e-13
2.90711e-13
3.04106e-13
3.16553e-13
3.27995e-13
3.38384e-13
3.47682e-13
3.5586e-13
3.62901e-13
3.68796e-13
3.73545e-13
3.77156e-13
3.79645e-13
3.81027e-13
3.81343e-13
3.80628e-13
3.78915e-13
3.76247e-13
3.7267e-13
3.6823e-13
3.62978e-13
3.56963e-13
3.50234e-13
3.42843e-13
3.34839e-13
3.26269e-13
3.17182e-13
3.07621e-13
2.97632e-13
2.87257e-13
2.76535e-13
2.65506e-13
2.54206e-13
2.42673e-13
2.30939e-13
2.19038e-13
2.07004e-13
1.94867e-13
1.82661e-13
1.70418e-13
1.58169e-13
1.4595e-13
1.33794e-13
1.21739e-13
1.09824e-13
9.80892e-14
8.6581e-14
7.53485e-14
6.44464e-14
5.39362e-14
4.38886e-14
3.43866e-14