/*--------------------------------*- C++ -*----------------------------------*\
  =========                 |
  \\      /  F ield         | OpenFOAM: The Open Source CFD Toolbox
   \\    /   O peration     | Website:  https://openfoam.org
    \\  /    A nd           | Version:  12
     \\/     M anipulation  |
\*---------------------------------------------------------------------------*/
FoamFile
{
    format      ascii;
    class       volScalarField;
    location    "7.5";
    object      nut;
}
// * * * * * * * * * * * * * * * * * * * * * * * * * * * * * * * * * * * * * //

dimensions      [0 2 -1 0 0 0 0];

internalField   nonuniform List<scalar> 
5625
(
4.44089e-21
1.77636e-20
1.77636e-20
1.77636e-20
1.77636e-20
1.77636e-20
1.77636e-20
1.77636e-20
1.77636e-20
1.90466e-20
2.19937e-20
2.4974e-20
2.79518e-20
3.09137e-20
3.38507e-20
3.67536e-20
3.96128e-20
4.24182e-20
4.51595e-20
4.78266e-20
5.04092e-20
5.28976e-20
5.52823e-20
5.75541e-20
5.97046e-20
6.17256e-20
6.36095e-20
6.53493e-20
6.69385e-20
6.83712e-20
6.96423e-20
7.07472e-20
7.16819e-20
7.24431e-20
7.30282e-20
7.34353e-20
7.3663e-20
7.37108e-20
7.35788e-20
7.32677e-20
7.27789e-20
7.21144e-20
7.12769e-20
7.02699e-20
6.90972e-20
6.77634e-20
6.62737e-20
6.46339e-20
6.28501e-20
6.09292e-20
5.88785e-20
5.67057e-20
5.44191e-20
5.20273e-20
4.95392e-20
4.69642e-20
4.43119e-20
4.15919e-20
3.88141e-20
3.59883e-20
3.31238e-20
3.02296e-20
2.73139e-20
2.43853e-20
2.14577e-20
1.85712e-20
1.77636e-20
1.77636e-20
1.77636e-20
1.77636e-20
1.77636e-20
1.77636e-20
1.77636e-20
1.77636e-20
4.44089e-21
4.44089e-21
2.10482e-20
4.6326e-20
1.32942e-19
3.53372e-19
6.96241e-19
1.16419e-18
1.74556e-18
2.39861e-18
3.0266e-18
3.59978e-18
4.1428e-18
4.66963e-18
5.18655e-18
5.6957e-18
6.19718e-18
6.69011e-18
7.17315e-18
7.64474e-18
8.10325e-18
8.54701e-18
8.9744e-18
9.38382e-18
9.77377e-18
1.01428e-17
1.04895e-17
1.08126e-17
1.11109e-17
1.13834e-17
1.1629e-17
1.18469e-17
1.20362e-17
1.21963e-17
1.23267e-17
1.24269e-17
1.24965e-17
1.25354e-17
1.25435e-17
1.25207e-17
1.24673e-17
1.23833e-17
1.22693e-17
1.21256e-17
1.19529e-17
1.17517e-17
1.1523e-17
1.12675e-17
1.09863e-17
1.06803e-17
1.03509e-17
9.99911e-18
9.62636e-18
9.23401e-18
8.82351e-18
8.39637e-18
7.95415e-18
7.49842e-18
7.03078e-18
6.55278e-18
6.06587e-18
5.57124e-18
5.06956e-18
4.56041e-18
4.0411e-18
3.50435e-18
2.93462e-18
2.30574e-18
1.66862e-18
1.10833e-18
6.60494e-19
3.33976e-19
1.25091e-19
4.64497e-20
2.10518e-20
4.44089e-21
4.44089e-21
2.09768e-20
1.77575e-19
9.42729e-19
2.60094e-18
5.13683e-18
8.40863e-18
1.2243e-17
1.64304e-17
2.07345e-17
2.50069e-17
2.92041e-17
3.3323e-17
3.73692e-17
4.13455e-17
4.525e-17
4.90771e-17
5.28182e-17
5.64633e-17
6.00014e-17
6.34211e-17
6.67108e-17
6.98592e-17
7.28553e-17
7.56886e-17
7.83489e-17
8.08268e-17
8.31136e-17
8.52011e-17
8.7082e-17
8.87497e-17
9.01984e-17
9.14233e-17
9.24201e-17
9.31856e-17
9.37173e-17
9.40138e-17
9.40742e-17
9.38988e-17
9.34885e-17
9.28453e-17
9.19717e-17
9.08713e-17
8.95485e-17
8.80083e-17
8.62565e-17
8.42999e-17
8.21456e-17
7.98015e-17
7.72763e-17
7.45791e-17
7.17196e-17
6.87079e-17
6.55546e-17
6.22706e-17
5.88669e-17
5.53545e-17
5.17444e-17
4.80467e-17
4.42708e-17
4.04239e-17
3.65105e-17
3.25306e-17
2.84796e-17
2.43507e-17
2.01475e-17
1.59196e-17
1.18307e-17
8.10631e-18
4.94023e-18
2.49308e-18
8.98161e-19
1.67233e-19
2.10038e-20
4.44089e-21
4.44089e-21
2.76589e-20
5.104e-19
2.46327e-18
6.80748e-18
1.38893e-17
2.35112e-17
3.51815e-17
4.83155e-17
6.23543e-17
7.68551e-17
9.15217e-17
1.06175e-16
1.20707e-16
1.3505e-16
1.49154e-16
1.62976e-16
1.76478e-16
1.89618e-16
2.02357e-16
2.14655e-16
2.26473e-16
2.37772e-16
2.48516e-16
2.58666e-16
2.68191e-16
2.77057e-16
2.85234e-16
2.92695e-16
2.99414e-16
3.05369e-16
3.1054e-16
3.14911e-16
3.18466e-16
3.21196e-16
3.23091e-16
3.24147e-16
3.24361e-16
3.23735e-16
3.22271e-16
3.19977e-16
3.16861e-16
3.12937e-16
3.08219e-16
3.02725e-16
2.96476e-16
2.89493e-16
2.81803e-16
2.73432e-16
2.6441e-16
2.54768e-16
2.4454e-16
2.33759e-16
2.22461e-16
2.10684e-16
1.98464e-16
1.85838e-16
1.72845e-16
1.59521e-16
1.45902e-16
1.32026e-16
1.17929e-16
1.0366e-16
8.92811e-17
7.48991e-17
6.06935e-17
4.69616e-17
3.41433e-17
2.27801e-17
1.34319e-17
6.56645e-18
2.36637e-18
4.86321e-19
2.56711e-20
4.44089e-21
4.44089e-21
7.17777e-20
9.92316e-19
4.45871e-18
1.22242e-17
2.53835e-17
4.41357e-17
6.79498e-17
9.58875e-17
1.26894e-16
1.59996e-16
1.94392e-16
2.2947e-16
2.64777e-16
2.99982e-16
3.34837e-16
3.69147e-16
4.0275e-16
4.35506e-16
4.67291e-16
4.9799e-16
5.27493e-16
5.557e-16
5.82514e-16
6.07843e-16
6.31603e-16
6.53714e-16
6.74101e-16
6.92698e-16
7.09442e-16
7.2428e-16
7.37163e-16
7.4805e-16
7.56907e-16
7.63708e-16
7.68434e-16
7.71071e-16
7.71616e-16
7.70071e-16
7.66444e-16
7.60751e-16
7.53018e-16
7.43272e-16
7.31553e-16
7.17902e-16
7.0237e-16
6.85012e-16
6.65888e-16
6.45066e-16
6.22617e-16
5.98618e-16
5.73149e-16
5.46296e-16
5.18149e-16
4.888e-16
4.58348e-16
4.26894e-16
3.94547e-16
3.61423e-16
3.27653e-16
2.93387e-16
2.58811e-16
2.24164e-16
1.89768e-16
1.56065e-16
1.23658e-16
9.33342e-17
6.60493e-17
4.28289e-17
2.4579e-17
1.1802e-17
4.28529e-18
9.45617e-19
6.68263e-20
4.44089e-21
4.44089e-21
1.47935e-19
1.66086e-18
6.97702e-18
1.87414e-17
3.89594e-17
6.8559e-17
1.07382e-16
1.54464e-16
2.08398e-16
2.67651e-16
3.30772e-16
3.96498e-16
4.63777e-16
5.31756e-16
5.9975e-16
6.672e-16
7.33648e-16
7.98706e-16
8.6204e-16
9.23356e-16
9.82392e-16
1.03891e-15
1.09269e-15
1.14352e-15
1.19124e-15
1.23566e-15
1.27663e-15
1.31401e-15
1.34768e-15
1.37752e-15
1.40344e-15
1.42535e-15
1.44318e-15
1.45689e-15
1.46643e-15
1.47178e-15
1.47292e-15
1.46987e-15
1.46265e-15
1.45128e-15
1.43581e-15
1.4163e-15
1.39283e-15
1.36549e-15
1.33437e-15
1.29959e-15
1.26127e-15
1.21955e-15
1.17456e-15
1.12648e-15
1.07548e-15
1.02173e-15
9.65424e-16
9.06782e-16
8.46027e-16
7.83409e-16
7.19204e-16
6.53728e-16
5.87346e-16
5.20499e-16
4.53719e-16
3.87672e-16
3.23188e-16
2.61298e-16
2.03244e-16
1.50453e-16
1.04428e-16
6.65387e-17
3.77138e-17
1.80797e-17
6.69694e-18
1.58038e-18
1.37922e-19
4.44089e-21
4.44089e-21
2.62956e-19
2.5396e-18
1.00629e-17
2.63804e-17
5.44341e-17
9.6009e-17
1.51583e-16
2.20496e-16
3.01292e-16
3.92078e-16
4.90824e-16
5.95565e-16
7.0451e-16
8.16089e-16
9.28953e-16
1.04195e-15
1.15411e-15
1.26459e-15
1.37266e-15
1.4777e-15
1.57915e-15
1.67652e-15
1.76936e-15
1.85727e-15
1.93989e-15
2.0169e-15
2.088e-15
2.15292e-15
2.21143e-15
2.26333e-15
2.30844e-15
2.3466e-15
2.3777e-15
2.40163e-15
2.41832e-15
2.42774e-15
2.42986e-15
2.42469e-15
2.41226e-15
2.39264e-15
2.3659e-15
2.33215e-15
2.29153e-15
2.24419e-15
2.19032e-15
2.1301e-15
2.06377e-15
1.99158e-15
1.9138e-15
1.83072e-15
1.74268e-15
1.65002e-15
1.55313e-15
1.45244e-15
1.34842e-15
1.24159e-15
1.13255e-15
1.022e-15
9.1072e-16
7.99665e-16
6.89946e-16
5.82877e-16
4.79998e-16
3.83068e-16
2.94022e-16
2.14857e-16
1.47432e-16
9.31612e-17
5.26625e-17
2.5423e-17
9.64523e-18
2.41296e-18
2.45296e-19
4.44089e-21
4.44089e-21
4.20131e-19
3.62663e-18
1.36789e-17
3.50142e-17
7.14925e-17
1.2579e-16
1.99148e-16
2.91433e-16
4.01401e-16
5.27046e-16
6.65945e-16
8.15524e-16
9.73257e-16
1.13678e-15
1.30395e-15
1.47284e-15
1.64179e-15
1.80929e-15
1.97406e-15
2.13495e-15
2.29095e-15
2.44116e-15
2.58477e-15
2.72107e-15
2.84943e-15
2.96926e-15
3.08006e-15
3.18136e-15
3.27277e-15
3.35393e-15
3.42454e-15
3.48435e-15
3.53314e-15
3.57075e-15
3.59706e-15
3.612e-15
3.61553e-15
3.60768e-15
3.58847e-15
3.55802e-15
3.51645e-15
3.46394e-15
3.4007e-15
3.327e-15
3.24313e-15
3.14942e-15
3.04626e-15
2.93405e-15
2.81327e-15
2.68444e-15
2.54811e-15
2.4049e-15
2.25552e-15
2.10072e-15
1.94136e-15
1.77842e-15
1.61298e-15
1.44629e-15
1.27979e-15
1.11511e-15
9.54104e-16
7.98888e-16
6.51785e-16
5.15284e-16
3.91922e-16
2.84086e-16
1.93734e-16
1.22062e-16
6.91534e-17
3.37294e-17
1.31024e-17
3.44336e-18
3.92221e-19
4.44089e-21
4.44089e-21
6.1315e-19
4.8628e-18
1.76266e-17
4.42181e-17
8.94188e-17
1.56825e-16
2.48509e-16
3.6498e-16
5.05371e-16
6.67751e-16
8.49476e-16
1.0475e-15
1.25866e-15
1.47979e-15
1.70793e-15
1.94032e-15
2.17444e-15
2.40802e-15
2.63904e-15
2.86567e-15
3.08631e-15
3.29951e-15
3.50396e-15
3.69852e-15
3.88214e-15
4.05391e-15
4.213e-15
4.35868e-15
4.49031e-15
4.60733e-15
4.70927e-15
4.79571e-15
4.86632e-15
4.92086e-15
4.95912e-15
4.98098e-15
4.98639e-15
4.97538e-15
4.948e-15
4.90438e-15
4.84475e-15
4.76935e-15
4.67853e-15
4.57267e-15
4.45223e-15
4.31774e-15
4.16977e-15
4.009e-15
3.83616e-15
3.65206e-15
3.45761e-15
3.25381e-15
3.04179e-15
2.82278e-15
2.59818e-15
2.36954e-15
2.1386e-15
1.90735e-15
1.67797e-15
1.45292e-15
1.23491e-15
1.02688e-15
8.31928e-16
6.53186e-16
4.93653e-16
3.55921e-16
2.41859e-16
1.52265e-16
8.65664e-17
4.26488e-17
1.69139e-17
4.62857e-18
5.74741e-19
4.44089e-21
4.6068e-21
7.86267e-19
6.00729e-18
2.13847e-17
5.3165e-17
1.07098e-16
1.87724e-16
2.97964e-16
4.39009e-16
6.1044e-16
8.10505e-16
1.03646e-15
1.28493e-15
1.55217e-15
1.83433e-15
2.12763e-15
2.42844e-15
2.73337e-15
3.03929e-15
3.34336e-15
3.64296e-15
3.93575e-15
4.21963e-15
4.49267e-15
4.75319e-15
4.99962e-15
5.23062e-15
5.44495e-15
5.64153e-15
5.81941e-15
5.97775e-15
6.11586e-15
6.23312e-15
6.32904e-15
6.40324e-15
6.45543e-15
6.48543e-15
6.49315e-15
6.47861e-15
6.44189e-15
6.38318e-15
6.30279e-15
6.20108e-15
6.07854e-15
5.93573e-15
5.77331e-15
5.59205e-15
5.3928e-15
5.17655e-15
4.94436e-15
4.69745e-15
4.43717e-15
4.165e-15
3.88259e-15
3.5918e-15
3.29465e-15
2.99342e-15
2.69064e-15
2.38907e-15
2.09179e-15
1.80213e-15
1.52366e-15
1.26012e-15
1.01533e-15
7.92974e-16
5.96373e-16
4.28196e-16
2.90104e-16
1.8242e-16
1.03865e-16
5.14584e-17
2.06614e-17
5.79611e-18
7.58086e-19
4.44724e-21
5.28584e-21
9.06268e-19
6.9314e-18
2.46925e-17
6.14438e-17
1.23948e-16
2.17703e-16
3.46477e-16
5.12144e-16
7.14758e-16
9.52797e-16
1.2235e-15
1.52322e-15
1.84776e-15
2.19262e-15
2.55327e-15
2.92523e-15
3.30424e-15
3.68628e-15
4.06761e-15
4.44479e-15
4.81467e-15
5.17438e-15
5.52133e-15
5.85315e-15
6.16774e-15
6.46318e-15
6.73777e-15
6.99002e-15
7.21859e-15
7.42231e-15
7.60021e-15
7.75143e-15
7.87528e-15
7.97123e-15
8.03886e-15
8.07791e-15
8.08825e-15
8.06992e-15
8.02298e-15
7.94772e-15
7.84452e-15
7.71392e-15
7.55655e-15
7.37319e-15
7.16475e-15
6.93228e-15
6.67698e-15
6.40019e-15
6.10341e-15
5.78832e-15
5.45679e-15
5.11086e-15
4.75283e-15
4.38523e-15
4.01082e-15
3.63269e-15
3.25419e-15
2.87898e-15
2.51101e-15
2.15451e-15
1.8139e-15
1.49367e-15
1.19827e-15
9.31849e-16
6.97963e-16
4.99271e-16
3.37168e-16
2.11468e-16
1.20183e-16
5.94789e-17
2.38694e-17
6.69322e-18
8.74528e-19
5.09917e-21
5.94125e-21
1.01899e-18
7.80038e-18
2.78267e-17
6.93631e-17
1.40209e-16
2.46841e-16
3.93883e-16
5.839e-16
8.17428e-16
1.0932e-15
1.40848e-15
1.75941e-15
2.14137e-15
2.54932e-15
2.97799e-15
3.42212e-15
3.87657e-15
4.33644e-15
4.7971e-15
5.25423e-15
5.70385e-15
6.14229e-15
6.56618e-15
6.97247e-15
7.3584e-15
7.72148e-15
8.05948e-15
8.37039e-15
8.65247e-15
8.90418e-15
9.1242e-15
9.31142e-15
9.46491e-15
9.58395e-15
9.66799e-15
9.71668e-15
9.72982e-15
9.70745e-15
9.64967e-15
9.55683e-15
9.42944e-15
9.26817e-15
9.07388e-15
8.84757e-15
8.59044e-15
8.30388e-15
7.98946e-15
7.64893e-15
7.28429e-15
6.89773e-15
6.4917e-15
6.06889e-15
5.63227e-15
5.18513e-15
4.73103e-15
4.27388e-15
3.81791e-15
3.36769e-15
2.92805e-15
2.50409e-15
2.10102e-15
1.72407e-15
1.37823e-15
1.06805e-15
7.97253e-16
5.68444e-16
3.82721e-16
2.39378e-16
1.35711e-16
6.7018e-17
2.68441e-17
7.51562e-18
9.80967e-19
5.71727e-21
6.5856e-21
1.12962e-18
8.65126e-18
3.08895e-17
7.70957e-17
1.5609e-16
2.75319e-16
4.40262e-16
6.54169e-16
9.18067e-16
1.23096e-15
1.59014e-15
1.9916e-15
2.43035e-15
2.90081e-15
3.39706e-15
3.91307e-15
4.44287e-15
4.9807e-15
5.52105e-15
6.05872e-15
6.58885e-15
7.10698e-15
7.60894e-15
8.09096e-15
8.54959e-15
8.98171e-15
9.3845e-15
9.75548e-15
1.00924e-14
1.03933e-14
1.06566e-14
1.08808e-14
1.10647e-14
1.12075e-14
1.13084e-14
1.13669e-14
1.13828e-14
1.13562e-14
1.12872e-14
1.11761e-14
1.10237e-14
1.08307e-14
1.05984e-14
1.03278e-14
1.00206e-14
9.6784e-15
9.3033e-15
8.8975e-15
8.46347e-15
8.00398e-15
7.52211e-15
7.02122e-15
6.50502e-15
5.97753e-15
5.44317e-15
4.90669e-15
4.37321e-15
3.84817e-15
3.33729e-15
2.84648e-15
2.38173e-15
1.94891e-15
1.55355e-15
1.2005e-15
8.93628e-16
6.35454e-16
4.26756e-16
2.66297e-16
1.50657e-16
7.42651e-17
2.97038e-17
8.30768e-18
1.08375e-18
6.31551e-21
7.2206e-21
1.23864e-18
9.48909e-18
3.3901e-17
8.46869e-17
1.71659e-16
3.03207e-16
4.85642e-16
7.22887e-16
1.01645e-15
1.36559e-15
1.76768e-15
2.21855e-15
2.71288e-15
3.24461e-15
3.80718e-15
4.39384e-15
4.99784e-15
5.61257e-15
6.23164e-15
6.84902e-15
7.45899e-15
8.05625e-15
8.63586e-15
9.1933e-15
9.72442e-15
1.02255e-14
1.0693e-14
1.1124e-14
1.15158e-14
1.18661e-14
1.21726e-14
1.24338e-14
1.26482e-14
1.28146e-14
1.29322e-14
1.30005e-14
1.3019e-14
1.29879e-14
1.29073e-14
1.27776e-14
1.25998e-14
1.23748e-14
1.21039e-14
1.17887e-14
1.1431e-14
1.10329e-14
1.05969e-14
1.01256e-14
9.62218e-15
9.08987e-15
8.53239e-15
7.95383e-15
7.3586e-15
6.75155e-15
6.13788e-15
5.5232e-15
4.91349e-15
4.31505e-15
3.73444e-15
3.17837e-15
2.65353e-15
2.16641e-15
1.72298e-15
1.3284e-15
9.86634e-16
7.0009e-16
4.69218e-16
2.92256e-16
1.65075e-16
8.12619e-17
3.24681e-17
9.07431e-18
1.18331e-18
6.89491e-21
7.84509e-21
1.34585e-18
1.03127e-17
3.68586e-17
9.21333e-17
1.8691e-16
3.30488e-16
5.29978e-16
7.89946e-16
1.11236e-15
1.49674e-15
1.94052e-15
2.43938e-15
2.98772e-15
3.57898e-15
4.20603e-15
4.86144e-15
5.53769e-15
6.22735e-15
6.92323e-15
7.61842e-15
8.30641e-15
8.98106e-15
9.63667e-15
1.0268e-14
1.08701e-14
1.14387e-14
1.19698e-14
1.24597e-14
1.29053e-14
1.33038e-14
1.36528e-14
1.39502e-14
1.41943e-14
1.43837e-14
1.45175e-14
1.45949e-14
1.46156e-14
1.45797e-14
1.44873e-14
1.4339e-14
1.41357e-14
1.38787e-14
1.35695e-14
1.321e-14
1.28023e-14
1.2349e-14
1.18529e-14
1.13172e-14
1.07455e-14
1.01416e-14
9.51008e-15
8.85553e-15
8.18315e-15
7.49853e-15
6.8077e-15
6.11709e-15
5.43349e-15
4.76404e-15
4.11608e-15
3.49708e-15
2.91439e-15
2.37506e-15
1.88546e-15
1.45103e-15
1.07581e-15
7.62078e-16
5.09957e-16
3.17176e-16
1.78927e-16
8.79897e-17
3.51283e-17
9.81249e-18
1.27918e-18
7.45285e-21
8.45725e-21
1.45094e-18
1.11197e-17
3.97547e-17
9.94175e-17
2.01812e-16
3.57109e-16
5.73183e-16
8.5521e-16
1.20559e-15
1.62408e-15
2.10818e-15
2.65342e-15
3.2539e-15
3.90264e-15
4.59193e-15
5.31368e-15
6.05966e-15
6.82165e-15
7.59167e-15
8.362e-15
9.12532e-15
9.87471e-15
1.06037e-14
1.13064e-14
1.19771e-14
1.26109e-14
1.32033e-14
1.375e-14
1.42474e-14
1.46924e-14
1.5082e-14
1.54141e-14
1.56865e-14
1.58978e-14
1.60467e-14
1.61325e-14
1.61548e-14
1.61136e-14
1.60092e-14
1.58422e-14
1.56137e-14
1.53252e-14
1.49784e-14
1.45756e-14
1.41191e-14
1.36119e-14
1.30573e-14
1.24591e-14
1.18212e-14
1.11482e-14
1.0445e-14
9.71723e-15
8.97057e-15
8.2114e-15
7.44652e-15
6.68314e-15
5.92884e-15
5.19152e-15
4.4793e-15
3.8003e-15
3.16251e-15
2.57349e-15
2.03999e-15
1.56768e-15
1.16067e-15
8.21083e-16
5.48757e-16
3.40924e-16
1.92136e-16
9.44094e-17
3.7668e-17
1.05174e-17
1.37075e-18
7.98564e-21
9.05526e-21
1.55358e-18
1.19076e-17
4.25808e-17
1.0652e-16
2.16326e-16
3.83008e-16
6.15162e-16
9.18538e-16
1.29593e-15
1.74734e-15
2.27026e-15
2.86013e-15
3.51072e-15
4.21463e-15
4.96362e-15
5.74898e-15
6.56174e-15
7.39299e-15
8.23394e-15
9.07613e-15
9.91145e-15
1.07322e-14
1.15313e-14
1.2302e-14
1.30381e-14
1.3734e-14
1.43845e-14
1.49851e-14
1.55317e-14
1.60205e-14
1.64485e-14
1.68131e-14
1.71119e-14
1.73433e-14
1.7506e-14
1.7599e-14
1.7622e-14
1.7575e-14
1.74583e-14
1.72727e-14
1.70194e-14
1.67001e-14
1.63168e-14
1.5872e-14
1.53684e-14
1.48094e-14
1.41987e-14
1.35404e-14
1.28392e-14
1.21002e-14
1.13289e-14
1.05313e-14
9.71406e-15
8.88416e-15
8.04911e-15
7.21685e-15
6.39572e-15
5.59432e-15
4.82146e-15
4.08591e-15
3.39622e-15
2.7604e-15
2.18558e-15
1.67761e-15
1.24066e-15
8.76735e-16
5.8537e-16
3.63345e-16
2.04613e-16
1.00476e-16
4.00686e-17
1.11838e-17
1.45731e-18
8.48932e-21
9.63754e-21
1.65352e-18
1.26745e-17
4.53298e-17
1.13423e-16
2.30419e-16
4.08127e-16
6.55828e-16
9.79807e-16
1.38323e-15
1.86627e-15
2.42647e-15
3.05908e-15
3.75762e-15
4.51425e-15
5.3202e-15
6.16614e-15
7.04247e-15
7.93953e-15
8.84783e-15
9.75814e-15
1.06616e-14
1.15499e-14
1.24151e-14
1.32499e-14
1.40475e-14
1.48017e-14
1.55068e-14
1.61577e-14
1.675e-14
1.72795e-14
1.77429e-14
1.81372e-14
1.84601e-14
1.87095e-14
1.88841e-14
1.8983e-14
1.90056e-14
1.89521e-14
1.88228e-14
1.86187e-14
1.83411e-14
1.79919e-14
1.75733e-14
1.70881e-14
1.65395e-14
1.59312e-14
1.52671e-14
1.45521e-14
1.37911e-14
1.29898e-14
1.21542e-14
1.12912e-14
1.04077e-14
9.51154e-15
8.61084e-15
7.71422e-15
6.83068e-15
5.96952e-15
5.14014e-15
4.35191e-15
3.61389e-15
2.93451e-15
2.32123e-15
1.78007e-15
1.31524e-15
9.28645e-16
6.19536e-16
3.84277e-16
2.16265e-16
1.06143e-16
4.23114e-17
1.18065e-17
1.53818e-18
8.95986e-21
1.02028e-20
1.75052e-18
1.34187e-17
4.79958e-17
1.20113e-16
2.44065e-16
4.32421e-16
6.95111e-16
1.03892e-15
1.46733e-15
1.98071e-15
2.57655e-15
3.24999e-15
3.99422e-15
4.80098e-15
5.661e-15
6.56436e-15
7.5008e-15
8.45999e-15
9.43172e-15
1.04061e-14
1.13735e-14
1.2325e-14
1.32519e-14
1.41464e-14
1.50011e-14
1.58093e-14
1.65647e-14
1.72619e-14
1.78959e-14
1.84625e-14
1.89578e-14
1.93787e-14
1.97227e-14
1.99876e-14
2.01721e-14
2.02749e-14
2.02959e-14
2.0235e-14
2.00927e-14
1.987e-14
1.95686e-14
1.91905e-14
1.87381e-14
1.82146e-14
1.76234e-14
1.69684e-14
1.62543e-14
1.54861e-14
1.46693e-14
1.38099e-14
1.29148e-14
1.19909e-14
1.10462e-14
1.00888e-14
9.12746e-15
8.17151e-15
7.23052e-15
6.31436e-15
5.43302e-15
4.59638e-15
3.81396e-15
3.09458e-15
2.44596e-15
1.87431e-15
1.38387e-15
9.76421e-16
6.50991e-16
4.03553e-16
2.26999e-16
1.11363e-16
4.43776e-17
1.23801e-17
1.61268e-18
9.39331e-21
1.07503e-20
1.84445e-18
1.4139e-17
5.05749e-17
1.2658e-16
2.57243e-16
4.5586e-16
7.32965e-16
1.0958e-15
1.54817e-15
2.09053e-15
2.72038e-15
3.43266e-15
4.22026e-15
5.07451e-15
5.98561e-15
6.94308e-15
7.93603e-15
8.95346e-15
9.98451e-15
1.10186e-14
1.20454e-14
1.30554e-14
1.40394e-14
1.49888e-14
1.58958e-14
1.67531e-14
1.75541e-14
1.8293e-14
1.89644e-14
1.95638e-14
2.00871e-14
2.0531e-14
2.08929e-14
2.11704e-14
2.13621e-14
2.1467e-14
2.14847e-14
2.14153e-14
2.12594e-14
2.10182e-14
2.06935e-14
2.02875e-14
1.98029e-14
1.92431e-14
1.86118e-14
1.79134e-14
1.71528e-14
1.63353e-14
1.5467e-14
1.45544e-14
1.36046e-14
1.26252e-14
1.16245e-14
1.06114e-14
9.59503e-15
8.58525e-15
7.59218e-15
6.62623e-15
5.69787e-15
4.81745e-15
3.9949e-15
3.23935e-15
2.5588e-15
1.95959e-15
1.44598e-15
1.01967e-15
6.79475e-16
4.21012e-16
2.36721e-16
1.16092e-16
4.62493e-17
1.28996e-17
1.68015e-18
9.78581e-21
1.12793e-20
1.93522e-18
1.48347e-17
5.30649e-17
1.32819e-16
2.69945e-16
4.78428e-16
7.69369e-16
1.15044e-15
1.62569e-15
2.1957e-15
2.85789e-15
3.60702e-15
4.43566e-15
5.33469e-15
6.29384e-15
7.30204e-15
8.34778e-15
9.41943e-15
1.05055e-14
1.15947e-14
1.26762e-14
1.37398e-14
1.47757e-14
1.57749e-14
1.67289e-14
1.76302e-14
1.84718e-14
1.92473e-14
1.99513e-14
2.05789e-14
2.11259e-14
2.15888e-14
2.19648e-14
2.22517e-14
2.24479e-14
2.25525e-14
2.25651e-14
2.24858e-14
2.23156e-14
2.20558e-14
2.17081e-14
2.12752e-14
2.07601e-14
2.01662e-14
1.94976e-14
1.8759e-14
1.79557e-14
1.70933e-14
1.61782e-14
1.52174e-14
1.42183e-14
1.3189e-14
1.21382e-14
1.10753e-14
1.00098e-14
8.95209e-15
7.91274e-15
6.90258e-15
5.93252e-15
5.01331e-15
4.1552e-15
3.36763e-15
2.65879e-15
2.03517e-15
1.50103e-15
1.05802e-15
7.04733e-16
4.36494e-16
2.45342e-16
1.20286e-16
4.79087e-17
1.33602e-17
1.73995e-18
1.01336e-20
1.17899e-20
2.0228e-18
1.55059e-17
5.54655e-17
1.38829e-16
2.82172e-16
5.00126e-16
8.04329e-16
1.20283e-15
1.69992e-15
2.29624e-15
2.98913e-15
3.77312e-15
4.64045e-15
5.58157e-15
6.5857e-15
7.64118e-15
8.73593e-15
9.85769e-15
1.09943e-14
1.2134e-14
1.32652e-14
1.43772e-14
1.54597e-14
1.65032e-14
1.74988e-14
1.84386e-14
1.93152e-14
2.0122e-14
2.08533e-14
2.15041e-14
2.207e-14
2.25475e-14
2.29336e-14
2.32262e-14
2.34238e-14
2.35254e-14
2.35307e-14
2.34402e-14
2.32548e-14
2.2976e-14
2.26058e-14
2.21471e-14
2.16029e-14
2.09772e-14
2.02742e-14
1.94989e-14
1.86568e-14
1.7754e-14
1.67971e-14
1.57934e-14
1.47508e-14
1.36776e-14
1.25829e-14
1.14764e-14
1.03682e-14
9.26886e-15
8.18939e-15
7.14098e-15
6.13489e-15
5.18218e-15
4.2934e-15
3.47822e-15
2.745e-15
2.10033e-15
1.54851e-15
1.0911e-15
7.26516e-16
4.49846e-16
2.52777e-16
1.23901e-16
4.93391e-17
1.3757e-17
1.79147e-18
1.04333e-20
1.22823e-20
2.10725e-18
1.61528e-17
5.77781e-17
1.44615e-16
2.93931e-16
5.20974e-16
8.37876e-16
1.25304e-15
1.77094e-15
2.39225e-15
3.11422e-15
3.93112e-15
4.83482e-15
5.81535e-15
6.86137e-15
7.96069e-15
9.10062e-15
1.02683e-14
1.1451e-14
1.26362e-14
1.3812e-14
1.49671e-14
1.60906e-14
1.71727e-14
1.82041e-14
1.91765e-14
2.00822e-14
2.09146e-14
2.16676e-14
2.23362e-14
2.29159e-14
2.34031e-14
2.3795e-14
2.40894e-14
2.42848e-14
2.43805e-14
2.43763e-14
2.42728e-14
2.40711e-14
2.37728e-14
2.33804e-14
2.28967e-14
2.23252e-14
2.167e-14
2.09355e-14
2.01271e-14
1.92505e-14
1.8312e-14
1.73185e-14
1.62776e-14
1.51973e-14
1.40865e-14
1.29545e-14
1.18111e-14
1.06668e-14
9.53251e-15
8.41943e-15
7.33906e-15
6.30294e-15
5.32236e-15
4.40809e-15
3.56998e-15
2.81653e-15
2.15441e-15
1.58791e-15
1.11854e-15
7.44589e-16
4.60923e-16
2.58944e-16
1.26899e-16
5.05247e-17
1.40858e-17
1.83413e-18
1.06814e-20
1.27573e-20
2.18869e-18
1.67765e-17
6.00063e-17
1.50186e-16
3.05243e-16
5.41007e-16
8.70069e-16
1.30115e-15
1.83887e-15
2.48393e-15
3.2334e-15
4.08129e-15
5.0191e-15
6.03637e-15
7.12125e-15
8.26096e-15
9.44223e-15
1.06516e-14
1.18757e-14
1.31016e-14
1.43167e-14
1.55092e-14
1.6668e-14
1.77827e-14
1.88438e-14
1.98426e-14
2.07714e-14
2.16232e-14
2.2392e-14
2.30726e-14
2.36606e-14
2.41524e-14
2.45453e-14
2.48371e-14
2.50265e-14
2.51131e-14
2.50968e-14
2.49783e-14
2.4759e-14
2.44408e-14
2.40263e-14
2.35186e-14
2.29213e-14
2.22388e-14
2.1476e-14
2.06381e-14
1.97312e-14
1.87619e-14
1.77372e-14
1.6665e-14
1.55535e-14
1.44117e-14
1.32491e-14
1.20758e-14
1.09025e-14
9.74014e-15
8.6003e-15
7.49461e-15
6.43477e-15
5.43223e-15
4.49793e-15
3.64183e-15
2.87253e-15
2.19673e-15
1.61874e-15
1.14001e-15
7.58729e-16
4.69586e-16
2.63765e-16
1.29242e-16
5.14506e-17
1.43425e-17
1.86741e-18
1.08748e-20
1.32157e-20
2.2673e-18
1.73782e-17
6.21551e-17
1.55555e-16
3.16135e-16
5.60274e-16
9.00992e-16
1.34728e-15
1.9039e-15
2.57149e-15
3.34696e-15
4.22401e-15
5.19372e-15
6.24515e-15
7.36588e-15
8.54256e-15
9.76131e-15
1.10081e-14
1.2269e-14
1.35304e-14
1.47794e-14
1.60037e-14
1.71917e-14
1.83328e-14
1.94172e-14
2.0436e-14
2.13814e-14
2.22462e-14
2.30245e-14
2.3711e-14
2.43015e-14
2.47924e-14
2.51812e-14
2.54658e-14
2.56452e-14
2.57191e-14
2.56878e-14
2.55522e-14
2.53139e-14
2.4975e-14
2.45384e-14
2.40074e-14
2.3386e-14
2.26786e-14
2.18904e-14
2.10268e-14
2.00942e-14
1.90991e-14
1.80488e-14
1.69514e-14
1.58151e-14
1.46491e-14
1.34631e-14
1.22672e-14
1.10721e-14
9.88906e-15
8.72962e-15
7.60552e-15
6.52856e-15
5.51028e-15
4.56166e-15
3.69276e-15
2.91219e-15
2.22668e-15
1.64055e-15
1.1552e-15
7.68727e-16
4.75709e-16
2.6717e-16
1.30895e-16
5.21031e-17
1.45231e-17
1.89081e-18
1.10108e-20
1.36591e-20
2.3433e-18
1.79598e-17
6.42314e-17
1.6074e-16
3.26644e-16
5.78844e-16
9.30753e-16
1.39161e-15
1.96626e-15
2.65526e-15
3.45531e-15
4.35977e-15
5.35926e-15
6.44232e-15
7.59596e-15
8.80621e-15
1.00586e-14
1.13385e-14
1.26314e-14
1.39233e-14
1.52006e-14
1.64508e-14
1.76619e-14
1.88229e-14
1.9924e-14
2.09561e-14
2.19112e-14
2.27823e-14
2.35635e-14
2.42495e-14
2.48362e-14
2.53204e-14
2.56996e-14
2.59721e-14
2.61371e-14
2.61947e-14
2.61453e-14
2.59902e-14
2.57312e-14
2.53708e-14
2.4912e-14
2.43586e-14
2.37146e-14
2.29847e-14
2.21741e-14
2.12888e-14
2.03348e-14
1.93191e-14
1.82491e-14
1.71327e-14
1.59784e-14
1.47954e-14
1.35932e-14
1.23822e-14
1.1173e-14
9.97682e-15
8.8052e-15
7.6699e-15
6.58268e-15
5.5551e-15
4.59813e-15
3.72182e-15
2.93478e-15
2.24372e-15
1.65295e-15
1.16382e-15
7.74397e-16
4.79177e-16
2.69095e-16
1.31827e-16
5.24702e-17
1.46245e-17
1.90391e-18
1.10868e-20
1.4089e-20
2.417e-18
1.85237e-17
6.62434e-17
1.6576e-16
3.36813e-16
5.96793e-16
9.59481e-16
1.43433e-15
2.02621e-15
2.7356e-15
3.55891e-15
4.48912e-15
5.51637e-15
6.62862e-15
7.81229e-15
9.05277e-15
1.0335e-14
1.16437e-14
1.29638e-14
1.42809e-14
1.5581e-14
1.68509e-14
1.80787e-14
1.92531e-14
2.03639e-14
2.14023e-14
2.23601e-14
2.32305e-14
2.40075e-14
2.46862e-14
2.52627e-14
2.5734e-14
2.6098e-14
2.6353e-14
2.64991e-14
2.65364e-14
2.64657e-14
2.62885e-14
2.60071e-14
2.56242e-14
2.51432e-14
2.45679e-14
2.39028e-14
2.31528e-14
2.23231e-14
2.14198e-14
2.04493e-14
1.94183e-14
1.83345e-14
1.72056e-14
1.60402e-14
1.48474e-14
1.36367e-14
1.24183e-14
1.12028e-14
1.00013e-14
8.82513e-15
7.68606e-15
6.59569e-15
5.56548e-15
4.60633e-15
3.7282e-15
2.93966e-15
2.24736e-15
1.65557e-15
1.16563e-15
7.75576e-16
4.7989e-16
2.69485e-16
1.32012e-16
5.25416e-17
1.46437e-17
1.90634e-18
1.11007e-20
1.45075e-20
2.48873e-18
1.90724e-17
6.82006e-17
1.70642e-16
3.46693e-16
6.14216e-16
9.87324e-16
1.47565e-15
2.08408e-15
2.81292e-15
3.65828e-15
4.6127e-15
5.66577e-15
6.80487e-15
8.01577e-15
9.28319e-15
1.05914e-14
1.19246e-14
1.32672e-14
1.46041e-14
1.5921e-14
1.72046e-14
1.84425e-14
1.96233e-14
2.07368e-14
2.17741e-14
2.27273e-14
2.35896e-14
2.43552e-14
2.50196e-14
2.55791e-14
2.60312e-14
2.63739e-14
2.66061e-14
2.67285e-14
2.67413e-14
2.66457e-14
2.64438e-14
2.61381e-14
2.57317e-14
2.52282e-14
2.46318e-14
2.39471e-14
2.31793e-14
2.23338e-14
2.14166e-14
2.04342e-14
1.93935e-14
1.83018e-14
1.71671e-14
1.59977e-14
1.48026e-14
1.35912e-14
1.23733e-14
1.11596e-14
9.96069e-15
8.78793e-15
7.6527e-15
6.56647e-15
5.54049e-15
4.5855e-15
3.7113e-15
2.92634e-15
2.23723e-15
1.64815e-15
1.16044e-15
7.72142e-16
4.77775e-16
2.683e-16
1.31431e-16
5.23096e-17
1.45787e-17
1.89782e-18
1.10509e-20
1.49167e-20
2.55885e-18
1.96088e-17
7.01137e-17
1.75412e-16
3.56341e-16
6.3121e-16
1.01445e-15
1.51582e-15
2.14019e-15
2.88766e-15
3.75397e-15
4.73117e-15
5.80826e-15
6.97196e-15
8.20734e-15
9.49844e-15
1.08289e-14
1.21822e-14
1.35423e-14
1.48936e-14
1.62216e-14
1.75124e-14
1.87535e-14
1.99337e-14
2.10426e-14
2.20713e-14
2.30122e-14
2.38587e-14
2.46055e-14
2.52483e-14
2.57838e-14
2.621e-14
2.6525e-14
2.67291e-14
2.68228e-14
2.68067e-14
2.66828e-14
2.64533e-14
2.61214e-14
2.56904e-14
2.51643e-14
2.45476e-14
2.3845e-14
2.30619e-14
2.22038e-14
2.12768e-14
2.02874e-14
1.92424e-14
1.81491e-14
1.70153e-14
1.58491e-14
1.46592e-14
1.34549e-14
1.22457e-14
1.10418e-14
9.85372e-15
8.69232e-15
7.56871e-15
6.49403e-15
5.47928e-15
4.5349e-15
3.67051e-15
2.89437e-15
2.21297e-15
1.63042e-15
1.14807e-15
7.63979e-16
4.72761e-16
2.65501e-16
1.30066e-16
5.17673e-17
1.44276e-17
1.87813e-18
1.09361e-20
1.53189e-20
2.62778e-18
2.0136e-17
7.19939e-17
1.80099e-16
3.65816e-16
6.47885e-16
1.04102e-15
1.5551e-15
2.19491e-15
2.96029e-15
3.84658e-15
4.84524e-15
5.94463e-15
7.13076e-15
8.38795e-15
9.69951e-15
1.10483e-14
1.24174e-14
1.37901e-14
1.51503e-14
1.64831e-14
1.77746e-14
1.90121e-14
2.01843e-14
2.12809e-14
2.22934e-14
2.32141e-14
2.40371e-14
2.47573e-14
2.53709e-14
2.58753e-14
2.62687e-14
2.65498e-14
2.67201e-14
2.67798e-14
2.67306e-14
2.65748e-14
2.63152e-14
2.59552e-14
2.54986e-14
2.49499e-14
2.43136e-14
2.35947e-14
2.27988e-14
2.19315e-14
2.09988e-14
2.00073e-14
1.89636e-14
1.7875e-14
1.67488e-14
1.55931e-14
1.44162e-14
1.32269e-14
1.20346e-14
1.08488e-14
9.67965e-15
8.53769e-15
7.43353e-15
6.37792e-15
5.38144e-15
4.45422e-15
3.60557e-15
2.84353e-15
2.17442e-15
1.60228e-15
1.12843e-15
7.51034e-16
4.64817e-16
2.61072e-16
1.27908e-16
5.09119e-17
1.41896e-17
1.84718e-18
1.07558e-20
1.57164e-20
2.69592e-18
2.06573e-17
7.3853e-17
1.84733e-16
3.7518e-16
6.64351e-16
1.06722e-15
1.59375e-15
2.2486e-15
3.0313e-15
3.93668e-15
4.95559e-15
6.07567e-15
7.28213e-15
8.55849e-15
9.88731e-15
1.12507e-14
1.26311e-14
1.40112e-14
1.53747e-14
1.67062e-14
1.79917e-14
1.92184e-14
2.0375e-14
2.14516e-14
2.24397e-14
2.33324e-14
2.41237e-14
2.48095e-14
2.53863e-14
2.58523e-14
2.62056e-14
2.6447e-14
2.65777e-14
2.65986e-14
2.6512e-14
2.63208e-14
2.60283e-14
2.56384e-14
2.51554e-14
2.45839e-14
2.39289e-14
2.31955e-14
2.23894e-14
2.15163e-14
2.05823e-14
1.95937e-14
1.85571e-14
1.74794e-14
1.63678e-14
1.52299e-14
1.40736e-14
1.29074e-14
1.17399e-14
1.05805e-14
9.43855e-15
8.32408e-15
7.24721e-15
6.21814e-15
5.24698e-15
4.34345e-15
3.51648e-15
2.77382e-15
2.12158e-15
1.56372e-15
1.10154e-15
7.33307e-16
4.53945e-16
2.55014e-16
1.2496e-16
4.9744e-17
1.38651e-17
1.80499e-18
1.05103e-20
1.61117e-20
2.76368e-18
2.11758e-17
7.57026e-17
1.89344e-16
3.84495e-16
6.80718e-16
1.09323e-15
1.63203e-15
2.30162e-15
3.10112e-15
4.02483e-15
5.06288e-15
6.2021e-15
7.42684e-15
8.71977e-15
1.00626e-14
1.14368e-14
1.28239e-14
1.42064e-14
1.55673e-14
1.68911e-14
1.81636e-14
1.93721e-14
2.05055e-14
2.15541e-14
2.25098e-14
2.33661e-14
2.41178e-14
2.47611e-14
2.52936e-14
2.57136e-14
2.60201e-14
2.62158e-14
2.63011e-14
2.62783e-14
2.61501e-14
2.59202e-14
2.55924e-14
2.5171e-14
2.46608e-14
2.40667e-14
2.3394e-14
2.26481e-14
2.18347e-14
2.09595e-14
2.00285e-14
1.9048e-14
1.80242e-14
1.69637e-14
1.58736e-14
1.47607e-14
1.36328e-14
1.24974e-14
1.1363e-14
1.0238e-14
9.1313e-15
8.05228e-15
7.01039e-15
6.01525e-15
5.07635e-15
4.20295e-15
3.4035e-15
2.68543e-15
2.0546e-15
1.51484e-15
1.06746e-15
7.10852e-16
4.40179e-16
2.47347e-16
1.21231e-16
4.8268e-17
1.34553e-17
1.75175e-18
1.02004e-20
1.6507e-20
2.83145e-18
2.16945e-17
7.75541e-17
1.93961e-16
3.9382e-16
6.97092e-16
1.11921e-15
1.67019e-15
2.35428e-15
3.17019e-15
4.11154e-15
5.16768e-15
6.32455e-15
7.56554e-15
8.87242e-15
1.0226e-14
1.1607e-14
1.29963e-14
1.43757e-14
1.5728e-14
1.70376e-14
1.82901e-14
1.9473e-14
2.05752e-14
2.15877e-14
2.25028e-14
2.33145e-14
2.40184e-14
2.46114e-14
2.50918e-14
2.5458e-14
2.57122e-14
2.58557e-14
2.58903e-14
2.5819e-14
2.56455e-14
2.53738e-14
2.50084e-14
2.45543e-14
2.40165e-14
2.34004e-14
2.27114e-14
2.19552e-14
2.11374e-14
2.02639e-14
1.93405e-14
1.83731e-14
1.73679e-14
1.63311e-14
1.52691e-14
1.41886e-14
1.30964e-14
1.19997e-14
1.09061e-14
9.82337e-15
8.75982e-15
7.72394e-15
6.72451e-15
5.77045e-15
4.87055e-15
4.03352e-15
3.2673e-15
2.57888e-15
1.97386e-15
1.45592e-15