/*--------------------------------*- C++ -*----------------------------------*\
  =========                 |
  \\      /  F ield         | OpenFOAM: The Open Source CFD Toolbox
   \\    /   O peration     | Website:  https://openfoam.org
    \\  /    A nd           | Version:  12
     \\/     M anipulation  |
\*---------------------------------------------------------------------------*/
FoamFile
{
    format      ascii;
    class       volScalarField;
    location    "9.5";
    object      epsilon;
}
// * * * * * * * * * * * * * * * * * * * * * * * * * * * * * * * * * * * * * //

dimensions      [0 2 -3 0 0 0 0];

internalField   nonuniform List<scalar> 
18225
(
1.0893e-09
2.0577e-09
4.36678e-09
7.13227e-09
1.02618e-08
1.36881e-08
1.73646e-08
2.1258e-08
2.53426e-08
2.95984e-08
3.40083e-08
3.85578e-08
4.32342e-08
4.8026e-08
5.29226e-08
5.79147e-08
6.29929e-08
6.81491e-08
7.33749e-08
7.86627e-08
8.40051e-08
8.93948e-08
9.48249e-08
1.00288e-07
1.05779e-07
1.11289e-07
1.16813e-07
1.22344e-07
1.27877e-07
1.33404e-07
1.38919e-07
1.44417e-07
1.49891e-07
1.55336e-07
1.60744e-07
1.66111e-07
1.71431e-07
1.76697e-07
1.81905e-07
1.87047e-07
1.92119e-07
1.97115e-07
2.02029e-07
2.06856e-07
2.11591e-07
2.16228e-07
2.20761e-07
2.25186e-07
2.29497e-07
2.33689e-07
2.37757e-07
2.41696e-07
2.45502e-07
2.49169e-07
2.52693e-07
2.56068e-07
2.59291e-07
2.62358e-07
2.65262e-07
2.68001e-07
2.7057e-07
2.72965e-07
2.75182e-07
2.77217e-07
2.79067e-07
2.80727e-07
2.82195e-07
2.83466e-07
2.84539e-07
2.85409e-07
2.86074e-07
2.86532e-07
2.86779e-07
2.86813e-07
2.86632e-07
2.86234e-07
2.85618e-07
2.84782e-07
2.83725e-07
2.82445e-07
2.80943e-07
2.79217e-07
2.77268e-07
2.75096e-07
2.72701e-07
2.70084e-07
2.67247e-07
2.6419e-07
2.60916e-07
2.57428e-07
2.53727e-07
2.49816e-07
2.457e-07
2.41382e-07
2.36866e-07
2.32157e-07
2.2726e-07
2.2218e-07
2.16924e-07
2.11497e-07
2.05907e-07
2.00161e-07
1.94266e-07
1.88231e-07
1.82063e-07
1.75773e-07
1.69369e-07
1.62861e-07
1.56259e-07
1.49574e-07
1.42817e-07
1.36e-07
1.29135e-07
1.22233e-07
1.15308e-07
1.08373e-07
1.01442e-07
9.45295e-08
8.76505e-08
8.08207e-08
7.40564e-08
6.73749e-08
6.07946e-08
5.43348e-08
4.80166e-08
4.18627e-08
3.58985e-08
3.01525e-08
2.4658e-08
1.94555e-08
1.45963e-08
1.01505e-08
6.21707e-09
2.93021e-09
1.55122e-09
7.37041e-09
4.00906e-09
3.89885e-09
4.65824e-09
5.83333e-09
7.26405e-09
8.87561e-09
1.06267e-08
1.24918e-08
1.44535e-08
1.64989e-08
1.86183e-08
2.08036e-08
2.30478e-08
2.53452e-08
2.76904e-08
3.00786e-08
3.25054e-08
3.49666e-08
3.74584e-08
3.9977e-08
4.25189e-08
4.50806e-08
4.76587e-08
5.025e-08
5.28513e-08
5.54594e-08
5.80714e-08
6.06841e-08
6.32946e-08
6.58999e-08
6.84971e-08
7.10832e-08
7.36556e-08
7.62112e-08
7.87473e-08
8.12611e-08
8.37498e-08
8.62107e-08
8.86411e-08
9.10383e-08
9.33996e-08
9.57225e-08
9.80042e-08
1.00242e-07
1.02434e-07
1.04577e-07
1.06669e-07
1.08707e-07
1.10689e-07
1.12612e-07
1.14475e-07
1.16274e-07
1.18008e-07
1.19675e-07
1.21271e-07
1.22795e-07
1.24245e-07
1.25618e-07
1.26914e-07
1.28129e-07
1.29261e-07
1.3031e-07
1.31272e-07
1.32147e-07
1.32932e-07
1.33626e-07
1.34228e-07
1.34735e-07
1.35146e-07
1.35461e-07
1.35677e-07
1.35794e-07
1.3581e-07
1.35724e-07
1.35536e-07
1.35245e-07
1.34849e-07
1.34349e-07
1.33744e-07
1.33034e-07
1.32217e-07
1.31296e-07
1.30268e-07
1.29136e-07
1.27899e-07
1.26557e-07
1.25112e-07
1.23564e-07
1.21914e-07
1.20165e-07
1.18316e-07
1.1637e-07
1.14329e-07
1.12195e-07
1.09969e-07
1.07655e-07
1.05255e-07
1.02771e-07
1.00207e-07
9.75666e-08
9.48523e-08
9.20681e-08
8.92179e-08
8.63057e-08
8.33359e-08
8.03128e-08
7.72412e-08
7.41259e-08
7.09721e-08
6.77851e-08
6.45705e-08
6.13339e-08
5.80813e-08
5.48192e-08
5.15538e-08
4.8292e-08
4.5041e-08
4.1808e-08
3.86011e-08
3.54286e-08
3.22993e-08
2.92228e-08
2.62099e-08
2.32722e-08
2.04235e-08
1.768e-08
1.50617e-08
1.25956e-08
1.032e-08
8.29528e-09
6.62965e-09
5.55238e-09
5.71104e-09
1.04987e-08
1.6416e-08
8.04181e-09
6.18612e-09
5.82536e-09
6.0984e-09
6.72573e-09
7.58303e-09
8.60408e-09
9.74939e-09
1.09934e-08
1.23185e-08
1.37119e-08
1.51639e-08
1.66668e-08
1.82145e-08
1.98016e-08
2.14236e-08
2.30765e-08
2.47568e-08
2.64612e-08
2.81865e-08
2.993e-08
3.1689e-08
3.34608e-08
3.52432e-08
3.70335e-08
3.88297e-08
4.06293e-08
4.24303e-08
4.42304e-08
4.60275e-08
4.78196e-08
4.96046e-08
5.13804e-08
5.31451e-08
5.48967e-08
5.66333e-08
5.83528e-08
6.00535e-08
6.17333e-08
6.33904e-08
6.5023e-08
6.66292e-08
6.82072e-08
6.97552e-08
7.12714e-08
7.27542e-08
7.42016e-08
7.56121e-08
7.6984e-08
7.83155e-08
7.96051e-08
8.0851e-08
8.20519e-08
8.32059e-08
8.43117e-08
8.53677e-08
8.63724e-08
8.73245e-08
8.82223e-08
8.90646e-08
8.98501e-08
9.05773e-08
9.12451e-08
9.18521e-08
9.23973e-08
9.28793e-08
9.32972e-08
9.36499e-08
9.39364e-08
9.41557e-08
9.43069e-08
9.43892e-08
9.44018e-08
9.43441e-08
9.42154e-08
9.4015e-08
9.37426e-08
9.33977e-08
9.29802e-08
9.24896e-08
9.1926e-08
9.12893e-08
9.05795e-08
8.97969e-08
8.89418e-08
8.80146e-08
8.70158e-08
8.5946e-08
8.48061e-08
8.35969e-08
8.23195e-08
8.09751e-08
7.95648e-08
7.80903e-08
7.6553e-08
7.49547e-08
7.32972e-08
7.15826e-08
6.9813e-08
6.79908e-08
6.61182e-08
6.41981e-08
6.22331e-08
6.02261e-08
5.81802e-08
5.60986e-08
5.39846e-08
5.18419e-08
4.9674e-08
4.74849e-08
4.52786e-08
4.30594e-08
4.08317e-08
3.86002e-08
3.63697e-08
3.41457e-08
3.19335e-08
2.97392e-08
2.75691e-08
2.54304e-08
2.33309e-08
2.12795e-08
1.92864e-08
1.7364e-08
1.55275e-08
1.37963e-08
1.2197e-08
1.0767e-08
9.5639e-09
8.68303e-09
8.30253e-09
8.82157e-09
1.14686e-08
2.34071e-08
2.72088e-08
1.30428e-08
9.42572e-09
8.08944e-09
7.66078e-09
7.71434e-09
8.0688e-09
8.6305e-09
9.34461e-09
1.01761e-08
1.11012e-08
1.21029e-08
1.31686e-08
1.42887e-08
1.54553e-08
1.66623e-08
1.79045e-08
1.91774e-08
2.04772e-08
2.18004e-08
2.3144e-08
2.45052e-08
2.58813e-08
2.72701e-08
2.86691e-08
3.00764e-08
3.14898e-08
3.29073e-08
3.43272e-08
3.57474e-08
3.71663e-08
3.8582e-08
3.99929e-08
4.13973e-08
4.27935e-08
4.41799e-08
4.55549e-08
4.6917e-08
4.82645e-08
4.9596e-08
5.09099e-08
5.22047e-08
5.34789e-08
5.47311e-08
5.59599e-08
5.71637e-08
5.83413e-08
5.94911e-08
6.06119e-08
6.17022e-08
6.27608e-08
6.37863e-08
6.47774e-08
6.57328e-08
6.66513e-08
6.75317e-08
6.83727e-08
6.91731e-08
6.99317e-08
7.06475e-08
7.13193e-08
7.1946e-08
7.25266e-08
7.306e-08
7.35452e-08
7.39812e-08
7.43672e-08
7.47022e-08
7.49855e-08
7.52161e-08
7.53933e-08
7.55165e-08
7.55848e-08
7.55978e-08
7.55549e-08
7.54555e-08
7.52991e-08
7.50855e-08
7.48143e-08
7.44853e-08
7.40983e-08
7.36532e-08
7.31501e-08
7.2589e-08
7.197e-08
7.12934e-08
7.05597e-08
6.97691e-08
6.89224e-08
6.802e-08
6.70629e-08
6.60517e-08
6.49876e-08
6.38716e-08
6.27048e-08
6.14887e-08
6.02245e-08
5.8914e-08
5.75587e-08
5.61605e-08
5.47213e-08
5.32431e-08
5.17281e-08
5.01786e-08
4.85971e-08
4.69861e-08
4.53484e-08
4.36869e-08
4.20045e-08
4.03044e-08
3.85901e-08
3.6865e-08
3.51329e-08
3.33977e-08
3.16638e-08
2.99356e-08
2.82181e-08
2.65166e-08
2.48369e-08
2.31855e-08
2.15699e-08
1.99984e-08
1.8481e-08
1.70297e-08
1.56592e-08
1.43887e-08
1.3243e-08
1.22571e-08
1.14818e-08
1.09959e-08
1.09339e-08
1.15552e-08
1.34679e-08
1.86338e-08
3.88633e-08
3.9282e-08
1.8692e-08
1.32088e-08
1.09128e-08
9.84275e-09
9.40273e-09
9.34511e-09
9.54517e-09
9.9314e-09
1.04589e-08
1.10974e-08
1.18255e-08
1.26275e-08
1.34914e-08
1.44078e-08
1.5369e-08
1.6369e-08
1.74026e-08
1.84652e-08
1.95532e-08
2.06631e-08
2.17918e-08
2.29368e-08
2.40955e-08
2.52656e-08
2.64449e-08
2.76315e-08
2.88234e-08
3.00188e-08
3.1216e-08
3.24133e-08
3.36091e-08
3.48019e-08
3.599e-08
3.71721e-08
3.83466e-08
3.95121e-08
4.06673e-08
4.18108e-08
4.29411e-08
4.40571e-08
4.51573e-08
4.62406e-08
4.73055e-08
4.83508e-08
4.93754e-08
5.0378e-08
5.13574e-08
5.23124e-08
5.32417e-08
5.41444e-08
5.50192e-08
5.58649e-08
5.66806e-08
5.74651e-08
5.82173e-08
5.89362e-08
5.96207e-08
6.02699e-08
6.08828e-08
6.14583e-08
6.19955e-08
6.24936e-08
6.29516e-08
6.33687e-08
6.3744e-08
6.40767e-08
6.4366e-08
6.46113e-08
6.48118e-08
6.49668e-08
6.50757e-08
6.5138e-08
6.51531e-08
6.51206e-08
6.504e-08
6.49108e-08
6.47329e-08
6.45059e-08
6.42296e-08
6.39039e-08
6.35288e-08
6.31043e-08
6.26304e-08
6.21073e-08
6.15352e-08
6.09146e-08
6.02457e-08
5.95291e-08
5.87653e-08
5.79552e-08
5.70994e-08
5.61988e-08
5.52544e-08
5.42673e-08
5.32387e-08
5.21699e-08
5.10623e-08
4.99175e-08
4.87369e-08
4.75226e-08
4.62762e-08
4.49997e-08
4.36954e-08
4.23655e-08
4.10123e-08
3.96384e-08
3.82465e-08
3.68393e-08
3.54201e-08
3.39918e-08
3.2558e-08
3.11223e-08
2.96887e-08
2.82613e-08
2.68449e-08
2.54443e-08
2.40653e-08
2.2714e-08
2.13977e-08
2.01245e-08
1.8904e-08
1.77478e-08
1.66701e-08
1.56888e-08
1.48269e-08
1.41157e-08
1.35989e-08
1.33413e-08
1.34458e-08
1.40912e-08
1.56323e-08
1.89228e-08
2.67715e-08
5.62465e-08
5.23444e-08
2.48265e-08
1.73683e-08
1.40936e-08
1.23986e-08
1.14983e-08
1.10708e-08
1.09565e-08
1.10654e-08
1.13418e-08
1.17486e-08
1.226e-08
1.28569e-08
1.3525e-08
1.42532e-08
1.50324e-08
1.58556e-08
1.67165e-08
1.76101e-08
1.8532e-08
1.94785e-08
2.04462e-08
2.14322e-08
2.24338e-08
2.34484e-08
2.4474e-08
2.55083e-08
2.65495e-08
2.75956e-08
2.86451e-08
2.96961e-08
3.07472e-08
3.17967e-08
3.28433e-08
3.38855e-08
3.4922e-08
3.59514e-08
3.69723e-08
3.79836e-08
3.89839e-08
3.99721e-08
4.09469e-08
4.19071e-08
4.28516e-08
4.37792e-08
4.46889e-08
4.55794e-08
4.64497e-08
4.72987e-08
4.81254e-08
4.89286e-08
4.97075e-08
5.04609e-08
5.11878e-08
5.18873e-08
5.25584e-08
5.32001e-08
5.38115e-08
5.43917e-08
5.49399e-08
5.5455e-08
5.59363e-08
5.6383e-08
5.67941e-08
5.7169e-08
5.75069e-08
5.78071e-08
5.80688e-08
5.82914e-08
5.84742e-08
5.86167e-08
5.87183e-08
5.87784e-08
5.87967e-08
5.87727e-08
5.87059e-08
5.8596e-08
5.84427e-08
5.82459e-08
5.80053e-08
5.77209e-08
5.73925e-08
5.70203e-08
5.66043e-08
5.61448e-08
5.56418e-08
5.50958e-08
5.45071e-08
5.38763e-08
5.32039e-08
5.24905e-08
5.1737e-08
5.09441e-08
5.01128e-08
4.92442e-08
4.83394e-08
4.73996e-08
4.64262e-08
4.54207e-08
4.43846e-08
4.33197e-08
4.22277e-08
4.11105e-08
3.99703e-08
3.88093e-08
3.76297e-08
3.64341e-08
3.52251e-08
3.40056e-08
3.27786e-08
3.15473e-08
3.03152e-08
2.9086e-08
2.78638e-08
2.66531e-08
2.54588e-08
2.42862e-08
2.31414e-08
2.20313e-08
2.09638e-08
1.99483e-08
1.89956e-08
1.81191e-08
1.73355e-08
1.66657e-08
1.61373e-08
1.5788e-08
1.56711e-08
1.58669e-08
1.65048e-08
1.78143e-08
2.02581e-08
2.4964e-08
3.56729e-08
7.51921e-08
6.61839e-08
3.13371e-08
2.18086e-08
1.75281e-08
1.52085e-08
1.38621e-08
1.30866e-08
1.26843e-08
1.25449e-08
1.26011e-08
1.28084e-08
1.31362e-08
1.3562e-08
1.40692e-08
1.46448e-08
1.52784e-08
1.59617e-08
1.66878e-08
1.74509e-08
1.82461e-08
1.90691e-08
1.99161e-08
2.07839e-08
2.16696e-08
2.25704e-08
2.3484e-08
2.44082e-08
2.5341e-08
2.62803e-08
2.72245e-08
2.81718e-08
2.91207e-08
3.00695e-08
3.10169e-08
3.19615e-08
3.29017e-08
3.38365e-08
3.47644e-08
3.56843e-08
3.65949e-08
3.74951e-08
3.83837e-08
3.92596e-08
4.01216e-08
4.09687e-08
4.17999e-08
4.26141e-08
4.34102e-08
4.41872e-08
4.49442e-08
4.56801e-08
4.63941e-08
4.70851e-08
4.77522e-08
4.83945e-08
4.90111e-08
4.96011e-08
5.01636e-08
5.06979e-08
5.12029e-08
5.1678e-08
5.21223e-08
5.25351e-08
5.29156e-08
5.32631e-08
5.35768e-08
5.38561e-08
5.41004e-08
5.43089e-08
5.44812e-08
5.46166e-08
5.47147e-08
5.4775e-08
5.47969e-08
5.47803e-08
5.47246e-08
5.46295e-08
5.44948e-08
5.43202e-08
5.41058e-08
5.38513e-08
5.35567e-08
5.32221e-08
5.28476e-08
5.24333e-08
5.19795e-08
5.14866e-08
5.09549e-08
5.0385e-08
4.97773e-08
4.91326e-08
4.84516e-08
4.77352e-08
4.69842e-08
4.61998e-08
4.5383e-08
4.45352e-08
4.36576e-08
4.27517e-08
4.18191e-08
4.08614e-08
3.98806e-08
3.88785e-08
3.78572e-08
3.68189e-08
3.57661e-08
3.47012e-08
3.3627e-08
3.25464e-08
3.14625e-08
3.03786e-08
2.92984e-08
2.82258e-08
2.71652e-08
2.61213e-08
2.50994e-08
2.41052e-08
2.31456e-08
2.22279e-08
2.13611e-08
2.05557e-08
1.9824e-08
1.91814e-08
1.86468e-08
1.82445e-08
1.8007e-08
1.79787e-08
1.82235e-08
1.88388e-08
1.99837e-08
2.19432e-08
2.52978e-08
3.14721e-08
4.52075e-08
9.54514e-08
8.06314e-08
3.81402e-08
2.64631e-08
2.11508e-08
1.82013e-08
1.64146e-08
1.53031e-08
1.46288e-08
1.42597e-08
1.41158e-08
1.41448e-08
1.43108e-08
1.45881e-08
1.49573e-08
1.54036e-08
1.59153e-08
1.64829e-08
1.70985e-08
1.77559e-08
1.84493e-08
1.91741e-08
1.99261e-08
2.07018e-08
2.14979e-08
2.23115e-08
2.314e-08
2.3981e-08
2.48323e-08
2.56919e-08
2.65578e-08
2.74284e-08
2.8302e-08
2.9177e-08
3.0052e-08
3.09254e-08
3.1796e-08
3.26623e-08
3.35233e-08
3.43775e-08
3.52239e-08
3.60613e-08
3.68885e-08
3.77044e-08
3.8508e-08
3.92981e-08
4.00739e-08
4.08342e-08
4.15781e-08
4.23046e-08
4.30128e-08
4.37016e-08
4.43703e-08
4.50178e-08
4.56433e-08
4.62459e-08
4.68248e-08
4.73791e-08
4.79079e-08
4.84105e-08
4.88861e-08
4.93339e-08
4.97531e-08
5.0143e-08
5.05029e-08
5.08321e-08
5.11299e-08
5.13957e-08
5.16289e-08
5.18288e-08
5.19949e-08
5.21267e-08
5.22236e-08
5.22853e-08
5.23113e-08
5.23013e-08
5.2255e-08
5.21718e-08
5.20518e-08
5.18946e-08
5.17002e-08
5.14685e-08
5.11995e-08
5.08932e-08
5.05499e-08
5.01695e-08
4.97526e-08
4.92992e-08
4.881e-08
4.82854e-08
4.77259e-08
4.71323e-08
4.65053e-08
4.58458e-08
4.51547e-08
4.44331e-08
4.36822e-08
4.29031e-08
4.20974e-08
4.12664e-08
4.04118e-08
3.95353e-08
3.86388e-08
3.77243e-08
3.67939e-08
3.58499e-08
3.48947e-08
3.39311e-08
3.29618e-08
3.19898e-08
3.10185e-08
3.00513e-08
2.90922e-08
2.81453e-08
2.72151e-08
2.63068e-08
2.54261e-08
2.45795e-08
2.37742e-08
2.30186e-08
2.23225e-08
2.16973e-08
2.11571e-08
2.0719e-08
2.04047e-08
2.02421e-08
2.02687e-08
2.05364e-08
2.11207e-08
2.21376e-08
2.37781e-08
2.63872e-08
3.06713e-08
3.83698e-08
5.52821e-08
1.16838e-07
9.55444e-08
4.51665e-08
3.12796e-08
2.49135e-08
2.13283e-08
1.91035e-08
1.76635e-08
1.67277e-08
1.61415e-08
1.58115e-08
1.56773e-08
1.56974e-08
1.58423e-08
1.60901e-08
1.64239e-08
1.68307e-08
1.72998e-08
1.78225e-08
1.83916e-08
1.9001e-08
1.96455e-08
2.03206e-08
2.10222e-08
2.17469e-08
2.24915e-08
2.32532e-08
2.40295e-08
2.48179e-08
2.56164e-08
2.64229e-08
2.72356e-08
2.80527e-08
2.88726e-08
2.96937e-08
3.05146e-08
3.13339e-08
3.21501e-08
3.2962e-08
3.37683e-08
3.4568e-08
3.53597e-08
3.61424e-08
3.69151e-08
3.76766e-08
3.84258e-08
3.91619e-08
3.98837e-08
4.05904e-08
4.12809e-08
4.19544e-08
4.26098e-08
4.32464e-08
4.38633e-08
4.44595e-08
4.50342e-08
4.55867e-08
4.6116e-08
4.66214e-08
4.71021e-08
4.75573e-08
4.79864e-08
4.83884e-08
4.87629e-08
4.91089e-08
4.9426e-08
4.97134e-08
4.99705e-08
5.01968e-08
5.03916e-08
5.05544e-08
5.06847e-08
5.07821e-08
5.0846e-08
5.08762e-08
5.08723e-08
5.0834e-08
5.07608e-08
5.06527e-08
5.05094e-08
5.0331e-08
5.01172e-08
4.98682e-08
4.9584e-08
4.92648e-08
4.89107e-08
4.85221e-08
4.80992e-08
4.76426e-08
4.71528e-08
4.66303e-08
4.6076e-08
4.54905e-08
4.48747e-08
4.42298e-08
4.35566e-08
4.28565e-08
4.21308e-08
4.13808e-08
4.06081e-08
3.98144e-08
3.90015e-08
3.81713e-08
3.73259e-08
3.64676e-08
3.55986e-08
3.47216e-08
3.38393e-08
3.29548e-08
3.2071e-08
3.11916e-08
3.03203e-08
2.94612e-08
2.86189e-08
2.77984e-08
2.7005e-08
2.62449e-08
2.5525e-08
2.48532e-08
2.42387e-08
2.36922e-08
2.32266e-08
2.28574e-08
2.26039e-08
2.24905e-08
2.25489e-08
2.28222e-08
2.33703e-08
2.42811e-08
2.56903e-08
2.78232e-08
3.10881e-08
3.6324e-08
4.56003e-08
6.5824e-08
1.39206e-07
1.10799e-07
5.23563e-08
3.62143e-08
2.87781e-08
2.45522e-08
2.18908e-08
2.01273e-08
1.89378e-08
1.8144e-08
1.76386e-08
1.73525e-08
1.72387e-08
1.72637e-08
1.74028e-08
1.76372e-08
1.79522e-08
1.8336e-08
1.87791e-08
1.92734e-08
1.98124e-08
2.03901e-08
2.10018e-08
2.1643e-08
2.23101e-08
2.29994e-08
2.37082e-08
2.44334e-08
2.51728e-08
2.59239e-08
2.66846e-08
2.7453e-08
2.82272e-08
2.90055e-08
2.97862e-08
3.05679e-08
3.13491e-08
3.21284e-08
3.29044e-08
3.36759e-08
3.44417e-08
3.52006e-08
3.59514e-08
3.66931e-08
3.74245e-08
3.81447e-08
3.88525e-08
3.95471e-08
4.02275e-08
4.08926e-08
4.15417e-08
4.21737e-08
4.27879e-08
4.33833e-08
4.39591e-08
4.45145e-08
4.50486e-08
4.55607e-08
4.60499e-08
4.65156e-08
4.69569e-08
4.73732e-08
4.77638e-08
4.81279e-08
4.84648e-08
4.8774e-08
4.90548e-08
4.93066e-08
4.95288e-08
4.97209e-08
4.98824e-08
5.00128e-08
5.01115e-08
5.01782e-08
5.02126e-08
5.02142e-08
5.0183e-08
5.01182e-08
5.002e-08
4.98882e-08
4.97226e-08
4.95233e-08
4.92902e-08
4.90235e-08
4.87233e-08
4.83898e-08
4.80234e-08
4.76245e-08
4.71934e-08
4.67308e-08
4.62374e-08
4.57137e-08
4.51607e-08
4.45793e-08
4.39706e-08
4.33356e-08
4.26756e-08
4.1992e-08
4.12863e-08
4.05601e-08
3.9815e-08
3.9053e-08
3.82761e-08
3.74865e-08
3.66865e-08
3.58786e-08
3.50657e-08
3.42505e-08
3.34363e-08
3.26264e-08
3.18246e-08
3.10347e-08
3.02611e-08
2.95086e-08
2.87824e-08
2.80885e-08
2.74335e-08
2.68249e-08
2.62712e-08
2.57826e-08
2.53707e-08
2.50497e-08
2.48369e-08
2.47536e-08
2.48273e-08
2.50939e-08
2.56022e-08
2.64206e-08
2.76502e-08
2.94477e-08
3.20741e-08
3.60042e-08
4.2215e-08
5.31191e-08
7.67737e-08
1.6243e-07
1.26283e-07
5.96567e-08
4.12294e-08
3.27125e-08
2.78432e-08
2.47467e-08
2.26642e-08
2.12271e-08
2.02332e-08
1.95609e-08
1.91323e-08
1.88943e-08
1.88095e-08
1.88502e-08
1.89957e-08
1.92296e-08
1.95389e-08
1.99131e-08
2.03435e-08
2.08228e-08
2.13447e-08
2.19039e-08
2.24957e-08
2.3116e-08
2.3761e-08
2.44277e-08
2.51128e-08
2.58139e-08
2.65284e-08
2.72541e-08
2.79889e-08
2.87309e-08
2.94782e-08
3.02291e-08
3.0982e-08
3.17354e-08
3.24879e-08
3.32381e-08
3.39846e-08
3.47262e-08
3.54618e-08
3.619e-08
3.69099e-08
3.76203e-08
3.83201e-08
3.90084e-08
3.96841e-08
4.03464e-08
4.09941e-08
4.16265e-08
4.22426e-08
4.28415e-08
4.34224e-08
4.39845e-08
4.45269e-08
4.50488e-08
4.55495e-08
4.60281e-08
4.6484e-08
4.69164e-08
4.73245e-08
4.77077e-08
4.80654e-08
4.83968e-08
4.87013e-08
4.89784e-08
4.92274e-08
4.94477e-08
4.96389e-08
4.98004e-08
4.99318e-08
5.00326e-08
5.01023e-08
5.01407e-08
5.01474e-08
5.01223e-08
5.00649e-08
4.9975e-08
4.98525e-08
4.96974e-08
4.95097e-08
4.92894e-08
4.90367e-08
4.87516e-08
4.84345e-08
4.80856e-08
4.77055e-08
4.72945e-08
4.68534e-08
4.63827e-08
4.58832e-08
4.53559e-08
4.48016e-08
4.42215e-08
4.36168e-08
4.29887e-08
4.23388e-08
4.16686e-08
4.09798e-08
4.02742e-08
3.95538e-08
3.88208e-08
3.80774e-08
3.7326e-08
3.65693e-08
3.58102e-08
3.50517e-08
3.42971e-08
3.355e-08
3.28143e-08
3.20942e-08
3.13945e-08
3.07201e-08
3.00767e-08
2.94707e-08
2.89091e-08
2.84001e-08
2.7953e-08
2.75787e-08
2.72899e-08
2.71023e-08
2.70348e-08
2.71112e-08
2.73621e-08
2.78278e-08
2.8563e-08
2.96454e-08
3.11895e-08
3.33743e-08
3.64978e-08
4.11035e-08
4.83113e-08
6.08887e-08
8.80805e-08
1.86407e-07
1.41898e-07
6.70202e-08
4.62912e-08
3.66885e-08
3.11758e-08
2.76468e-08
2.52496e-08
2.35706e-08
2.23832e-08
2.15513e-08
2.09879e-08
2.0634e-08
2.04479e-08
2.03991e-08
2.04644e-08
2.06262e-08
2.08701e-08
2.11846e-08
2.15602e-08
2.1989e-08
2.24642e-08
2.29801e-08
2.35315e-08
2.41141e-08
2.47239e-08
2.53574e-08
2.60114e-08
2.66832e-08
2.737e-08
2.80695e-08
2.87795e-08
2.94979e-08
3.02227e-08
3.09523e-08
3.16848e-08
3.24188e-08
3.31527e-08
3.38851e-08
3.46146e-08
3.53399e-08
3.60598e-08
3.6773e-08
3.74784e-08
3.8175e-08
3.88616e-08
3.95371e-08
4.02007e-08
4.08512e-08
4.14879e-08
4.21096e-08
4.27156e-08
4.33049e-08
4.38768e-08
4.44303e-08
4.49646e-08
4.54791e-08
4.59728e-08
4.6445e-08
4.6895e-08
4.73221e-08
4.77255e-08
4.81046e-08
4.84588e-08
4.87873e-08
4.90895e-08
4.93649e-08
4.96129e-08
4.98328e-08
5.00243e-08
5.01868e-08
5.03198e-08
5.04229e-08
5.04958e-08
5.0538e-08
5.05492e-08
5.05294e-08
5.0478e-08
5.03949e-08
5.02801e-08
5.01335e-08
4.99552e-08
4.9745e-08
4.95034e-08
4.92303e-08
4.89261e-08
4.85912e-08
4.8226e-08
4.7831e-08
4.74068e-08
4.69542e-08
4.64741e-08
4.59672e-08
4.54347e-08
4.48776e-08
4.42973e-08
4.36951e-08
4.30725e-08
4.24312e-08
4.1773e-08
4.10996e-08
4.04134e-08
3.97164e-08
3.90111e-08
3.83001e-08
3.75862e-08
3.68724e-08
3.61619e-08
3.54582e-08
3.47651e-08
3.40868e-08
3.34277e-08
3.27927e-08
3.21874e-08
3.16176e-08
3.10903e-08
3.0613e-08
3.01945e-08
2.98447e-08
2.95756e-08
2.94011e-08
2.93381e-08
2.94076e-08
2.96357e-08
3.00564e-08
3.07145e-08
3.16712e-08
3.30134e-08
3.48701e-08
3.74427e-08
4.10678e-08
4.63599e-08
5.45855e-08
6.8877e-08
9.96996e-08
2.11043e-07
1.57553e-07
7.44036e-08
5.13694e-08
4.06815e-08
3.45278e-08
3.05701e-08
2.7863e-08
2.59477e-08
2.45728e-08
2.3588e-08
2.28968e-08
2.24342e-08
2.21543e-08
2.20236e-08
2.20168e-08
2.21142e-08
2.23006e-08
2.25633e-08
2.28921e-08
2.32783e-08
2.37148e-08
2.41952e-08
2.47141e-08
2.52669e-08
2.58492e-08
2.64573e-08
2.70879e-08
2.77379e-08
2.84046e-08
2.90854e-08
2.97779e-08
3.04801e-08
3.11897e-08
3.19051e-08
3.26243e-08
3.33458e-08
3.40679e-08
3.47893e-08
3.55083e-08
3.62237e-08
3.69343e-08
3.76387e-08
3.83358e-08
3.90244e-08
3.97035e-08
4.03719e-08
4.10287e-08
4.16729e-08
4.23035e-08
4.29195e-08
4.35201e-08
4.41044e-08
4.46715e-08
4.52206e-08
4.57509e-08
4.62616e-08
4.67519e-08
4.72211e-08
4.76684e-08
4.80931e-08
4.84945e-08
4.8872e-08
4.92248e-08
4.95525e-08
4.98542e-08
5.01296e-08
5.03779e-08
5.05987e-08
5.07914e-08
5.09556e-08
5.10908e-08
5.11965e-08
5.12725e-08
5.13183e-08
5.13337e-08
5.13184e-08
5.12723e-08
5.1195e-08
5.10865e-08
5.09468e-08
5.07759e-08
5.0574e-08
5.0341e-08
5.00774e-08
4.97833e-08
4.94593e-08
4.91056e-08
4.87231e-08
4.83121e-08
4.78737e-08
4.74085e-08
4.69177e-08
4.64022e-08
4.58632e-08
4.53022e-08
4.47205e-08
4.41198e-08
4.35017e-08
4.28682e-08
4.22212e-08
4.15629e-08
4.08958e-08
4.02223e-08
3.95452e-08
3.88674e-08
3.81921e-08
3.75226e-08
3.68628e-08
3.62166e-08
3.55884e-08
3.49829e-08
3.44055e-08
3.38617e-08
3.33582e-08
3.2902e-08
3.25015e-08
3.21659e-08
3.19062e-08
3.1735e-08
3.16676e-08
3.17223e-08
3.19221e-08
3.22959e-08
3.28809e-08
3.37266e-08
3.49008e-08
3.65004e-08
3.86688e-08
4.16308e-08
4.57626e-08
5.17511e-08
6.10135e-08
7.70553e-08
1.11591e-07
2.36252e-07
1.73165e-07
8.17677e-08
5.64366e-08
4.46692e-08
3.78797e-08
3.34986e-08
3.0487e-08
2.8341e-08
2.67849e-08
2.56534e-08
2.48409e-08
2.42763e-08
2.39094e-08
2.37037e-08
2.36316e-08
2.36719e-08
2.38078e-08
2.40258e-08
2.43149e-08
2.46657e-08
2.50704e-08
2.55224e-08
2.60158e-08
2.65456e-08
2.71073e-08
2.76969e-08
2.83108e-08
2.89458e-08
2.95989e-08
3.02675e-08
3.0949e-08
3.16413e-08
3.2342e-08
3.30493e-08
3.37613e-08
3.44763e-08
3.51925e-08
3.59085e-08
3.66227e-08
3.73338e-08
3.80404e-08
3.87413e-08
3.94351e-08
4.01208e-08
4.07972e-08
4.14633e-08
4.21179e-08
4.276e-08
4.33888e-08
4.40032e-08
4.46024e-08
4.51854e-08
4.57513e-08
4.62995e-08
4.68289e-08
4.73389e-08
4.78287e-08
4.82975e-08
4.87446e-08
4.91693e-08
4.95709e-08
4.99487e-08
5.03021e-08
5.06305e-08
5.09333e-08
5.12098e-08
5.14595e-08
5.16819e-08
5.18766e-08
5.20429e-08
5.21805e-08
5.2289e-08
5.2368e-08
5.24171e-08
5.24361e-08
5.24249e-08
5.23831e-08
5.23104e-08
5.2207e-08
5.20727e-08
5.19076e-08
5.17119e-08
5.14857e-08
5.12293e-08
5.09429e-08
5.06271e-08
5.02823e-08
4.99091e-08
4.95083e-08
4.90806e-08
4.86269e-08
4.81484e-08
4.7646e-08
4.71212e-08
4.65752e-08
4.60097e-08
4.54263e-08
4.48267e-08
4.42131e-08
4.35874e-08
4.29521e-08
4.23096e-08
4.16625e-08
4.10137e-08
4.03664e-08
3.97239e-08
3.90898e-08
3.84679e-08
3.78626e-08
3.72784e-08
3.67205e-08
3.61942e-08
3.57059e-08
3.52623e-08
3.48711e-08
3.45411e-08
3.42823e-08
3.41064e-08
3.40272e-08
3.4061e-08
3.42279e-08
3.4553e-08
3.50675e-08
3.58124e-08
3.6842e-08
3.82312e-08
4.00864e-08
4.25665e-08
4.59199e-08
5.05633e-08
5.72576e-08
6.75736e-08
8.53974e-08
1.23717e-07
2.61958e-07
1.88659e-07
8.90773e-08
6.14683e-08
4.86319e-08
4.12143e-08
3.64164e-08
3.31065e-08
3.07361e-08
2.90047e-08
2.77326e-08
2.68051e-08
2.61448e-08
2.56973e-08
2.5423e-08
2.52922e-08
2.52818e-08
2.53737e-08
2.55535e-08
2.58093e-08
2.61311e-08
2.65105e-08
2.69405e-08
2.74147e-08
2.79278e-08
2.84751e-08
2.90522e-08
2.96555e-08
3.02815e-08
3.09269e-08
3.15891e-08
3.22654e-08
3.29534e-08
3.36508e-08
3.43555e-08
3.50656e-08
3.57792e-08
3.64947e-08
3.72104e-08
3.79247e-08
3.86363e-08
3.93436e-08
4.00454e-08
4.07405e-08
4.14275e-08
4.21054e-08
4.2773e-08
4.34293e-08
4.40733e-08
4.47038e-08
4.53201e-08
4.59211e-08
4.6506e-08
4.70738e-08
4.76238e-08
4.81552e-08
4.86671e-08
4.91588e-08
4.96295e-08
5.00785e-08
5.05051e-08
5.09086e-08
5.12884e-08
5.16438e-08
5.19742e-08
5.22791e-08
5.25577e-08
5.28097e-08
5.30344e-08
5.32314e-08
5.34003e-08
5.35405e-08
5.36517e-08
5.37335e-08
5.37856e-08
5.38077e-08
5.37997e-08
5.37614e-08
5.36924e-08
5.35928e-08
5.34627e-08
5.3302e-08
5.31108e-08
5.28895e-08
5.26383e-08
5.23575e-08
5.20476e-08
5.17092e-08
5.13428e-08
5.09493e-08
5.05294e-08
5.00842e-08
4.96148e-08
4.91222e-08
4.8608e-08
4.80734e-08
4.75203e-08
4.69502e-08
4.63652e-08
4.57673e-08
4.51587e-08
4.45418e-08
4.39194e-08
4.3294e-08
4.26689e-08
4.20473e-08
4.14326e-08
4.08287e-08
4.02398e-08
3.96702e-08
3.91248e-08
3.86091e-08
3.81288e-08
3.76905e-08
3.73015e-08
3.69699e-08
3.67051e-08
3.65179e-08
3.64208e-08
3.64285e-08
3.65587e-08
3.68334e-08
3.72793e-08
3.79307e-08
3.88321e-08
4.00429e-08
4.16449e-08
4.37549e-08
4.65468e-08
5.02938e-08
5.54533e-08
6.28618e-08
7.4246e-08
9.38791e-08
1.36044e-07
2.88088e-07
2.03968e-07
9.63007e-08
6.64424e-08
5.25518e-08
4.45162e-08
3.93096e-08
3.57086e-08
3.31202e-08
3.12198e-08
2.98134e-08
2.87769e-08
2.8027e-08
2.7505e-08
2.71682e-08
2.69846e-08
2.69296e-08
2.69837e-08
2.71313e-08
2.73599e-08
2.76586e-08
2.80187e-08
2.84324e-08
2.88933e-08
2.93955e-08
2.9934e-08
3.05044e-08
3.11025e-08
3.17249e-08
3.23681e-08
3.30292e-08
3.37054e-08
3.43942e-08
3.50932e-08
3.58002e-08
3.65132e-08
3.72303e-08
3.79496e-08
3.86694e-08
3.93882e-08
4.01044e-08
4.08166e-08
4.15234e-08
4.22236e-08
4.29157e-08
4.35987e-08
4.42715e-08
4.49328e-08
4.55818e-08
4.62173e-08
4.68383e-08
4.7444e-08
4.80335e-08
4.86058e-08
4.91602e-08
4.96957e-08
5.02116e-08
5.07072e-08
5.11817e-08
5.16344e-08
5.20645e-08
5.24715e-08
5.28545e-08
5.32131e-08
5.35466e-08
5.38545e-08
5.4136e-08
5.43908e-08
5.46183e-08
5.4818e-08
5.49895e-08
5.51324e-08
5.52462e-08
5.53306e-08
5.53853e-08
5.541e-08
5.54046e-08
5.5369e-08
5.53027e-08
5.52059e-08
5.50786e-08
5.49209e-08
5.47329e-08
5.45148e-08
5.4267e-08
5.39899e-08
5.36839e-08
5.33496e-08
5.29877e-08
5.2599e-08
5.21844e-08
5.17449e-08
5.12817e-08
5.0796e-08
5.02892e-08
4.97629e-08
4.92188e-08
4.86587e-08
4.80846e-08
4.74987e-08
4.69033e-08
4.63011e-08
4.56946e-08
4.5087e-08
4.44814e-08
4.38811e-08
4.329e-08
4.2712e-08
4.21514e-08
4.1613e-08
4.11019e-08
4.06237e-08
4.01848e-08
3.97919e-08
3.94528e-08
3.91762e-08
3.89722e-08
3.8852e-08
3.88292e-08
3.89195e-08
3.91422e-08
3.95207e-08
4.00839e-08
4.08689e-08
4.19241e-08
4.33138e-08
4.51271e-08
4.74911e-08
5.05955e-08
5.47379e-08
6.04175e-08
6.85472e-08
8.10121e-08
1.02478e-07
1.48539e-07
3.14572e-07
2.19033e-07
1.0341e-07
7.13395e-08
5.64135e-08
4.77722e-08
4.21663e-08
3.82819e-08
3.54826e-08
3.34198e-08
3.18853e-08
3.0746e-08
2.99124e-08
2.93218e-08
2.89283e-08
2.86978e-08
2.8604e-08
2.8626e-08
2.87471e-08
2.8954e-08
2.92353e-08
2.95816e-08
2.99846e-08
3.04375e-08
3.09342e-08
3.14693e-08
3.2038e-08
3.26362e-08
3.326e-08
3.39059e-08
3.45707e-08
3.52516e-08
3.59459e-08
3.66511e-08
3.73649e-08
3.80852e-08
3.88098e-08
3.95371e-08
4.02651e-08
4.09923e-08
4.1717e-08
4.24377e-08
4.31531e-08
4.38617e-08
4.45623e-08
4.52537e-08
4.59346e-08
4.6604e-08
4.72608e-08
4.79039e-08
4.85324e-08
4.91453e-08
4.97417e-08
5.03207e-08
5.08815e-08
5.14232e-08
5.1945e-08
5.24462e-08
5.29261e-08
5.33839e-08
5.38189e-08
5.42304e-08
5.46179e-08
5.49806e-08
5.53181e-08
5.56296e-08
5.59146e-08
5.61727e-08
5.64033e-08
5.6606e-08
5.67802e-08
5.69256e-08
5.70419e-08
5.71286e-08
5.71855e-08
5.72123e-08
5.72088e-08
5.71751e-08
5.71106e-08
5.70155e-08
5.68899e-08
5.67339e-08
5.65476e-08
5.63313e-08
5.60853e-08
5.581e-08
5.5506e-08
5.51739e-08
5.48143e-08
5.44283e-08
5.40166e-08
5.35803e-08
5.31207e-08
5.26392e-08
5.21371e-08
5.16161e-08
5.1078e-08
5.05247e-08
4.99583e-08
4.93811e-08
4.87956e-08
4.82045e-08
4.76105e-08
4.70169e-08
4.6427e-08
4.58443e-08
4.52729e-08
4.47168e-08
4.41806e-08
4.36693e-08
4.31884e-08
4.27438e-08
4.23421e-08
4.19905e-08
4.16972e-08
4.14716e-08
4.13242e-08
4.12672e-08
4.13149e-08
4.14842e-08
4.17958e-08
4.22747e-08
4.29522e-08
4.38682e-08
4.50747e-08
4.66415e-08
4.86648e-08
5.12823e-08
5.46993e-08
5.92387e-08
6.54417e-08
7.42986e-08
8.78543e-08
1.11171e-07
1.6117e-07
3.41345e-07
2.33803e-07
1.1038e-07
7.61429e-08
6.02037e-08
5.09709e-08
4.49761e-08
4.08171e-08
3.78144e-08
3.5596e-08
3.39397e-08
3.27037e-08
3.17924e-08
3.11389e-08
3.06945e-08
3.04228e-08
3.02956e-08
3.0291e-08
3.0391e-08
3.05817e-08
3.08509e-08
3.11886e-08
3.15861e-08
3.20362e-08
3.25323e-08
3.30689e-08
3.3641e-08
3.42439e-08
3.48738e-08
3.5527e-08
3.62001e-08
3.68901e-08
3.75942e-08
3.83098e-08
3.90344e-08
3.97659e-08
4.05021e-08
4.12411e-08
4.1981e-08
4.27201e-08
4.34567e-08
4.41893e-08
4.49164e-08
4.56366e-08
4.63486e-08
4.70512e-08
4.7743e-08
4.84231e-08
4.90902e-08
4.97434e-08
5.03815e-08
5.10038e-08
5.16091e-08
5.21967e-08
5.27657e-08
5.33153e-08
5.38446e-08
5.43529e-08
5.48395e-08
5.53036e-08
5.57446e-08
5.61618e-08
5.65545e-08
5.69221e-08
5.72641e-08
5.75799e-08
5.78689e-08
5.81306e-08
5.83645e-08
5.85702e-08
5.87472e-08
5.88951e-08
5.90135e-08
5.91022e-08
5.91608e-08
5.91891e-08
5.91869e-08
5.91543e-08
5.90907e-08
5.89964e-08
5.88714e-08
5.87158e-08
5.85299e-08
5.83138e-08
5.80681e-08
5.7793e-08
5.74893e-08
5.71575e-08
5.67984e-08
5.64128e-08
5.60019e-08
5.55666e-08
5.51083e-08
5.46284e-08
5.41285e-08
5.36101e-08
5.30753e-08
5.25259e-08
5.19644e-08
5.13929e-08
5.08142e-08
5.02309e-08
4.96463e-08
4.90634e-08
4.84858e-08
4.79173e-08
4.73619e-08
4.68242e-08
4.63088e-08
4.58211e-08
4.53667e-08
4.49519e-08
4.45837e-08
4.42697e-08
4.40187e-08
4.38404e-08
4.37461e-08
4.37488e-08
4.38635e-08
4.41086e-08
4.4506e-08
4.50825e-08
4.58715e-08
4.6916e-08
4.82718e-08
5.0014e-08
5.22461e-08
5.51164e-08
5.88463e-08
6.37839e-08
7.05128e-08
8.01012e-08
9.47557e-08
1.19938e-07
1.73908e-07
3.68343e-07
2.48235e-07
1.17192e-07
8.08386e-08
6.39112e-08
5.41028e-08
4.77308e-08
4.33064e-08
4.01081e-08
3.77412e-08
3.59698e-08
3.46432e-08
3.36601e-08
3.29495e-08
3.24598e-08
3.21522e-08
3.19971e-08
3.19711e-08
3.20554e-08
3.2235e-08
3.24972e-08
3.28313e-08
3.32282e-08
3.36803e-08
3.41807e-08
3.47235e-08
3.53034e-08
3.59157e-08
3.65561e-08
3.72209e-08
3.79065e-08
3.86097e-08
3.93276e-08
4.00574e-08
4.07967e-08