/*--------------------------------*- C++ -*----------------------------------*\
  =========                 |
  \\      /  F ield         | OpenFOAM: The Open Source CFD Toolbox
   \\    /   O peration     | Website:  https://openfoam.org
    \\  /    A nd           | Version:  12
     \\/     M anipulation  |
\*---------------------------------------------------------------------------*/
FoamFile
{
    format      ascii;
    class       volScalarField;
    location    "9.5";
    object      k;
}
// * * * * * * * * * * * * * * * * * * * * * * * * * * * * * * * * * * * * * //

dimensions      [0 2 -2 0 0 0 0];

internalField   nonuniform List<scalar> 
18225
(
2.97412e-13
2.24727e-12
4.76908e-12
7.78933e-12
1.12072e-11
1.49492e-11
1.89644e-11
2.32164e-11
2.76773e-11
3.23252e-11
3.71413e-11
4.211e-11
4.72172e-11
5.24504e-11
5.77982e-11
6.32501e-11
6.87962e-11
7.44273e-11
8.01346e-11
8.59096e-11
9.17441e-11
9.76304e-11
1.03561e-10
1.09527e-10
1.15523e-10
1.21542e-10
1.27575e-10
1.33615e-10
1.39657e-10
1.45693e-10
1.51717e-10
1.57721e-10
1.637e-10
1.69646e-10
1.75553e-10
1.81414e-10
1.87224e-10
1.92976e-10
1.98663e-10
2.04279e-10
2.09818e-10
2.15274e-10
2.20641e-10
2.25913e-10
2.31084e-10
2.36147e-10
2.41098e-10
2.45931e-10
2.50639e-10
2.55217e-10
2.5966e-10
2.63962e-10
2.68118e-10
2.72123e-10
2.75972e-10
2.79658e-10
2.83178e-10
2.86527e-10
2.89699e-10
2.9269e-10
2.95496e-10
2.98112e-10
3.00533e-10
3.02755e-10
3.04775e-10
3.06589e-10
3.08192e-10
3.0958e-10
3.10751e-10
3.11702e-10
3.12428e-10
3.12928e-10
3.13197e-10
3.13234e-10
3.13037e-10
3.12603e-10
3.1193e-10
3.11017e-10
3.09862e-10
3.08465e-10
3.06824e-10
3.04939e-10
3.0281e-10
3.00438e-10
2.97822e-10
2.94965e-10
2.91866e-10
2.88528e-10
2.84952e-10
2.81142e-10
2.771e-10
2.7283e-10
2.68334e-10
2.63618e-10
2.58686e-10
2.53543e-10
2.48195e-10
2.42647e-10
2.36907e-10
2.3098e-10
2.24876e-10
2.186e-10
2.12162e-10
2.05571e-10
1.98835e-10
1.91965e-10
1.84971e-10
1.77864e-10
1.70654e-10
1.63353e-10
1.55974e-10
1.48529e-10
1.4103e-10
1.33493e-10
1.2593e-10
1.18356e-10
1.10787e-10
1.03238e-10
9.57248e-11
8.82658e-11
8.08784e-11
7.35815e-11
6.6395e-11
5.93401e-11
5.24398e-11
4.57191e-11
3.92054e-11
3.29301e-11
2.69295e-11
2.12477e-11
1.5941e-11
1.10856e-11
6.78979e-12
3.20014e-12
4.2353e-13
2.01235e-12
1.79178e-11
4.0886e-11
6.84454e-11
9.94708e-11
1.33319e-10
1.69568e-10
2.0791e-10
2.48109e-10
2.89973e-10
3.33339e-10
3.78069e-10
4.24039e-10
4.71136e-10
5.19261e-10
5.68319e-10
6.18221e-10
6.68886e-10
7.20233e-10
7.72188e-10
8.24678e-10
8.77631e-10
9.3098e-10
9.84656e-10
1.03859e-09
1.09273e-09
1.147e-09
1.20134e-09
1.25569e-09
1.30999e-09
1.36417e-09
1.41818e-09
1.47196e-09
1.52545e-09
1.57858e-09
1.63131e-09
1.68357e-09
1.73531e-09
1.78647e-09
1.83699e-09
1.88682e-09
1.9359e-09
1.98418e-09
2.0316e-09
2.07812e-09
2.12367e-09
2.16821e-09
2.21169e-09
2.25404e-09
2.29523e-09
2.3352e-09
2.37391e-09
2.41131e-09
2.44734e-09
2.48196e-09
2.51513e-09
2.54681e-09
2.57694e-09
2.60548e-09
2.6324e-09
2.65765e-09
2.68119e-09
2.70298e-09
2.72299e-09
2.74117e-09
2.7575e-09
2.77193e-09
2.78443e-09
2.79498e-09
2.80354e-09
2.81008e-09
2.81458e-09
2.81701e-09
2.81736e-09
2.81559e-09
2.81169e-09
2.80565e-09
2.79744e-09
2.78706e-09
2.7745e-09
2.75974e-09
2.7428e-09
2.72366e-09
2.70232e-09
2.6788e-09
2.6531e-09
2.62523e-09
2.59521e-09
2.56305e-09
2.52878e-09
2.49242e-09
2.45401e-09
2.41357e-09
2.37115e-09
2.32679e-09
2.28052e-09
2.23241e-09
2.1825e-09
2.13086e-09
2.07754e-09
2.02262e-09
1.96616e-09
1.90824e-09
1.84894e-09
1.78834e-09
1.72653e-09
1.6636e-09
1.59965e-09
1.53477e-09
1.46908e-09
1.40268e-09
1.33569e-09
1.26822e-09
1.20039e-09
1.13233e-09
1.06417e-09
9.96047e-10
9.28104e-10
8.60487e-10
7.93348e-10
7.2685e-10
6.61161e-10
5.96459e-10
5.32935e-10
4.70792e-10
4.10252e-10
3.51561e-10
2.94991e-10
2.4086e-10
1.89547e-10
1.41527e-10
9.74369e-11
5.82255e-11
2.55218e-11
2.86647e-12
4.48208e-12
4.02091e-11
9.23508e-11
1.55349e-10
2.26556e-10
3.04413e-10
3.87889e-10
4.76239e-10
5.68894e-10
6.65399e-10
7.65373e-10
8.68488e-10
9.74459e-10
1.08303e-09
1.19396e-09
1.30704e-09
1.42206e-09
1.53883e-09
1.65718e-09
1.77692e-09
1.8979e-09
2.01994e-09
2.14289e-09
2.2666e-09
2.39091e-09
2.51567e-09
2.64074e-09
2.76598e-09
2.89124e-09
3.01637e-09
3.14125e-09
3.26573e-09
3.38968e-09
3.51295e-09
3.63542e-09
3.75694e-09
3.8774e-09
3.99665e-09
4.11456e-09
4.23102e-09
4.34587e-09
4.45901e-09
4.57031e-09
4.67964e-09
4.78687e-09
4.89189e-09
4.99457e-09
5.09481e-09
5.19247e-09
5.28744e-09
5.37961e-09
5.46887e-09
5.55511e-09
5.63821e-09
5.71807e-09
5.79459e-09
5.86765e-09
5.93717e-09
6.00303e-09
6.06514e-09
6.12341e-09
6.17775e-09
6.22805e-09
6.27425e-09
6.31624e-09
6.35395e-09
6.3873e-09
6.41622e-09
6.44062e-09
6.46045e-09
6.47562e-09
6.4861e-09
6.4918e-09
6.4927e-09
6.48873e-09
6.47984e-09
6.46601e-09
6.44719e-09
6.42335e-09
6.39449e-09
6.36057e-09
6.3216e-09
6.27756e-09
6.22846e-09
6.17432e-09
6.11514e-09
6.05097e-09
5.98182e-09
5.90775e-09
5.8288e-09
5.74503e-09
5.65652e-09
5.56333e-09
5.46557e-09
5.36331e-09
5.25667e-09
5.14576e-09
5.03071e-09
4.91165e-09
4.78872e-09
4.66209e-09
4.5319e-09
4.39833e-09
4.26158e-09
4.12182e-09
3.97927e-09
3.83413e-09
3.68663e-09
3.53699e-09
3.38547e-09
3.2323e-09
3.07775e-09
2.9221e-09
2.76562e-09
2.6086e-09
2.45135e-09
2.29417e-09
2.1374e-09
1.98138e-09
1.82646e-09
1.67301e-09
1.52142e-09
1.3721e-09
1.2255e-09
1.08208e-09
9.42364e-10
8.06918e-10
6.76388e-10
5.51524e-10
4.33233e-10
3.22663e-10
2.2137e-10
1.31647e-10
5.73301e-11
6.39084e-12
7.42887e-12
6.67555e-11
1.53644e-10
2.58985e-10
3.78381e-10
5.09195e-10
6.49647e-10
7.98444e-10
9.54593e-10
1.1173e-09
1.2859e-09
1.45983e-09
1.6386e-09
1.82177e-09
2.00893e-09
2.19972e-09
2.3938e-09
2.59084e-09
2.79053e-09
2.99258e-09
3.19671e-09
3.40264e-09
3.61011e-09
3.81885e-09
4.02861e-09
4.23915e-09
4.4502e-09
4.66154e-09
4.87292e-09
5.08409e-09
5.29484e-09
5.50492e-09
5.7141e-09
5.92215e-09
6.12885e-09
6.33397e-09
6.53729e-09
6.73858e-09
6.93762e-09
7.13421e-09
7.32811e-09
7.51912e-09
7.70702e-09
7.89161e-09
8.07268e-09
8.25002e-09
8.42343e-09
8.5927e-09
8.75765e-09
8.91807e-09
9.07378e-09
9.22457e-09
9.37027e-09
9.51069e-09
9.64565e-09
9.77497e-09
9.89848e-09
1.0016e-08
1.01274e-08
1.02324e-08
1.0331e-08
1.04229e-08
1.05081e-08
1.05863e-08
1.06574e-08
1.07213e-08
1.07778e-08
1.08269e-08
1.08683e-08
1.09021e-08
1.0928e-08
1.09459e-08
1.09558e-08
1.09576e-08
1.09511e-08
1.09364e-08
1.09133e-08
1.08818e-08
1.08418e-08
1.07933e-08
1.07363e-08
1.06707e-08
1.05966e-08
1.05139e-08
1.04227e-08
1.0323e-08
1.02148e-08
1.00983e-08
9.97336e-09
9.84021e-09
9.69891e-09
9.54957e-09
9.39234e-09
9.22734e-09
9.05475e-09
8.87475e-09
8.68751e-09
8.49327e-09
8.29223e-09
8.08465e-09
7.87078e-09
7.6509e-09
7.4253e-09
7.19429e-09
6.9582e-09
6.71737e-09
6.47215e-09
6.22293e-09
5.9701e-09
5.71405e-09
5.45523e-09
5.19406e-09
4.931e-09
4.66654e-09
4.40116e-09
4.13538e-09
3.86973e-09
3.60476e-09
3.34104e-09
3.07918e-09
2.81981e-09
2.5636e-09
2.31123e-09
2.06347e-09
1.82113e-09
1.58508e-09
1.35631e-09
1.13595e-09
9.25288e-10
7.25911e-10
5.39816e-10
3.6968e-10
2.19395e-10
9.53436e-11
1.06109e-11
1.07252e-11
9.6435e-11
2.22159e-10
3.74862e-10
5.4824e-10
7.38477e-10
9.42974e-10
1.15982e-09
1.38755e-09
1.62496e-09
1.87108e-09
2.12506e-09
2.38615e-09
2.65372e-09
2.92715e-09
3.20592e-09
3.48951e-09
3.77744e-09
4.06926e-09
4.36455e-09
4.66289e-09
4.96387e-09
5.26711e-09
5.57222e-09
5.87883e-09
6.18658e-09
6.49511e-09
6.80405e-09
7.11307e-09
7.42181e-09
7.72992e-09
8.03708e-09
8.34293e-09
8.64716e-09
8.94941e-09
9.24938e-09
9.54672e-09
9.84111e-09
1.01322e-08
1.04198e-08
1.07034e-08
1.09829e-08
1.12578e-08
1.15279e-08
1.17928e-08
1.20523e-08
1.23061e-08
1.25539e-08
1.27953e-08
1.30302e-08
1.32582e-08
1.3479e-08
1.36924e-08
1.38981e-08
1.40958e-08
1.42853e-08
1.44663e-08
1.46386e-08
1.48018e-08
1.49559e-08
1.51005e-08
1.52354e-08
1.53604e-08
1.54753e-08
1.55798e-08
1.56738e-08
1.5757e-08
1.58293e-08
1.58905e-08
1.59403e-08
1.59788e-08
1.60055e-08
1.60206e-08
1.60237e-08
1.60149e-08
1.59938e-08
1.59606e-08
1.5915e-08
1.5857e-08
1.57866e-08
1.57037e-08
1.56083e-08
1.55003e-08
1.53798e-08
1.52468e-08
1.51013e-08
1.49434e-08
1.47732e-08
1.45908e-08
1.43963e-08
1.41898e-08
1.39716e-08
1.37417e-08
1.35005e-08
1.32481e-08
1.29848e-08
1.2711e-08
1.24268e-08
1.21326e-08
1.18289e-08
1.15159e-08
1.1194e-08
1.08638e-08
1.05256e-08
1.018e-08
9.82737e-09
9.46831e-09
9.10335e-09
8.73308e-09
8.35809e-09
7.97901e-09
7.59648e-09
7.21117e-09
6.82379e-09
6.43506e-09
6.04573e-09
5.65659e-09
5.26845e-09
4.88216e-09
4.4986e-09
4.1187e-09
3.74345e-09
3.37389e-09
3.01113e-09
2.65638e-09
2.31095e-09
1.97631e-09
1.65414e-09
1.34637e-09
1.05536e-09
7.84066e-10
5.36403e-10
3.18014e-10
1.38073e-10
1.5357e-11
1.42917e-11
1.28539e-10
2.96262e-10
5.0019e-10
7.31982e-10
9.86577e-10
1.26051e-09
1.55121e-09
1.85669e-09
2.17533e-09
2.5058e-09
2.84693e-09
3.19773e-09
3.55729e-09
3.92482e-09
4.29956e-09
4.68083e-09
5.06799e-09
5.46041e-09
5.85752e-09
6.25876e-09
6.66359e-09
7.07147e-09
7.4819e-09
7.89437e-09
8.3084e-09
8.72349e-09
9.13917e-09
9.55497e-09
9.97042e-09
1.03851e-08
1.07984e-08
1.12101e-08
1.16196e-08
1.20264e-08
1.24302e-08
1.28305e-08
1.32269e-08
1.36189e-08
1.40061e-08
1.43881e-08
1.47645e-08
1.51348e-08
1.54986e-08
1.58556e-08
1.62053e-08
1.65473e-08
1.68812e-08
1.72067e-08
1.75233e-08
1.78307e-08
1.81286e-08
1.84164e-08
1.86939e-08
1.89607e-08
1.92165e-08
1.94609e-08
1.96935e-08
1.99141e-08
2.01223e-08
2.03178e-08
2.05003e-08
2.06694e-08
2.0825e-08
2.09666e-08
2.1094e-08
2.1207e-08
2.13053e-08
2.13886e-08
2.14567e-08
2.15094e-08
2.15464e-08
2.15676e-08
2.15728e-08
2.15618e-08
2.15345e-08
2.14907e-08
2.14302e-08
2.13531e-08
2.12591e-08
2.11483e-08
2.10206e-08
2.0876e-08
2.07144e-08
2.0536e-08
2.03408e-08
2.01288e-08
1.99002e-08
1.9655e-08
1.93935e-08
1.91159e-08
1.88223e-08
1.85131e-08
1.81884e-08
1.78487e-08
1.74942e-08
1.71254e-08
1.67427e-08
1.63464e-08
1.59372e-08
1.55154e-08
1.50817e-08
1.46366e-08
1.41807e-08
1.37148e-08
1.32394e-08
1.27552e-08
1.22631e-08
1.17638e-08
1.1258e-08
1.07468e-08
1.02308e-08
9.71112e-09
9.1886e-09
8.66426e-09
8.13911e-09
7.61421e-09
7.09068e-09
6.56966e-09
6.05237e-09
5.54007e-09
5.0341e-09
4.53588e-09
4.04693e-09
3.56889e-09
3.10358e-09
2.653e-09
2.21943e-09
1.80552e-09
1.41446e-09
1.05021e-09
7.18045e-10
4.25457e-10
1.84634e-10
2.05297e-11
1.80703e-11
1.6255e-10
3.74757e-10
6.3294e-10
9.26612e-10
1.24941e-09
1.59696e-09
1.96601e-09
2.35404e-09
2.75898e-09
3.17912e-09
3.61296e-09
4.05923e-09
4.51676e-09
4.98452e-09
5.46155e-09
5.94697e-09
6.43994e-09
6.93968e-09
7.44545e-09
7.95653e-09
8.47221e-09
8.99184e-09
9.51476e-09
1.00403e-08
1.05679e-08
1.10969e-08
1.16267e-08
1.21566e-08
1.26862e-08
1.32148e-08
1.37418e-08
1.42666e-08
1.47888e-08
1.53076e-08
1.58226e-08
1.63332e-08
1.68388e-08
1.73389e-08
1.78329e-08
1.83204e-08
1.88007e-08
1.92733e-08
1.97378e-08
2.01935e-08
2.06401e-08
2.10768e-08
2.15034e-08
2.19192e-08
2.23238e-08
2.27167e-08
2.30974e-08
2.34654e-08
2.38203e-08
2.41616e-08
2.44889e-08
2.48018e-08
2.50997e-08
2.53822e-08
2.56491e-08
2.58997e-08
2.61338e-08
2.63509e-08
2.65507e-08
2.67328e-08
2.68968e-08
2.70425e-08
2.71693e-08
2.72771e-08
2.73655e-08
2.74343e-08
2.74831e-08
2.75117e-08
2.75198e-08
2.75073e-08
2.7474e-08
2.74195e-08
2.73439e-08
2.72469e-08
2.71284e-08
2.69883e-08
2.68267e-08
2.66434e-08
2.64385e-08
2.6212e-08
2.59639e-08
2.56944e-08
2.54035e-08
2.50916e-08
2.47586e-08
2.4405e-08
2.4031e-08
2.36368e-08
2.32229e-08
2.27897e-08
2.23375e-08
2.1867e-08
2.13785e-08
2.08728e-08
2.03503e-08
1.98118e-08
1.92579e-08
1.86894e-08
1.81071e-08
1.75118e-08
1.69044e-08
1.62857e-08
1.56568e-08
1.50187e-08
1.43723e-08
1.37188e-08
1.30593e-08
1.23949e-08
1.1727e-08
1.10567e-08
1.03854e-08
9.71446e-09
9.04527e-09
8.37934e-09
7.71823e-09
7.06357e-09
6.4171e-09
5.78064e-09
5.15617e-09
4.54582e-09
3.95191e-09
3.37702e-09
2.8241e-09
2.29654e-09
1.7984e-09
1.33475e-09
9.12229e-10
5.40325e-10
2.34417e-10
2.60611e-11
2.20149e-11
1.98053e-10
4.56688e-10
7.71495e-10
1.12975e-09
1.52374e-09
1.94816e-09
2.39906e-09
2.87336e-09
3.36852e-09
3.88245e-09
4.41332e-09
4.95954e-09
5.51969e-09
6.09249e-09
6.67675e-09
7.27139e-09
7.87537e-09
8.48774e-09
9.10757e-09
9.73398e-09
1.03661e-08
1.10031e-08
1.16443e-08
1.22887e-08
1.29357e-08
1.35845e-08
1.42343e-08
1.48844e-08
1.5534e-08
1.61826e-08
1.68292e-08
1.74733e-08
1.81142e-08
1.8751e-08
1.93832e-08
2.00101e-08
2.0631e-08
2.12451e-08
2.18519e-08
2.24507e-08
2.30408e-08
2.36216e-08
2.41925e-08
2.47527e-08
2.53016e-08
2.58387e-08
2.63634e-08
2.68749e-08
2.73727e-08
2.78563e-08
2.8325e-08
2.87782e-08
2.92154e-08
2.96359e-08
3.00394e-08
3.04251e-08
3.07926e-08
3.11414e-08
3.14708e-08
3.17805e-08
3.20699e-08
3.23386e-08
3.2586e-08
3.28117e-08
3.30152e-08
3.31962e-08
3.33542e-08
3.34889e-08
3.35997e-08
3.36864e-08
3.37486e-08
3.3786e-08
3.37982e-08
3.37852e-08
3.37465e-08
3.36818e-08
3.3591e-08
3.34739e-08
3.33304e-08
3.31604e-08
3.29638e-08
3.27405e-08
3.24905e-08
3.22139e-08
3.19107e-08
3.15811e-08
3.12252e-08
3.08432e-08
3.04353e-08
3.00019e-08
2.95432e-08
2.90597e-08
2.85518e-08
2.802e-08
2.74648e-08
2.68869e-08
2.62868e-08
2.56653e-08
2.50232e-08
2.43612e-08
2.36802e-08
2.29811e-08
2.22649e-08
2.15326e-08
2.07853e-08
2.00241e-08
1.92502e-08
1.84649e-08
1.76694e-08
1.68651e-08
1.60533e-08
1.52356e-08
1.44135e-08
1.35884e-08
1.27621e-08
1.19363e-08
1.11127e-08
1.02931e-08
9.47958e-09
8.67409e-09
7.87879e-09
7.09596e-09
6.32805e-09
5.57769e-09
4.84777e-09
4.14148e-09
3.46244e-09
2.81484e-09
2.20365e-09
1.63506e-09
1.11718e-09
6.61572e-10
2.86968e-10
3.19004e-11
2.60866e-11
2.34697e-10
5.41252e-10
9.14495e-10
1.3394e-09
1.80687e-09
2.31063e-09
2.84603e-09
3.40941e-09
3.99779e-09
4.60865e-09
5.23982e-09
5.88942e-09
6.55574e-09
7.23724e-09
7.93253e-09
8.64028e-09
9.35929e-09
1.00884e-08
1.08265e-08
1.15725e-08
1.23254e-08
1.30843e-08
1.38481e-08
1.4616e-08
1.5387e-08
1.61602e-08
1.69347e-08
1.77097e-08
1.84843e-08
1.92576e-08
2.00288e-08
2.0797e-08
2.15614e-08
2.23212e-08
2.30755e-08
2.38236e-08
2.45646e-08
2.52978e-08
2.60223e-08
2.67373e-08
2.74421e-08
2.81359e-08
2.88179e-08
2.94874e-08
3.01436e-08
3.07857e-08
3.14131e-08
3.2025e-08
3.26206e-08
3.31994e-08
3.37604e-08
3.43032e-08
3.48269e-08
3.5331e-08
3.58146e-08
3.62773e-08
3.67183e-08
3.71371e-08
3.75329e-08
3.79052e-08
3.82534e-08
3.85768e-08
3.8875e-08
3.91474e-08
3.93934e-08
3.96125e-08
3.98042e-08
3.9968e-08
4.01035e-08
4.02102e-08
4.02876e-08
4.03354e-08
4.03532e-08
4.03407e-08
4.02976e-08
4.02234e-08
4.0118e-08
3.99812e-08
3.98127e-08
3.96125e-08
3.93803e-08
3.91163e-08
3.88202e-08
3.84923e-08
3.81324e-08
3.77408e-08
3.73177e-08
3.68632e-08
3.63777e-08
3.58614e-08
3.53149e-08
3.47385e-08
3.41327e-08
3.34982e-08
3.28356e-08
3.21457e-08
3.14291e-08
3.06867e-08
2.99194e-08
2.91282e-08
2.83142e-08
2.74784e-08
2.6622e-08
2.57462e-08
2.48523e-08
2.39417e-08
2.30158e-08
2.20762e-08
2.11243e-08
2.01617e-08
1.91903e-08
1.82116e-08
1.72277e-08
1.62402e-08
1.52513e-08
1.4263e-08
1.32774e-08
1.22967e-08
1.13234e-08
1.03597e-08
9.40845e-09
8.47225e-09
7.55407e-09
6.65709e-09
5.78478e-09
4.94097e-09
4.12999e-09
3.35682e-09
2.62741e-09
1.94909e-09
1.3315e-09
7.88363e-10
3.41926e-10
3.80073e-11
3.02515e-11
2.72179e-10
6.27744e-10
1.06075e-09
1.55382e-09
2.09643e-09
2.68134e-09
3.30318e-09
3.9577e-09
4.64145e-09
5.35152e-09
6.08539e-09
6.84086e-09
7.61594e-09
8.40886e-09
9.21795e-09
1.00417e-08
1.08787e-08
1.17276e-08
1.2587e-08
1.34559e-08
1.43329e-08
1.52169e-08
1.61069e-08
1.70016e-08
1.79002e-08
1.88014e-08
1.97043e-08
2.06079e-08
2.15111e-08
2.24129e-08
2.33124e-08
2.42086e-08
2.51005e-08
2.59871e-08
2.68675e-08
2.77408e-08
2.86059e-08
2.94621e-08
3.03083e-08
3.11436e-08
3.19671e-08
3.27779e-08
3.35751e-08
3.43579e-08
3.51253e-08
3.58765e-08
3.66106e-08
3.73268e-08
3.80242e-08
3.8702e-08
3.93594e-08
3.99956e-08
4.06097e-08
4.12009e-08
4.17686e-08
4.23118e-08
4.28299e-08
4.33222e-08
4.37878e-08
4.4226e-08
4.46362e-08
4.50177e-08
4.53698e-08
4.56918e-08
4.59831e-08
4.6243e-08
4.6471e-08
4.66665e-08
4.6829e-08
4.69578e-08
4.70524e-08
4.71125e-08
4.71375e-08
4.71271e-08
4.70809e-08
4.69983e-08
4.68792e-08
4.67233e-08
4.65303e-08
4.63001e-08
4.60325e-08
4.57275e-08
4.53849e-08
4.50049e-08
4.45874e-08
4.41327e-08
4.36408e-08
4.31122e-08
4.2547e-08
4.19457e-08
4.13087e-08
4.06367e-08
3.993e-08
3.91896e-08
3.8416e-08
3.76102e-08
3.6773e-08
3.59054e-08
3.50085e-08
3.40834e-08
3.31314e-08
3.21537e-08
3.11517e-08
3.01268e-08
2.90806e-08
2.80147e-08
2.69308e-08
2.58306e-08
2.4716e-08
2.35889e-08
2.24512e-08
2.13052e-08
2.01528e-08
1.89964e-08
1.78383e-08
1.66809e-08
1.55267e-08
1.43785e-08
1.32388e-08
1.21108e-08
1.09973e-08
9.90163e-09
8.82728e-09
7.77795e-09
6.75771e-09
5.77106e-09
4.82305e-09
3.91951e-09
3.06734e-09
2.27511e-09
1.55402e-09
9.20007e-10
3.98989e-10
4.43484e-11
3.44793e-11
3.10227e-10
7.15538e-10
1.2092e-09
1.77145e-09
2.39032e-09
3.0576e-09
3.76716e-09
4.51421e-09
5.29479e-09
6.1056e-09
6.94378e-09
7.80679e-09
8.6924e-09
9.59855e-09
1.05234e-08
1.14651e-08
1.24221e-08
1.33929e-08
1.43759e-08
1.53698e-08
1.63732e-08
1.73848e-08
1.84033e-08
1.94275e-08
2.04561e-08
2.1488e-08
2.25219e-08
2.35567e-08
2.45913e-08
2.56245e-08
2.66552e-08
2.76823e-08
2.87046e-08
2.97211e-08
3.07306e-08
3.17321e-08
3.27246e-08
3.37069e-08
3.46779e-08
3.56367e-08
3.65822e-08
3.75133e-08
3.84291e-08
3.93285e-08
4.02105e-08
4.10742e-08
4.19184e-08
4.27423e-08
4.35449e-08
4.43252e-08
4.50823e-08
4.58152e-08
4.65231e-08
4.72049e-08
4.78599e-08
4.8487e-08
4.90856e-08
4.96545e-08
5.01932e-08
5.07006e-08
5.1176e-08
5.16185e-08
5.20275e-08
5.2402e-08
5.27415e-08
5.3045e-08
5.3312e-08
5.35418e-08
5.37336e-08
5.38869e-08
5.4001e-08
5.40754e-08
5.41095e-08
5.4103e-08
5.40554e-08
5.39659e-08
5.38343e-08
5.36604e-08
5.34438e-08
5.31844e-08
5.28818e-08
5.25361e-08
5.21471e-08
5.17149e-08
5.12394e-08
5.07209e-08
5.01595e-08
4.95556e-08
4.89095e-08
4.82216e-08
4.74924e-08
4.67226e-08
4.59128e-08
4.50638e-08
4.41764e-08
4.32517e-08
4.22907e-08
4.12944e-08
4.02642e-08
3.92012e-08
3.8107e-08
3.69831e-08
3.58309e-08
3.46523e-08
3.34489e-08
3.22227e-08
3.09755e-08
2.97095e-08
2.84268e-08
2.71296e-08
2.58202e-08
2.4501e-08
2.31746e-08
2.18435e-08
2.05104e-08
1.91782e-08
1.78499e-08
1.65284e-08
1.52169e-08
1.39189e-08
1.26378e-08
1.13774e-08
1.01417e-08
8.93506e-09
7.76208e-09
6.62794e-09
5.53847e-09
4.50034e-09
3.52147e-09
2.61166e-09
1.78372e-09
1.05591e-09
4.57898e-10
5.08947e-11
3.87427e-11
3.48594e-10
8.04067e-10
1.35889e-09
1.99089e-09
2.68665e-09
3.43697e-09
4.23499e-09
5.07532e-09
5.95355e-09
6.86596e-09
7.80934e-09
8.78087e-09
9.778e-09
1.07984e-08
1.18401e-08
1.29009e-08
1.39792e-08
1.50731e-08
1.6181e-08
1.73013e-08
1.84326e-08
1.95732e-08
2.07218e-08
2.1877e-08
2.30374e-08
2.42016e-08
2.53684e-08
2.65363e-08
2.77042e-08
2.88707e-08
3.00346e-08
3.11946e-08
3.23495e-08
3.3498e-08
3.46389e-08
3.5771e-08
3.6893e-08
3.80039e-08
3.91023e-08
4.01871e-08
4.12571e-08
4.23112e-08
4.33482e-08
4.43669e-08
4.53663e-08
4.63451e-08
4.73024e-08
4.82369e-08
4.91475e-08
5.00333e-08
5.0893e-08
5.17258e-08
5.25304e-08
5.33059e-08
5.40512e-08
5.47653e-08
5.54473e-08
5.60961e-08
5.67108e-08
5.72904e-08
5.7834e-08
5.83406e-08
5.88094e-08
5.92395e-08
5.96299e-08
5.99799e-08
6.02886e-08
6.05552e-08
6.07791e-08
6.09593e-08
6.10953e-08
6.11864e-08
6.12319e-08
6.12312e-08
6.11841e-08
6.10895e-08
6.09472e-08
6.07568e-08
6.05179e-08
6.02304e-08
5.98939e-08
5.95082e-08
5.90734e-08
5.85893e-08
5.8056e-08
5.74737e-08
5.68425e-08
5.61628e-08
5.5435e-08
5.46595e-08
5.38369e-08
5.2968e-08
5.20533e-08
5.10939e-08
5.00907e-08
4.90448e-08
4.79573e-08
4.68296e-08
4.5663e-08
4.4459e-08
4.32192e-08
4.19454e-08
4.06393e-08
3.9303e-08
3.79383e-08
3.65475e-08
3.51327e-08
3.36964e-08
3.22409e-08
3.07689e-08
2.92829e-08
2.77858e-08
2.62804e-08
2.47696e-08
2.32567e-08
2.17448e-08
2.02373e-08
1.87377e-08
1.72495e-08
1.57768e-08
1.43234e-08
1.28937e-08
1.14923e-08
1.01239e-08
8.79393e-09
7.50827e-09
6.27346e-09
5.09706e-09
3.98803e-09
2.95742e-09
2.01971e-09
1.19553e-09
5.18425e-10
5.76209e-11
4.30169e-11
3.87058e-10
8.92818e-10
1.50895e-09
2.21086e-09
2.9837e-09
3.81725e-09
4.70392e-09
5.63776e-09
6.61387e-09
7.62814e-09
8.677e-09
9.75733e-09
1.08663e-08
1.20014e-08
1.31602e-08
1.43406e-08
1.55406e-08
1.67582e-08
1.79915e-08
1.92389e-08
2.04985e-08
2.17689e-08
2.30484e-08
2.43353e-08
2.56283e-08
2.69258e-08
2.82263e-08
2.95285e-08
3.08307e-08
3.21317e-08
3.343e-08
3.47243e-08
3.6013e-08
3.7295e-08
3.85687e-08
3.98329e-08
4.10863e-08
4.23273e-08
4.35549e-08
4.47675e-08
4.5964e-08
4.7143e-08
4.83033e-08
4.94435e-08
5.05624e-08
5.16587e-08
5.27313e-08
5.37788e-08
5.48e-08
5.57937e-08
5.67587e-08
5.76939e-08
5.85979e-08
5.94698e-08
6.03083e-08
6.11122e-08
6.18805e-08
6.2612e-08
6.33057e-08
6.39604e-08
6.45751e-08
6.51487e-08
6.56802e-08
6.61686e-08
6.6613e-08
6.70122e-08
6.73655e-08
6.76719e-08
6.79305e-08
6.81404e-08
6.83008e-08
6.84111e-08
6.84703e-08
6.84779e-08
6.84335e-08
6.8336e-08
6.81849e-08
6.79798e-08
6.77204e-08
6.74063e-08
6.70372e-08
6.66128e-08
6.61332e-08
6.55981e-08
6.50077e-08
6.4362e-08
6.36613e-08
6.29059e-08
6.20963e-08
6.12328e-08
6.03163e-08
5.93473e-08
5.83268e-08
5.72558e-08
5.61352e-08
5.49663e-08
5.37505e-08
5.24892e-08
5.11839e-08
4.98363e-08
4.84483e-08
4.70217e-08
4.55586e-08
4.40612e-08
4.25319e-08
4.09729e-08
3.93868e-08
3.77764e-08
3.61442e-08
3.44934e-08
3.28268e-08
3.11475e-08
2.9459e-08
2.77644e-08
2.60673e-08
2.43715e-08
2.26805e-08
2.09985e-08
1.93296e-08
1.7678e-08
1.60483e-08
1.44453e-08
1.28741e-08
1.13403e-08
9.84974e-09
8.40902e-09
7.0255e-09
5.70763e-09
4.46542e-09
3.31122e-09
2.2612e-09
1.33841e-09
5.80361e-10
6.45039e-11
4.72794e-11
4.25416e-10
9.81322e-10
1.65859e-09
2.43021e-09
3.27989e-09
4.19642e-09
5.17149e-09
6.19855e-09
7.27225e-09
8.38807e-09
9.54212e-09
1.0731e-08
1.19515e-08
1.32009e-08
1.44767e-08
1.57764e-08
1.70979e-08
1.84389e-08
1.97975e-08
2.11718e-08
2.25598e-08
2.39598e-08
2.53701e-08
2.6789e-08
2.82146e-08
2.96456e-08
3.10801e-08
3.25166e-08
3.39536e-08
3.53895e-08
3.68227e-08
3.82517e-08
3.9675e-08
4.10911e-08
4.24985e-08
4.38957e-08
4.52812e-08
4.66536e-08
4.80114e-08
4.93531e-08
5.06773e-08
5.19827e-08
5.32677e-08
5.4531e-08
5.57711e-08
5.69867e-08
5.81764e-08
5.93388e-08
6.04726e-08
6.15764e-08
6.26489e-08
6.36888e-08
6.46947e-08
6.56653e-08
6.65995e-08
6.74958e-08
6.8353e-08
6.91699e-08
6.99453e-08
7.06779e-08
7.13665e-08
7.201e-08
7.26072e-08
7.31569e-08
7.36581e-08
7.41095e-08
7.45103e-08
7.48592e-08
7.51554e-08
7.53978e-08
7.55856e-08
7.57177e-08
7.57934e-08
7.58118e-08
7.57726e-08
7.56745e-08
7.55169e-08
7.52995e-08
7.50216e-08
7.46828e-08
7.42829e-08
7.38215e-08
7.32985e-08
7.27138e-08
7.20673e-08
7.13593e-08
7.05898e-08
6.97593e-08
6.88682e-08
6.79169e-08
6.69064e-08
6.58372e-08
6.47103e-08
6.35269e-08
6.22881e-08
6.09952e-08
5.96498e-08
5.82533e-08
5.68076e-08
5.53145e-08
5.37761e-08
5.21945e-08
5.0572e-08
4.8911e-08
4.72141e-08
4.54841e-08
4.37237e-08
4.19359e-08
4.01239e-08
3.82908e-08
3.64402e-08
3.45753e-08
3.27e-08
3.0818e-08
2.89332e-08
2.70497e-08
2.51718e-08
2.33038e-08
2.14505e-08
1.96165e-08
1.7807e-08
1.60273e-08
1.42831e-08
1.25806e-08
1.09262e-08
9.32742e-09
7.79229e-09
6.33018e-09
4.95218e-09
3.67196e-09
2.50743e-09
1.4841e-09
6.43517e-10
7.15224e-11
5.15098e-11
4.63484e-10
1.06915e-09
1.80709e-09
2.64789e-09
3.57381e-09
4.57268e-09
5.63544e-09
6.75499e-09
7.92552e-09
9.1421e-09
1.04005e-08
1.1697e-08
1.30283e-08
1.43912e-08
1.57831e-08
1.72013e-08
1.86433e-08
2.0107e-08
2.15901e-08
2.30904e-08
2.46061e-08
2.61351e-08
2.76755e-08
2.92256e-08
3.07834e-08
3.23471e-08
3.39152e-08
3.54857e-08
3.70571e-08
3.86275e-08
4.01954e-08
4.17591e-08
4.33169e-08
4.48672e-08
4.64083e-08
4.79387e-08
4.94568e-08
5.09609e-08
5.24494e-08
5.39209e-08
5.53736e-08
5.68062e-08
5.82169e-08
5.96043e-08
6.09668e-08
6.2303e-08
6.36112e-08
6.48901e-08
6.61381e-08
6.73537e-08
6.85355e-08
6.96821e-08
7.07919e-08
7.18635e-08
7.28955e-08
7.38866e-08
7.48352e-08
7.574e-08
7.65997e-08
7.74129e-08
7.81782e-08
7.88944e-08
7.956e-08
8.0174e-08
8.07348e-08
8.12415e-08
8.16927e-08
8.20872e-08
8.2424e-08
8.27019e-08
8.29198e-08
8.30767e-08
8.31717e-08
8.32038e-08
8.31725e-08
8.30767e-08
8.29152e-08
8.26878e-08
8.23938e-08
8.20327e-08
8.16042e-08
8.11078e-08
8.05433e-08
7.99106e-08
7.92097e-08
7.84407e-08
7.76037e-08
7.66991e-08
7.57273e-08
7.4689e-08
7.35848e-08
7.24157e-08
7.11826e-08
6.98866e-08
6.85292e-08
6.71118e-08
6.56359e-08
6.41034e-08
6.25162e-08
6.08763e-08
5.91859e-08
5.74476e-08
5.56638e-08
5.38372e-08
5.19707e-08
5.00673e-08
4.81301e-08
4.61625e-08
4.41679e-08
4.21499e-08
4.01123e-08
3.8059e-08
3.5994e-08
3.39216e-08
3.1846e-08
2.97719e-08
2.77039e-08
2.56469e-08
2.36061e-08
2.15868e-08
1.95945e-08
1.76352e-08
1.57152e-08
1.38411e-08
1.20204e-08
1.02609e-08
8.57165e-09
6.96294e-09
5.44693e-09
4.03864e-09
2.75772e-09
1.63219e-09
7.07714e-10
7.86566e-11
5.56897e-11
5.01098e-10
1.15594e-09
1.95381e-09
2.86295e-09
3.86419e-09
4.94439e-09
6.09377e-09
7.30468e-09
8.57083e-09
9.88694e-09
1.12484e-08
1.26513e-08
1.40919e-08
1.5567e-08
1.70735e-08
1.86088e-08
2.01701e-08
2.1755e-08
2.33611e-08
2.49862e-08
2.66281e-08
2.82848e-08
2.99541e-08
3.1634e-08
3.33227e-08
3.50182e-08
3.67187e-08
3.84222e-08
4.01269e-08
4.1831e-08
4.35328e-08
4.52303e-08
4.69219e-08
4.86058e-08
5.02803e-08
5.19435e-08
5.35938e-08
5.52295e-08
5.68488e-08
5.845e-08
6.00314e-08
6.15914e-08
6.31283e-08
6.46404e-08
6.6126e-08
6.75836e-08
6.90114e-08
7.04078e-08
7.17712e-08
7.31001e-08
7.43927e-08
7.56475e-08
7.6863e-08
7.80375e-08
7.91694e-08
8.02573e-08
8.12996e-08
8.22947e-08
8.32411e-08
8.41374e-08
8.49821e-08
8.57736e-08
8.65106e-08
8.71915e-08
8.78151e-08
8.83799e-08
8.88845e-08
8.93277e-08
8.97081e-08
9.00246e-08
9.02758e-08
9.04606e-08
9.0578e-08
9.06268e-08
9.06063e-08
9.05157e-08
9.03532e-08
9.01186e-08
8.98113e-08
8.94305e-08
8.89758e-08
8.84467e-08
8.78431e-08
8.71646e-08
8.64112e-08
8.55829e-08
8.46801e-08
8.37028e-08
8.26517e-08
8.15274e-08
8.03306e-08
7.90623e-08
7.77234e-08
7.63154e-08
7.48396e-08
7.32975e-08
7.16911e-08
7.00221e-08
6.82927e-08
6.65052e-08
6.4662e-08
6.27658e-08
6.08194e-08
5.88257e-08
5.6788e-08
5.47095e-08
5.25937e-08
5.04442e-08
4.8265e-08
4.60599e-08
4.38332e-08
4.1589e-08
3.93319e-08
3.70666e-08
3.47978e-08
3.25306e-08
3.027e-08
2.80215e-08
2.57908e-08
2.35836e-08
2.14061e-08
1.92648e-08
1.71666e-08
1.51187e-08
1.31293e-08
1.12069e-08
9.36154e-09
7.60426e-09
5.94838e-09
4.41028e-09
3.01139e-09
1.78229e-09
7.72782e-10
8.58876e-11
5.9803e-11
5.38112e-10
1.24134e-09
2.09818e-09
3.07456e-09
4.1499e-09
5.3101e-09
6.54469e-09
7.84546e-09
9.20567e-09
1.06197e-08
1.20825e-08
1.359e-08
1.51382e-08
1.67236e-08
1.8343e-08
1.99934e-08
2.1672e-08
2.33763e-08
2.51035e-08
2.68515e-08
2.86177e-08
3.04001e-08
3.21964e-08
3.40045e-08
3.58223e-08
3.76478e-08
3.94789e-08
4.13137e-08
4.31503e-08
4.49866e-08
4.68207e-08
4.86509e-08
5.0475e-08
5.22914e-08
5.40981e-08
5.58932e-08
5.76749e-08
5.94414e-08
6.11908e-08
6.29213e-08
6.46311e-08
6.63184e-08
6.79814e-08
6.96183e-08
7.12273e-08
7.28066e-08
7.43545e-08
7.58692e-08
7.73489e-08
7.87919e-08
8.01965e-08
8.1561e-08
8.28835e-08
8.41624e-08
8.53961e-08
8.65827e-08
8.77206e-08
8.88081e-08
8.98437e-08
9.08255e-08
9.1752e-08
9.26215e-08
9.34325e-08
9.41834e-08
9.48725e-08
9.54984e-08
9.60595e-08
9.65545e-08
9.69817e-08
9.73399e-08
9.76276e-08
9.78435e-08
9.79865e-08
9.80552e-08
9.80487e-08
9.79665e-08
9.78061e-08
9.75674e-08
9.72496e-08
9.6852e-08
9.6374e-08
9.5815e-08
9.51747e-08
9.44528e-08
9.36493e-08
9.27641e-08
9.17973e-08
9.07494e-08
8.96207e-08
8.84119e-08
8.71239e-08
8.57575e-08
8.4314e-08
8.27947e-08
8.12011e-08
7.95349e-08
7.77981e-08
7.59927e-08
7.41211e-08
7.21857e-08
7.01893e-08
6.81346e-08
6.60249e-08
6.38632e-08
6.16532e-08
5.93984e-08
5.71026e-08
5.47699e-08
5.24045e-08
5.00107e-08
4.7593e-08
4.51562e-08
4.27052e-08
4.02451e-08
3.77811e-08
3.53188e-08
3.28636e-08
3.04217e-08
2.7999e-08
2.56019e-08
2.32373e-08
2.0912e-08
1.86336e-08
1.64101e-08
1.42502e-08
1.21633e-08
1.016e-08
8.25254e-09
6.45528e-09
4.78596e-09
3.26783e-09
1.93402e-09
8.38558e-10
9.31974e-11
6.38357e-11
5.744e-10
1.32506e-09
2.23972e-09
3.282e-09
4.42996e-09
5.66857e-09
6.98667e-09
8.37548e-09
9.82784e-09
1.13377e-08
1.28999e-08
1.45099e-08
1.61635e-08
1.78569e-08
1.95869e-08
2.13502e-08
2.31438e-08
2.4965e-08
2.68111e-08
2.86795e-08
3.05677e-08
3.24735e-08
3.43944e-08
3.63283e-08
3.82729e-08
4.02261e-08
4.21857e-08
4.41497e-08
4.61159e-08
4.80823e-08
5.0047e-08
5.20078e-08
5.39627e-08
5.59098e-08
5.78472e-08
5.97727e-08
6.16845e-08
6.35806e-08
6.5459e-08
6.73179e-08
6.91552e-08
7.09691e-08
7.27577e-08
7.4519e-08
7.62511e-08
7.79522e-08
7.96203e-08
8.12535e-08
8.285e-08
8.44078e-08
8.59252e-08
8.74002e-08
8.8831e-08
9.02157e-08
9.15525e-08
9.28395e-08
9.40748e-08
9.52568e-08
9.63834e-08
9.7453e-08
9.84637e-08
9.94138e-08
1.00301e-07
1.01125e-07
1.01883e-07
1.02572e-07
1.03193e-07
1.03743e-07
1.0422e-07
1.04623e-07
1.04951e-07
1.05201e-07
1.05373e-07
1.05465e-07
1.05476e-07
1.05405e-07
1.0525e-07
1.05011e-07
1.04686e-07
1.04274e-07
1.03776e-07
1.0319e-07
1.02516e-07
1.01754e-07
1.00903e-07
9.99631e-08
9.89349e-08
9.78185e-08
9.66143e-08
9.53231e-08
9.39456e-08
9.24828e-08
9.0936e-08
8.93067e-08
8.75964e-08
8.58071e-08
8.39407e-08
8.19995e-08
7.99861e-08
7.79031e-08
7.57534e-08
7.35402e-08
7.12668e-08
6.89368e-08
6.65539e-08
6.41221e-08
6.16456e-08
5.91287e-08
5.6576e-08
5.39923e-08
5.13826e-08
4.87519e-08
4.61056e-08
4.34493e-08
4.07887e-08
3.81297e-08
3.54785e-08
3.28415e-08
3.02254e-08
2.7637e-08
2.50836e-08
2.25729e-08
2.01129e-08
1.77123e-08
1.53804e-08
1.31275e-08
1.09651e-08
8.90623e-09
6.96641e-09
5.16479e-09
3.52641e-09
2.08702e-09
9.04887e-10
1.00569e-10
6.7776e-11
6.09856e-10
1.40686e-09
2.378e-09
3.48466e-09
4.70356e-09
6.01875e-09
7.41839e-09
8.89317e-09
1.04355e-08
1.2039e-08
1.36982e-08
1.54082e-08
1.71647e-08
1.89637e-08
2.08016e-08
2.26751e-08
2.4581e-08
2.65164e-08
2.84785e-08
3.04645e-08
3.2472e-08
3.44983e-08
3.65411e-08
3.8598e-08
4.06666e-08
4.27448e-08
4.48302e-08
4.69207e-08
4.9014e-08
5.11081e-08
5.32007e-08
5.52898e-08
5.73733e-08
5.9449e-08
6.15149e-08
6.35688e-08
6.56088e-08