/*--------------------------------*- C++ -*----------------------------------*\
  =========                 |
  \\      /  F ield         | OpenFOAM: The Open Source CFD Toolbox
   \\    /   O peration     | Website:  https://openfoam.org
    \\  /    A nd           | Version:  12
     \\/     M anipulation  |
\*---------------------------------------------------------------------------*/
FoamFile
{
    format      ascii;
    class       volScalarField;
    location    "9.5";
    object      nut;
}
// * * * * * * * * * * * * * * * * * * * * * * * * * * * * * * * * * * * * * //

dimensions      [0 2 -1 0 0 0 0];

internalField   nonuniform List<scalar> 
18225
(
7.30825e-18
2.20887e-16
4.68759e-16
7.65624e-16
1.10157e-15
1.46937e-15
1.86403e-15
2.28197e-15
2.72044e-15
3.17728e-15
3.65067e-15
4.13905e-15
4.64104e-15
5.15541e-15
5.68106e-15
6.21693e-15
6.76207e-15
7.31556e-15
7.87653e-15
8.44416e-15
9.01765e-15
9.59621e-15
1.01791e-14
1.07656e-14
1.1355e-14
1.19465e-14
1.25395e-14
1.31332e-14
1.37271e-14
1.43204e-14
1.49125e-14
1.55026e-14
1.60903e-14
1.66747e-14
1.72553e-14
1.78314e-14
1.84025e-14
1.89678e-14
1.95268e-14
2.00788e-14
2.06233e-14
2.11596e-14
2.16871e-14
2.22053e-14
2.27135e-14
2.32112e-14
2.36978e-14
2.41728e-14
2.46356e-14
2.50856e-14
2.55223e-14
2.59452e-14
2.63537e-14
2.67473e-14
2.71256e-14
2.74879e-14
2.78339e-14
2.8163e-14
2.84748e-14
2.87688e-14
2.90446e-14
2.93017e-14
2.95397e-14
2.97582e-14
2.99567e-14
3.01349e-14
3.02925e-14
3.0429e-14
3.05441e-14
3.06375e-14
3.07089e-14
3.0758e-14
3.07845e-14
3.07881e-14
3.07687e-14
3.07261e-14
3.06599e-14
3.05701e-14
3.04566e-14
3.03193e-14
3.0158e-14
2.99727e-14
2.97635e-14
2.95303e-14
2.92733e-14
2.89924e-14
2.86878e-14
2.83597e-14
2.80082e-14
2.76337e-14
2.72364e-14
2.68167e-14
2.63748e-14
2.59113e-14
2.54265e-14
2.4921e-14
2.43953e-14
2.385e-14
2.32858e-14
2.27033e-14
2.21032e-14
2.14864e-14
2.08536e-14
2.02057e-14
1.95437e-14
1.88684e-14
1.8181e-14
1.74824e-14
1.67737e-14
1.60561e-14
1.53308e-14
1.4599e-14
1.3862e-14
1.31211e-14
1.23777e-14
1.16333e-14
1.08893e-14
1.01473e-14
9.40887e-15
8.67572e-15
7.9496e-15
7.23238e-15
6.52601e-15
5.83258e-15
5.15435e-15
4.49376e-15
3.85353e-15
3.23672e-15
2.64692e-15
2.08845e-15
1.56685e-15
1.08961e-15
6.67373e-16
3.14544e-16
1.04073e-17
4.94492e-17
7.20727e-15
3.85883e-14
9.05126e-14
1.52657e-13
2.20216e-13
2.91561e-13
3.66094e-13
4.43508e-13
5.23581e-13
6.06121e-13
6.90947e-13
7.77886e-13
8.66774e-13
9.57455e-13
1.04978e-12
1.1436e-12
1.23877e-12
1.33517e-12
1.43265e-12
1.53109e-12
1.63036e-12
1.73035e-12
1.83092e-12
1.93196e-12
2.03336e-12
2.13498e-12
2.23673e-12
2.33848e-12
2.44012e-12
2.54154e-12
2.64262e-12
2.74327e-12
2.84336e-12
2.94279e-12
3.04145e-12
3.13923e-12
3.23603e-12
3.33174e-12
3.42626e-12
3.51948e-12
3.6113e-12
3.70161e-12
3.79032e-12
3.87733e-12
3.96254e-12
4.04585e-12
4.12716e-12
4.20639e-12
4.28343e-12
4.35819e-12
4.43058e-12
4.50052e-12
4.56791e-12
4.63267e-12
4.69471e-12
4.75395e-12
4.8103e-12
4.86369e-12
4.91404e-12
4.96127e-12
5.0053e-12
5.04606e-12
5.08349e-12
5.11751e-12
5.14805e-12
5.17505e-12
5.19846e-12
5.21819e-12
5.23421e-12
5.24645e-12
5.25488e-12
5.25944e-12
5.2601e-12
5.25682e-12
5.24955e-12
5.23826e-12
5.22294e-12
5.20355e-12
5.18008e-12
5.15251e-12
5.12085e-12
5.08507e-12
5.0452e-12
5.00123e-12
4.95319e-12
4.90108e-12
4.84495e-12
4.78482e-12
4.72074e-12
4.65275e-12
4.5809e-12
4.50527e-12
4.42592e-12
4.34292e-12
4.25637e-12
4.16635e-12
4.07296e-12
3.97632e-12
3.87653e-12
3.77372e-12
3.66803e-12
3.55958e-12
3.44854e-12
3.33505e-12
3.21927e-12
3.10138e-12
2.98155e-12
2.85997e-12
2.73683e-12
2.61233e-12
2.48668e-12
2.36009e-12
2.23279e-12
2.10501e-12
1.97698e-12
1.84896e-12
1.72119e-12
1.59394e-12
1.46747e-12
1.34208e-12
1.21805e-12
1.09567e-12
9.75272e-13
8.57162e-13
7.41676e-13
6.29161e-13
5.19978e-13
4.14527e-13
3.13328e-13
2.17314e-13
1.28884e-13
5.49528e-14
1.02647e-14
7.04368e-17
1.10137e-16
1.80941e-14
1.24081e-13
3.72853e-13
7.57491e-13
1.24003e-12
1.78572e-12
2.3724e-12
2.98764e-12
3.62473e-12
4.27988e-12
4.95078e-12
5.63585e-12
6.33386e-12
7.04376e-12
7.76458e-12
8.49542e-12
9.23538e-12
9.9836e-12
1.07392e-11
1.15013e-11
1.22691e-11
1.30417e-11
1.38183e-11
1.4598e-11
1.53799e-11
1.61633e-11
1.69473e-11
1.7731e-11
1.85137e-11
1.92944e-11
2.00723e-11
2.08467e-11
2.16167e-11
2.23814e-11
2.31401e-11
2.38919e-11
2.46361e-11
2.53718e-11
2.60983e-11
2.68147e-11
2.75203e-11
2.82143e-11
2.88959e-11
2.95644e-11
3.0219e-11
3.0859e-11
3.14836e-11
3.20921e-11
3.26839e-11
3.32581e-11
3.38141e-11
3.43512e-11
3.48688e-11
3.53661e-11
3.58426e-11
3.62976e-11
3.67304e-11
3.71405e-11
3.75272e-11
3.789e-11
3.82282e-11
3.85414e-11
3.8829e-11
3.90905e-11
3.93252e-11
3.95329e-11
3.97129e-11
3.98649e-11
3.99884e-11
4.00829e-11
4.01482e-11
4.01838e-11
4.01895e-11
4.01649e-11
4.01097e-11
4.00237e-11
3.99067e-11
3.97585e-11
3.95789e-11
3.93679e-11
3.91253e-11
3.88512e-11
3.85456e-11
3.82084e-11
3.78399e-11
3.74401e-11
3.70093e-11
3.65477e-11
3.60556e-11
3.55334e-11
3.49815e-11
3.44002e-11
3.37903e-11
3.31521e-11
3.24864e-11
3.17939e-11
3.10752e-11
3.03312e-11
2.95628e-11
2.87709e-11
2.79564e-11
2.71204e-11
2.62641e-11
2.53885e-11
2.44948e-11
2.35844e-11
2.26585e-11
2.17185e-11
2.07659e-11
1.98021e-11
1.88286e-11
1.7847e-11
1.68589e-11
1.5866e-11
1.487e-11
1.38726e-11
1.28757e-11
1.18809e-11
1.08903e-11
9.90571e-12
8.92912e-12
7.9626e-12
7.00838e-12
6.06893e-12
5.1473e-12
4.24754e-12
3.37584e-12
2.54259e-12
1.76624e-12
1.07912e-12
5.31213e-13
1.76814e-13
2.57928e-14
1.5704e-16
1.82548e-16
3.075e-14
2.25401e-13
7.4623e-13
1.68201e-12
3.02491e-12
4.70747e-12
6.64806e-12
8.77643e-12
1.10408e-11
1.34056e-11
1.58474e-11
1.83505e-11
2.09044e-11
2.35015e-11
2.61362e-11
2.88041e-11
3.15015e-11
3.42251e-11
3.69717e-11
3.97383e-11
4.25223e-11
4.53206e-11
4.81306e-11
5.09494e-11
5.37741e-11
5.66021e-11
5.94304e-11
6.22562e-11
6.50767e-11
6.7889e-11
7.06902e-11
7.34776e-11
7.62482e-11
7.89992e-11
8.17278e-11
8.4431e-11
8.71061e-11
8.97503e-11
9.23607e-11
9.49346e-11
9.74691e-11
9.99616e-11
1.02409e-10
1.0481e-10
1.0716e-10
1.09457e-10
1.11699e-10
1.13883e-10
1.16007e-10
1.18067e-10
1.20063e-10
1.2199e-10
1.23847e-10
1.25631e-10
1.2734e-10
1.28972e-10
1.30525e-10
1.31996e-10
1.33383e-10
1.34685e-10
1.35898e-10
1.37022e-10
1.38054e-10
1.38992e-10
1.39835e-10
1.4058e-10
1.41227e-10
1.41773e-10
1.42216e-10
1.42557e-10
1.42792e-10
1.42921e-10
1.42943e-10
1.42856e-10
1.4266e-10
1.42352e-10
1.41934e-10
1.41404e-10
1.40761e-10
1.40005e-10
1.39136e-10
1.38153e-10
1.37057e-10
1.35848e-10
1.34526e-10
1.33091e-10
1.31545e-10
1.29887e-10
1.28119e-10
1.26243e-10
1.24259e-10
1.22169e-10
1.19974e-10
1.17678e-10
1.15281e-10
1.12787e-10
1.10198e-10
1.07516e-10
1.04745e-10
1.01888e-10
9.89473e-11
9.59276e-11
9.28324e-11
8.96656e-11
8.64313e-11
8.31338e-11
7.97777e-11
7.63677e-11
7.29085e-11
6.94052e-11
6.5863e-11
6.22873e-11
5.86834e-11
5.50572e-11
5.14144e-11
4.77612e-11
4.41038e-11
4.04491e-11
3.68041e-11
3.31769e-11
2.95765e-11
2.60139e-11
2.25027e-11
1.90613e-11
1.57154e-11
1.25019e-11
9.4748e-12
6.711e-12
4.31299e-12
2.3986e-12
1.06443e-12
3.2166e-13
4.3906e-14
2.60737e-16
2.63549e-16
4.4777e-14
3.36285e-13
1.15891e-12
2.74832e-12
5.2199e-12
8.56363e-12
1.26836e-11
1.74473e-11
2.2722e-11
2.83928e-11
3.43688e-11
4.05808e-11
4.6978e-11
5.35226e-11
6.01868e-11
6.69496e-11
7.37946e-11
8.07086e-11
8.76808e-11
9.47017e-11
1.01763e-10
1.08856e-10
1.15975e-10
1.23111e-10
1.30257e-10
1.37408e-10
1.44555e-10
1.51692e-10
1.58813e-10
1.65909e-10
1.72974e-10
1.80002e-10
1.86985e-10
1.93917e-10
2.00789e-10
2.07597e-10
2.14331e-10
2.20986e-10
2.27555e-10
2.34031e-10
2.40406e-10
2.46675e-10
2.5283e-10
2.58865e-10
2.64773e-10
2.70547e-10
2.76182e-10
2.8167e-10
2.87006e-10
2.92184e-10
2.97196e-10
3.02037e-10
3.06702e-10
3.11184e-10
3.15477e-10
3.19576e-10
3.23476e-10
3.2717e-10
3.30654e-10
3.33923e-10
3.36971e-10
3.39793e-10
3.42385e-10
3.44741e-10
3.46858e-10
3.48732e-10
3.50356e-10
3.51729e-10
3.52845e-10
3.53702e-10
3.54295e-10
3.54621e-10
3.54677e-10
3.54462e-10
3.53971e-10
3.53202e-10
3.52153e-10
3.50823e-10
3.49209e-10
3.47311e-10
3.45128e-10
3.4266e-10
3.39905e-10
3.36864e-10
3.33539e-10
3.29929e-10
3.26037e-10
3.21863e-10
3.17411e-10
3.12683e-10
3.07682e-10
3.02411e-10
2.96876e-10
2.9108e-10
2.85028e-10
2.78727e-10
2.72182e-10
2.65399e-10
2.58387e-10
2.51152e-10
2.43702e-10
2.36046e-10
2.28193e-10
2.20153e-10
2.11935e-10
2.0355e-10
1.95009e-10
1.86323e-10
1.77504e-10
1.68565e-10
1.59518e-10
1.50377e-10
1.41157e-10
1.31873e-10
1.2254e-10
1.13178e-10
1.03805e-10
9.44434e-11
8.51196e-11
7.58646e-11
6.67166e-11
5.77245e-11
4.89512e-11
4.04794e-11
3.24171e-11
2.49031e-11
1.81085e-11
1.22285e-11
7.45518e-12
3.92645e-12
1.65654e-12
4.81004e-13
6.409e-14
3.77362e-16
3.51187e-16
5.98963e-14
4.54817e-13
1.59769e-12
3.88931e-12
7.61852e-12
1.29167e-11
1.97656e-11
2.80384e-11
3.75502e-11
4.81003e-11
5.94986e-11
7.15796e-11
8.42061e-11
9.72679e-11
1.10678e-10
1.24368e-10
1.38283e-10
1.52382e-10
1.66628e-10
1.80994e-10
1.95455e-10
2.09988e-10
2.24577e-10
2.39202e-10
2.53848e-10
2.68499e-10
2.8314e-10
2.97756e-10
3.12334e-10
3.2686e-10
3.41318e-10
3.55695e-10
3.69977e-10
3.8415e-10
3.982e-10
4.12113e-10
4.25875e-10
4.39472e-10
4.5289e-10
4.66115e-10
4.79135e-10
4.91934e-10
5.045e-10
5.16819e-10
5.28878e-10
5.40664e-10
5.52163e-10
5.63363e-10
5.74251e-10
5.84815e-10
5.95041e-10
6.04919e-10
6.14435e-10
6.23578e-10
6.32337e-10
6.40699e-10
6.48655e-10
6.56192e-10
6.63301e-10
6.6997e-10
6.76189e-10
6.81948e-10
6.87238e-10
6.92049e-10
6.96371e-10
7.00197e-10
7.03516e-10
7.06321e-10
7.08604e-10
7.10356e-10
7.11572e-10
7.12244e-10
7.12366e-10
7.11933e-10
7.10936e-10
7.09373e-10
7.07237e-10
7.04527e-10
7.01237e-10
6.97365e-10
6.9291e-10
6.87869e-10
6.82243e-10
6.7603e-10
6.69232e-10
6.6185e-10
6.53886e-10
6.45344e-10
6.36228e-10
6.26542e-10
6.16293e-10
6.05487e-10
5.94132e-10
5.82236e-10
5.6981e-10
5.56864e-10
5.4341e-10
5.2946e-10
5.15029e-10
5.0013e-10
4.84781e-10
4.68997e-10
4.52796e-10
4.36198e-10
4.19223e-10
4.01893e-10
3.84229e-10
3.66256e-10
3.47999e-10
3.29486e-10
3.10745e-10
2.91808e-10
2.7271e-10
2.53488e-10
2.34185e-10
2.14849e-10
1.95537e-10
1.76315e-10
1.57262e-10
1.38474e-10
1.2007e-10
1.02195e-10
8.50272e-11
6.8784e-11
5.37202e-11
4.01227e-11
2.82896e-11
1.84908e-11
1.09097e-11
5.57222e-12
2.29059e-12
6.5259e-13
8.60056e-14
5.0447e-16
4.44038e-16
7.58853e-14
5.79579e-13
2.05699e-12
5.08104e-12
1.0135e-11
1.75389e-11
2.74252e-11
3.9756e-11
5.43667e-11
7.10166e-11
8.94335e-11
1.09346e-10
1.30505e-10
1.52688e-10
1.7571e-10
1.99413e-10
2.2367e-10
2.48373e-10
2.73436e-10
2.98786e-10
3.24363e-10
3.50116e-10
3.76e-10
4.01974e-10
4.28004e-10
4.54055e-10
4.80098e-10
5.06102e-10
5.32041e-10
5.57888e-10
5.83615e-10
6.09198e-10
6.34611e-10
6.59828e-10
6.84825e-10
7.09576e-10
7.34057e-10
7.58243e-10
7.8211e-10
8.05633e-10
8.28788e-10
8.51551e-10
8.73899e-10
8.95807e-10
9.17252e-10
9.38211e-10
9.58661e-10
9.78578e-10
9.97942e-10
1.01673e-09
1.03492e-09
1.05248e-09
1.06941e-09
1.08567e-09
1.10126e-09
1.11613e-09
1.13029e-09
1.1437e-09
1.15635e-09
1.16823e-09
1.1793e-09
1.18956e-09
1.19898e-09
1.20755e-09
1.21526e-09
1.22208e-09
1.228e-09
1.23301e-09
1.2371e-09
1.24024e-09
1.24242e-09
1.24364e-09
1.24388e-09
1.24313e-09
1.24138e-09
1.23861e-09
1.23483e-09
1.23002e-09
1.22418e-09
1.2173e-09
1.20938e-09
1.20041e-09
1.19039e-09
1.17933e-09
1.16721e-09
1.15405e-09
1.13984e-09
1.1246e-09
1.10832e-09
1.09102e-09
1.0727e-09
1.05337e-09
1.03306e-09
1.01176e-09
9.89508e-10
9.66311e-10
9.42191e-10
9.1717e-10
8.91272e-10
8.64522e-10
8.3695e-10
8.08584e-10
7.79458e-10
7.49606e-10
7.19067e-10
6.87879e-10
6.56087e-10
6.23738e-10
5.90884e-10
5.57579e-10
5.23887e-10
4.89875e-10
4.55621e-10
4.21212e-10
3.86748e-10
3.52345e-10
3.1814e-10
2.84292e-10
2.50989e-10
2.18454e-10
1.86951e-10
1.56788e-10
1.2832e-10
1.01937e-10
7.80573e-11
5.7089e-11
3.93887e-11
2.51963e-11
1.4566e-11
7.30705e-12
2.96051e-12
8.34886e-13
1.09398e-13
6.40391e-16
5.40969e-16
9.25594e-14
7.09318e-13
2.53269e-12
6.31111e-12
1.27302e-11
2.23209e-11
3.54092e-11
5.21087e-11
7.23465e-11
9.59089e-11
1.22493e-10
1.51749e-10
1.83324e-10
2.16875e-10
2.52092e-10
2.88699e-10
3.26457e-10
3.65161e-10
4.04639e-10
4.44742e-10
4.85345e-10
5.26341e-10
5.67637e-10
6.09153e-10
6.50816e-10
6.92564e-10
7.34337e-10
7.76081e-10
8.17746e-10
8.59283e-10
9.00645e-10
9.41787e-10
9.82666e-10
1.02324e-09
1.06346e-09
1.1033e-09
1.14271e-09
1.18164e-09
1.22007e-09
1.25795e-09
1.29524e-09
1.3319e-09
1.36789e-09
1.40318e-09
1.43773e-09
1.4715e-09
1.50446e-09
1.53656e-09
1.56777e-09
1.59805e-09
1.62738e-09
1.65571e-09
1.68301e-09
1.70925e-09
1.7344e-09
1.75841e-09
1.78126e-09
1.80293e-09
1.82336e-09
1.84255e-09
1.86045e-09
1.87704e-09
1.89229e-09
1.90617e-09
1.91865e-09
1.92972e-09
1.93933e-09
1.94748e-09
1.95413e-09
1.95926e-09
1.96285e-09
1.96488e-09
1.96533e-09
1.96418e-09
1.96142e-09
1.95702e-09
1.95098e-09
1.94327e-09
1.93389e-09
1.92283e-09
1.91008e-09
1.89562e-09
1.87947e-09
1.86161e-09
1.84205e-09
1.82078e-09
1.79781e-09
1.77315e-09
1.7468e-09
1.71878e-09
1.6891e-09
1.65777e-09
1.62482e-09
1.59027e-09
1.55414e-09
1.51647e-09
1.47728e-09
1.43661e-09
1.3945e-09
1.35099e-09
1.30613e-09
1.25997e-09
1.21257e-09
1.16398e-09
1.11428e-09
1.06353e-09
1.01182e-09
9.59235e-10
9.0587e-10
8.51835e-10
7.97254e-10
7.42263e-10
6.87019e-10
6.31701e-10
5.76511e-10
5.21684e-10
4.67491e-10
4.14245e-10
3.62309e-10
3.12093e-10
2.64062e-10
2.18724e-10
1.76625e-10
1.38323e-10
1.04352e-10
7.51673e-11
5.10856e-11
3.22121e-11
1.83802e-11
9.11838e-12
3.66235e-12
1.02661e-12
1.34068e-13
7.83878e-16
6.41022e-16
1.0976e-13
8.42908e-13
3.02113e-12
7.57023e-12
1.53809e-11
2.72037e-11
4.35799e-11
6.48124e-11
9.09721e-11
1.21932e-10
1.57416e-10
1.97047e-10
2.40396e-10
2.8702e-10
3.36483e-10
3.88381e-10
4.42343e-10
4.98041e-10
5.55186e-10
6.13523e-10
6.72836e-10
7.32932e-10
7.93645e-10
8.54831e-10
9.16361e-10
9.78118e-10
1.04e-09
1.10191e-09
1.16377e-09
1.22549e-09
1.28699e-09
1.34821e-09
1.40907e-09
1.4695e-09
1.52944e-09
1.58883e-09
1.64759e-09
1.70568e-09
1.76303e-09
1.81957e-09
1.87525e-09
1.93001e-09
1.98379e-09
2.03654e-09
2.08818e-09
2.13868e-09
2.18797e-09
2.236e-09
2.28271e-09
2.32805e-09
2.37197e-09
2.41441e-09
2.45532e-09
2.49466e-09
2.53236e-09
2.56839e-09
2.6027e-09
2.63522e-09
2.66593e-09
2.69477e-09
2.7217e-09
2.74667e-09
2.76964e-09
2.79057e-09
2.80942e-09
2.82614e-09
2.8407e-09
2.85306e-09
2.86318e-09
2.87103e-09
2.87657e-09
2.87977e-09
2.8806e-09
2.87905e-09
2.87506e-09
2.86861e-09
2.85969e-09
2.84827e-09
2.83433e-09
2.81786e-09
2.79883e-09
2.77725e-09
2.7531e-09
2.72637e-09
2.69707e-09
2.66519e-09
2.63073e-09
2.59371e-09
2.55413e-09
2.51202e-09
2.46739e-09
2.42026e-09
2.37066e-09
2.31863e-09
2.26421e-09
2.20744e-09
2.14836e-09
2.08703e-09
2.02352e-09
1.9579e-09
1.89023e-09
1.8206e-09
1.74911e-09
1.67585e-09
1.60094e-09
1.52451e-09
1.4467e-09
1.36766e-09
1.28756e-09
1.2066e-09
1.125e-09
1.04301e-09
9.60894e-10
8.78988e-10
7.97651e-10
7.17296e-10
6.3839e-10
5.61452e-10
4.87066e-10
4.15867e-10
3.48539e-10
2.85796e-10
2.28353e-10
1.76883e-10
1.31965e-10
9.40163e-11
6.32227e-11
3.94758e-11
2.23301e-11
1.09979e-11
4.39272e-12
1.22667e-12
1.59853e-13
9.33942e-16
7.43366e-16
1.27346e-13
9.79326e-13
3.51889e-12
8.85018e-12
1.80693e-11
3.21485e-11
5.18534e-11
7.76956e-11
1.09923e-10
1.48537e-10
1.93337e-10
2.43966e-10
2.99966e-10
3.60817e-10
4.25985e-10
4.9494e-10
5.67181e-10
6.42242e-10
7.19702e-10
7.99181e-10
8.80344e-10
9.62891e-10
1.04656e-09
1.13112e-09
1.21635e-09
1.30208e-09
1.38814e-09
1.47438e-09
1.56065e-09
1.64684e-09
1.73281e-09
1.81845e-09
1.90367e-09
1.98835e-09
2.0724e-09
2.15572e-09
2.23821e-09
2.3198e-09
2.40038e-09
2.47987e-09
2.55818e-09
2.63524e-09
2.71095e-09
2.78523e-09
2.85801e-09
2.92919e-09
2.99871e-09
3.06648e-09
3.13242e-09
3.19645e-09
3.25851e-09
3.31851e-09
3.37639e-09
3.43206e-09
3.48546e-09
3.53652e-09
3.58516e-09
3.63132e-09
3.67492e-09
3.71591e-09
3.75421e-09
3.78977e-09
3.82252e-09
3.85239e-09
3.87933e-09
3.90328e-09
3.92418e-09
3.94198e-09
3.95662e-09
3.96804e-09
3.97621e-09
3.98106e-09
3.98256e-09
3.98068e-09
3.97535e-09
3.96654e-09
3.95421e-09
3.93833e-09
3.91887e-09
3.8958e-09
3.86911e-09
3.83877e-09
3.80477e-09
3.7671e-09
3.72575e-09
3.68072e-09
3.63201e-09
3.57963e-09
3.52361e-09
3.46394e-09
3.40068e-09
3.33384e-09
3.26347e-09
3.18962e-09
3.11234e-09
3.0317e-09
2.94778e-09
2.86064e-09
2.7704e-09
2.67716e-09
2.58104e-09
2.48216e-09
2.38067e-09
2.27674e-09
2.17054e-09
2.06229e-09
1.9522e-09
1.84053e-09
1.72758e-09
1.61365e-09
1.49913e-09
1.38441e-09
1.26995e-09
1.15626e-09
1.04392e-09
9.33562e-10
8.25891e-10
7.21675e-10
6.21743e-10
5.26967e-10
4.38245e-10
3.56466e-10
2.82466e-10
2.16973e-10
1.60533e-10
1.13452e-10
7.57162e-11
4.6952e-11
2.64005e-11
1.29388e-11
5.14859e-12
1.43408e-12
1.86617e-13
1.08976e-15
8.47255e-16
1.45192e-13
1.11764e-12
4.02278e-12
1.01433e-11
2.07796e-11
3.71247e-11
6.017e-11
9.06443e-11
1.28988e-10
1.75361e-10
2.2967e-10
2.91616e-10
3.60749e-10
4.36515e-10
5.18301e-10
6.05477e-10
6.97419e-10
7.93529e-10
8.93248e-10
9.96062e-10
1.1015e-09
1.20915e-09
1.31862e-09
1.42958e-09
1.54172e-09
1.65477e-09
1.76847e-09
1.88261e-09
1.99698e-09
2.11139e-09
2.22566e-09
2.33962e-09
2.45313e-09
2.56603e-09
2.67819e-09
2.78946e-09
2.89971e-09
3.00882e-09
3.11667e-09
3.22313e-09
3.32808e-09
3.4314e-09
3.53298e-09
3.63271e-09
3.73047e-09
3.82616e-09
3.91965e-09
4.01086e-09
4.09965e-09
4.18595e-09
4.26962e-09
4.35059e-09
4.42873e-09
4.50396e-09
4.57617e-09
4.64526e-09
4.71115e-09
4.77372e-09
4.8329e-09
4.88858e-09
4.94067e-09
4.98909e-09
5.03375e-09
5.07456e-09
5.11143e-09
5.14429e-09
5.17305e-09
5.19763e-09
5.21796e-09
5.23397e-09
5.24558e-09
5.25271e-09
5.25532e-09
5.25334e-09
5.24673e-09
5.23537e-09
5.21926e-09
5.19833e-09
5.17254e-09
5.14186e-09
5.10625e-09
5.06568e-09
5.02012e-09
4.96957e-09
4.914e-09
4.85342e-09
4.78783e-09
4.71723e-09
4.64165e-09
4.56112e-09
4.47566e-09
4.38533e-09
4.29018e-09
4.19029e-09
4.08572e-09
3.97659e-09
3.86298e-09
3.74503e-09
3.62287e-09
3.49666e-09
3.36657e-09
3.23282e-09
3.09562e-09
2.95522e-09
2.8119e-09
2.66598e-09
2.51781e-09
2.36778e-09
2.21634e-09
2.06396e-09
1.91121e-09
1.75868e-09
1.60707e-09
1.45712e-09
1.30965e-09
1.16557e-09
1.02585e-09
8.91515e-10
7.63647e-10
6.43345e-10
5.31693e-10
4.29715e-10
3.38312e-10
2.58202e-10
1.89843e-10
1.33365e-10
8.85142e-11
5.46162e-11
3.05791e-11
1.49347e-11
5.92715e-12
1.648e-12
2.1424e-13
1.25062e-15
9.52019e-16
1.63184e-13
1.25698e-12
4.52983e-12
1.14425e-11
2.34974e-11
4.21056e-11
6.84819e-11
1.03573e-10
1.4802e-10
2.02151e-10
2.66004e-10
3.39367e-10
4.21825e-10
5.12819e-10
6.11691e-10
7.17729e-10
8.30207e-10
9.48407e-10
1.07164e-09
1.19925e-09
1.33065e-09
1.46526e-09
1.60261e-09
1.74221e-09
1.88367e-09
2.02659e-09
2.17065e-09
2.31552e-09
2.46093e-09
2.6066e-09
2.7523e-09
2.8978e-09
3.04288e-09
3.18734e-09
3.33099e-09
3.47364e-09
3.61512e-09
3.75525e-09
3.89387e-09
4.03082e-09
4.16593e-09
4.29905e-09
4.43002e-09
4.5587e-09
4.68494e-09
4.80859e-09
4.9295e-09
5.04754e-09
5.16255e-09
5.27441e-09
5.38297e-09
5.48809e-09
5.58965e-09
5.6875e-09
5.78151e-09
5.87156e-09
5.95751e-09
6.03923e-09
6.11661e-09
6.18951e-09
6.25781e-09
6.32139e-09
6.38013e-09
6.43392e-09
6.48265e-09
6.52618e-09
6.56443e-09
6.59728e-09
6.62462e-09
6.64636e-09
6.6624e-09
6.67263e-09
6.67697e-09
6.67534e-09
6.6677e-09
6.65386e-09
6.63381e-09
6.60748e-09
6.5748e-09
6.53572e-09
6.49019e-09
6.43816e-09
6.3796e-09
6.31449e-09
6.2428e-09
6.16452e-09
6.07967e-09
5.98825e-09
5.89028e-09
5.7858e-09
5.67486e-09
5.55753e-09
5.43388e-09
5.304e-09
5.16802e-09
5.02606e-09
4.87828e-09
4.72485e-09
4.56596e-09
4.40186e-09
4.23279e-09
4.05903e-09
3.88093e-09
3.69883e-09
3.51315e-09
3.32434e-09
3.13292e-09
2.93945e-09
2.74455e-09
2.54894e-09
2.35339e-09
2.15875e-09
1.96597e-09
1.77606e-09
1.59013e-09
1.40938e-09
1.23504e-09
1.06841e-09
9.10823e-10
7.63567e-10
6.27881e-10
5.04876e-10
3.95472e-10
3.00326e-10
2.19758e-10
1.53685e-10
1.01579e-10
6.24475e-11
3.48543e-11
1.69795e-11
6.72582e-12
1.86764e-12
2.42616e-13
1.4159e-15
1.05705e-15
1.81218e-13
1.39657e-12
5.03728e-12
1.27408e-11
2.62092e-11
4.70669e-11
7.67476e-11
1.16413e-10
1.66902e-10
2.2872e-10
3.02044e-10
3.86763e-10
4.82523e-10
5.88778e-10
7.04852e-10
8.29972e-10
9.63331e-10
1.1041e-09
1.25148e-09
1.40469e-09
1.563e-09
1.72572e-09
1.89222e-09
2.06192e-09
2.23428e-09
2.40882e-09
2.5851e-09
2.76271e-09
2.94127e-09
3.12044e-09
3.2999e-09
3.47934e-09
3.65849e-09
3.83709e-09
4.01488e-09
4.19161e-09
4.36707e-09
4.54103e-09
4.71327e-09
4.88359e-09
5.05177e-09
5.21763e-09
5.38096e-09
5.54156e-09
5.69926e-09
5.85386e-09
6.00517e-09
6.15301e-09
6.29721e-09
6.43758e-09
6.57393e-09
6.70611e-09
6.83393e-09
6.95721e-09
7.0758e-09
7.1895e-09
7.29817e-09
7.40163e-09
7.49972e-09
7.59228e-09
7.67914e-09
7.76014e-09
7.83513e-09
7.90396e-09
7.96647e-09
8.02252e-09
8.07195e-09
8.11463e-09
8.15042e-09
8.17917e-09
8.20076e-09
8.21506e-09
8.22195e-09
8.22131e-09
8.21309e-09
8.19706e-09
8.17317e-09
8.14135e-09
8.10148e-09
8.05352e-09
7.99737e-09
7.93298e-09
7.86031e-09
7.77931e-09
7.68996e-09
7.59225e-09
7.48616e-09
7.37173e-09
7.24898e-09
7.11795e-09
6.97871e-09
6.83135e-09
6.67597e-09
6.5127e-09
6.3417e-09
6.16315e-09
5.97725e-09
5.78425e-09
5.58442e-09
5.37809e-09
5.16559e-09
4.94734e-09
4.72378e-09
4.49542e-09
4.26283e-09
4.02663e-09
3.78753e-09
3.54629e-09
3.30379e-09
3.06096e-09
2.81885e-09
2.57858e-09
2.3414e-09
2.10861e-09
1.88162e-09
1.66192e-09
1.45102e-09
1.2505e-09
1.06187e-09
8.8663e-10
7.26118e-10
5.81497e-10
4.53665e-10
3.43178e-10
2.50182e-10
1.74356e-10
1.14878e-10
7.04271e-11
3.92154e-11
1.90677e-11
7.54214e-12
2.09228e-12
2.71651e-13
1.58503e-15
1.16179e-15
1.99199e-13
1.53569e-12
5.54258e-12
1.40322e-11
2.89024e-11
5.1986e-11
8.49293e-11
1.29102e-10
1.85539e-10
2.54917e-10
3.37559e-10
4.33461e-10
5.42338e-10
6.63679e-10
7.96799e-10
9.40895e-10
1.09509e-09
1.25846e-09
1.43011e-09
1.60914e-09
1.7947e-09
1.98597e-09
2.1822e-09
2.38269e-09
2.58679e-09
2.79389e-09
3.00346e-09
3.21497e-09
3.42797e-09
3.64203e-09
3.85673e-09
4.07171e-09
4.28661e-09
4.5011e-09
4.71486e-09
4.9276e-09
5.13903e-09
5.34886e-09
5.55684e-09
5.7627e-09
5.96618e-09
6.16704e-09
6.36503e-09
6.55992e-09
6.75146e-09
6.93942e-09
7.12358e-09
7.3037e-09
7.47955e-09
7.65092e-09
7.81757e-09
7.97929e-09
8.13586e-09
8.28706e-09
8.43268e-09
8.57249e-09
8.70629e-09
8.83386e-09
8.955e-09
9.06949e-09
9.17714e-09
9.27774e-09
9.37108e-09
9.45697e-09
9.53521e-09
9.60561e-09
9.66799e-09
9.72215e-09
9.76791e-09
9.80509e-09
9.83353e-09
9.85306e-09
9.86351e-09
9.86473e-09
9.85666e-09
9.839e-09
9.81167e-09
9.77457e-09
9.72758e-09
9.67058e-09
9.6035e-09
9.52625e-09
9.43876e-09
9.34097e-09
9.23286e-09
9.1144e-09
8.98559e-09
8.84645e-09
8.69701e-09
8.53733e-09
8.3675e-09
8.18763e-09
7.99786e-09
7.79836e-09
7.58933e-09
7.37101e-09
7.14369e-09
6.90769e-09
6.66337e-09
6.41115e-09
6.15152e-09
5.885e-09
5.61219e-09
5.33378e-09
5.0505e-09
4.76319e-09
4.47278e-09
4.18027e-09
3.88679e-09
3.59356e-09
3.3019e-09
3.01325e-09
2.72916e-09
2.45124e-09
2.18122e-09
1.92087e-09
1.672e-09
1.43639e-09
1.21579e-09
1.01182e-09
8.2592e-10
6.59262e-10
5.1269e-10
3.86633e-10
2.81039e-10
1.9533e-10
1.28382e-10
7.85368e-11
4.36516e-11
2.11936e-11
8.37382e-12
2.32127e-12
3.01254e-13
1.7575e-15
1.26574e-15
2.17042e-13
1.67368e-12
6.0434e-12
1.53107e-11
3.15652e-11
5.68421e-11
9.2993e-11
1.41587e-10
2.03848e-10
2.80619e-10
3.72363e-10
4.79187e-10
6.00881e-10
7.36973e-10
8.86785e-10
1.04949e-09
1.22416e-09
1.40981e-09
1.60543e-09
1.81004e-09
2.02266e-09
2.24237e-09
2.4683e-09
2.69962e-09
2.93558e-09
3.17548e-09
3.41865e-09
3.66448e-09
3.91243e-09
4.16197e-09
4.41261e-09
4.66391e-09
4.91543e-09
5.16677e-09
5.41756e-09
5.66743e-09
5.91603e-09
6.16302e-09
6.4081e-09
6.65093e-09
6.89121e-09
7.12865e-09
7.36294e-09
7.5938e-09
7.82094e-09
8.04408e-09
8.26294e-09
8.47724e-09
8.68671e-09
8.89106e-09
9.09004e-09
9.28336e-09
9.47076e-09
9.65197e-09
9.82673e-09
9.99477e-09
1.01558e-08
1.03096e-08
1.04559e-08
1.05944e-08
1.07249e-08
1.08472e-08
1.09609e-08
1.10658e-08
1.11616e-08
1.12482e-08
1.13253e-08
1.13927e-08
1.145e-08
1.14972e-08
1.15339e-08
1.156e-08
1.15752e-08
1.15794e-08
1.15724e-08
1.15539e-08
1.15239e-08
1.1482e-08
1.14283e-08
1.13625e-08
1.12845e-08
1.11943e-08
1.10917e-08
1.09767e-08
1.08492e-08
1.07092e-08
1.05567e-08
1.03917e-08
1.02142e-08
1.00243e-08
9.82218e-09
9.60792e-09
9.38171e-09
9.14378e-09
8.89437e-09
8.63381e-09
8.36245e-09
8.08071e-09
7.78907e-09
7.48807e-09
7.17833e-09
6.86053e-09
6.53546e-09
6.20396e-09
5.86701e-09
5.52566e-09
5.18108e-09
4.83456e-09
4.48749e-09
4.1414e-09
3.79792e-09
3.4588e-09
3.12592e-09
2.80121e-09
2.48671e-09
2.18449e-09
1.8966e-09
1.62507e-09
1.37183e-09
1.13862e-09
9.26923e-10
7.37927e-10
5.72388e-10
4.30587e-10
3.1226e-10
2.16564e-10
1.42063e-10
8.67588e-11
4.81525e-11
2.33521e-11
9.21867e-12
2.55396e-12
3.31343e-13
1.9328e-15
1.36845e-15
2.3467e-13
1.80995e-12
6.53763e-12
1.65711e-11
3.4187e-11
6.16162e-11
1.00907e-10
1.53821e-10
2.21757e-10
3.05719e-10
4.06303e-10
5.23721e-10
6.5784e-10
8.0823e-10
9.74226e-10
1.15499e-09
1.34955e-09
1.55685e-09
1.77582e-09
2.00538e-09
2.24445e-09
2.49202e-09
2.74709e-09
3.00875e-09
3.27613e-09
3.54842e-09
3.82487e-09
4.10477e-09
4.38748e-09
4.6724e-09
4.95895e-09
5.24661e-09
5.53489e-09
5.8233e-09
6.11141e-09
6.3988e-09
6.68504e-09
6.96976e-09
7.25257e-09
7.5331e-09
7.81099e-09
8.08589e-09
8.35746e-09
8.62534e-09
8.88921e-09
9.14873e-09
9.40357e-09
9.65339e-09
9.89788e-09
1.01367e-08
1.03695e-08
1.0596e-08
1.08159e-08
1.10288e-08
1.12345e-08
1.14325e-08
1.16226e-08
1.18045e-08
1.19778e-08
1.21422e-08
1.22974e-08
1.24432e-08
1.25791e-08
1.27048e-08
1.28202e-08
1.29248e-08
1.30184e-08
1.31006e-08
1.31712e-08
1.32299e-08
1.32765e-08
1.33106e-08
1.33319e-08
1.33404e-08
1.33356e-08
1.33175e-08
1.32857e-08
1.32399e-08
1.31802e-08
1.31062e-08
1.30178e-08
1.29149e-08
1.27974e-08
1.26651e-08
1.25181e-08
1.23562e-08
1.21795e-08
1.1988e-08
1.17816e-08
1.15606e-08
1.13251e-08
1.10752e-08
1.08111e-08
1.05332e-08
1.02418e-08
9.93714e-09
9.61982e-09
9.29033e-09
8.94926e-09
8.59731e-09
8.23522e-09
7.86389e-09
7.48425e-09
7.0974e-09
6.70453e-09
6.30693e-09
5.90606e-09
5.50347e-09
5.10088e-09
4.70012e-09
4.30315e-09
3.91206e-09
3.52903e-09
3.15635e-09
2.79635e-09
2.45139e-09
2.12378e-09
1.81576e-09
1.52942e-09
1.2666e-09
1.02884e-09
8.17294e-10
6.32624e-10
4.74948e-10
3.43785e-10
2.38015e-10
1.55893e-10
9.50755e-11
5.27082e-11
2.55379e-11
1.00746e-11
2.78977e-12
3.61839e-13
2.11049e-15
1.46953e-15
2.52014e-13
1.94398e-12
7.02339e-12
1.78087e-11
3.6758e-11
6.62909e-11
1.08644e-10
1.65758e-10
2.39201e-10
3.30123e-10
4.39246e-10
5.6688e-10
7.12962e-10
8.77105e-10
1.05866e-09
1.25677e-09
1.47044e-09
1.69857e-09
1.94001e-09
2.1936e-09
2.45819e-09
2.73265e-09
3.01591e-09
3.30696e-09
3.60482e-09
3.9086e-09
4.21746e-09
4.5306e-09
4.84731e-09
5.16688e-09
5.4887e-09
5.81214e-09
6.13666e-09
6.46171e-09
6.78678e-09
7.1114e-09
7.4351e-09
7.75743e-09
8.07796e-09
8.39626e-09
8.71192e-09
9.02454e-09
9.33373e-09
9.63907e-09
9.9402e-09
1.02367e-08
1.05282e-08
1.08144e-08
1.10948e-08
1.1369e-08
1.16368e-08
1.18976e-08
1.21512e-08
1.23971e-08
1.2635e-08
1.28644e-08
1.30851e-08
1.32965e-08
1.34984e-08
1.36904e-08
1.3872e-08
1.40429e-08
1.42027e-08
1.43511e-08
1.44876e-08
1.4612e-08
1.47238e-08
1.48226e-08
1.49082e-08
1.49801e-08
1.50381e-08
1.50818e-08
1.51109e-08
1.5125e-08
1.51239e-08
1.51074e-08
1.5075e-08
1.50265e-08
1.49618e-08
1.48805e-08
1.47825e-08
1.46676e-08
1.45357e-08
1.43867e-08
1.42204e-08
1.40368e-08
1.38359e-08
1.36178e-08
1.33823e-08
1.31298e-08
1.28603e-08
1.25741e-08
1.22714e-08
1.19526e-08
1.1618e-08
1.12682e-08
1.09037e-08
1.05251e-08
1.01332e-08
9.72877e-09
9.31282e-09
8.88636e-09
8.45059e-09
8.00679e-09
7.55641e-09
7.10103e-09
6.64237e-09
6.1823e-09
5.72284e-09
5.26617e-09
4.81456e-09
4.37046e-09
3.93638e-09
3.51494e-09
3.10877e-09
2.7205e-09
2.3527e-09
2.00783e-09
1.68808e-09
1.39543e-09
1.13143e-09
8.97189e-10
6.93273e-10
5.1963e-10
3.7555e-10
2.59642e-10
1.69843e-10
1.03469e-10
5.73083e-11
2.7746e-11
1.09395e-11
3.02811e-12
3.92666e-13
2.29011e-15
1.56862e-15
2.69016e-13
2.0753e-12
7.49904e-12
1.90194e-11
3.927e-11
7.08512e-11
1.16178e-10
1.77362e-10
2.56124e-10
3.53752e-10
4.7108e-10
6.08509e-10
7.66038e-10
9.43318e-10
1.13971e-09
1.35436e-09
1.58624e-09
1.83419e-09
2.09702e-09
2.3735e-09
2.6624e-09
2.96251e-09
3.27268e-09
3.5918e-09
3.91883e-09
4.25279e-09
4.59275e-09
4.93786e-09
5.28729e-09
5.64031e-09
5.99621e-09
6.35432e-09
6.71401e-09
7.0747e-09
7.43581e-09
7.79682e-09
8.1572e-09
8.51646e-09
8.8741e-09
9.22967e-09
9.58269e-09
9.93272e-09
1.02793e-08
1.0622e-08
1.09604e-08
1.1294e-08
1.16224e-08
1.19451e-08
1.22618e-08
1.2572e-08
1.28753e-08
1.31712e-08
1.34592e-08
1.3739e-08
1.40101e-08
1.4272e-08
1.45243e-08
1.47666e-08
1.49984e-08
1.52192e-08
1.54287e-08
1.56262e-08
1.58115e-08
1.59841e-08
1.61435e-08
1.62892e-08
1.64208e-08
1.6538e-08
1.66402e-08
1.67271e-08
1.67982e-08
1.68531e-08
1.68915e-08
1.69129e-08
1.6917e-08
1.69036e-08
1.68721e-08
1.68223e-08
1.67538e-08
1.66665e-08
1.656e-08
1.64342e-08
1.62888e-08
1.61238e-08
1.5939e-08
1.57343e-08
1.55098e-08
1.52653e-08
1.50011e-08
1.47172e-08
1.44138e-08
1.40911e-08
1.37496e-08
1.33895e-08
1.30114e-08
1.26158e-08
1.22034e-08
1.1775e-08
1.13315e-08
1.08738e-08
1.0403e-08
9.92052e-09
9.42763e-09
8.92591e-09
8.41705e-09
7.90292e-09
7.38555e-09
6.8671e-09
6.34995e-09
5.83658e-09
5.32964e-09
4.83191e-09
4.34623e-09
3.87555e-09
3.42281e-09
2.99091e-09
2.58268e-09
2.20073e-09
1.84742e-09
1.52481e-09
1.23446e-09
9.7745e-10
7.54218e-10
5.64547e-10
4.07498e-10
2.81403e-10
1.83886e-10
1.11923e-10
6.19431e-11
2.99715e-11
1.18114e-11
3.26842e-12
4.23751e-13
2.47124e-15
1.66545e-15
2.85626e-13
2.20355e-12
7.96321e-12
2.01997e-11
4.17156e-11
7.52842e-11
1.23489e-10
1.88599e-10
2.72479e-10
3.76539e-10
5.01714e-10
6.48483e-10
8.169e-10
1.00665e-09
1.2171e-09
1.44738e-09
1.69645e-09
1.96311e-09
2.24611e-09
2.54416e-09
2.85596e-09
3.18025e-09
3.5158e-09
3.86143e-09
4.21602e-09
4.57852e-09
4.94793e-09
5.32334e-09
5.70387e-09
6.08871e-09
6.4771e-09
6.86831e-09
7.26167e-09
7.65654e-09
8.05229e-09
8.44836e-09
8.84416e-09