/*--------------------------------*- C++ -*----------------------------------*\
  =========                 |
  \\      /  F ield         | OpenFOAM: The Open Source CFD Toolbox
   \\    /   O peration     | Website:  https://openfoam.org
    \\  /    A nd           | Version:  12
     \\/     M anipulation  |
\*---------------------------------------------------------------------------*/
FoamFile
{
    format      ascii;
    class       volScalarField;
    location    "9.5";
    object      p;
}
// * * * * * * * * * * * * * * * * * * * * * * * * * * * * * * * * * * * * * //

dimensions      [0 2 -2 0 0 0 0];

internalField   nonuniform List<scalar> 
18225
(
-3.89566e-08
-2.42748e-07
-3.0191e-07
-1.06759e-07
3.46349e-07
1.04626e-06
1.9759e-06
3.1173e-06
4.4467e-06
5.94098e-06
7.57453e-06
9.324e-06
1.11653e-05
1.30766e-05
1.50361e-05
1.70243e-05
1.90217e-05
2.10111e-05
2.29757e-05
2.49001e-05
2.67699e-05
2.85719e-05
3.02935e-05
3.19236e-05
3.34515e-05
3.48678e-05
3.61636e-05
3.73313e-05
3.83637e-05
3.92546e-05
3.99985e-05
4.05907e-05
4.10272e-05
4.13046e-05
4.14205e-05
4.13729e-05
4.11606e-05
4.07829e-05
4.02398e-05
3.95318e-05
3.86603e-05
3.76267e-05
3.64334e-05
3.5083e-05
3.35788e-05
3.19243e-05
3.01238e-05
2.81815e-05
2.61025e-05
2.38917e-05
2.1555e-05
1.90979e-05
1.65267e-05
1.38477e-05
1.10674e-05
8.19267e-06
5.23042e-06
2.18771e-06
-9.28139e-07
-4.10989e-06
-7.35002e-06
-1.06412e-05
-1.39757e-05
-1.73461e-05
-2.07448e-05
-2.41644e-05
-2.75972e-05
-3.10359e-05
-3.4473e-05
-3.79012e-05
-4.13133e-05
-4.47022e-05
-4.80609e-05
-5.13826e-05
-5.46605e-05
-5.7888e-05
-6.10588e-05
-6.41666e-05
-6.72055e-05
-7.01693e-05
-7.30526e-05
-7.58496e-05
-7.85553e-05
-8.11643e-05
-8.36718e-05
-8.60731e-05
-8.83636e-05
-9.05392e-05
-9.25957e-05
-9.45292e-05
-9.63363e-05
-9.80136e-05
-9.95579e-05
-0.000100966
-0.000102237
-0.000103366
-0.000104353
-0.000105196
-0.000105893
-0.000106443
-0.000106845
-0.000107101
-0.000107208
-0.000107169
-0.000106983
-0.000106653
-0.000106181
-0.000105569
-0.00010482
-0.000103938
-0.000102928
-0.000101794
-0.000100545
-9.9185e-05
-9.77237e-05
-9.61698e-05
-9.45335e-05
-9.28264e-05
-9.10611e-05
-8.92522e-05
-8.74152e-05
-8.55679e-05
-8.37296e-05
-8.19215e-05
-8.01669e-05
-7.8491e-05
-7.6921e-05
-7.54858e-05
-7.42151e-05
-7.31395e-05
-7.22877e-05
-7.16868e-05
-7.13643e-05
-7.13301e-05
-7.1477e-05
-1.10299e-07
-3.04466e-07
-3.6328e-07
-1.8284e-07
2.25748e-07
8.44427e-07
1.65697e-06
2.64853e-06
3.80034e-06
5.09386e-06
6.50879e-06
8.02595e-06
9.6255e-06
1.1289e-05
1.2998e-05
1.47355e-05
1.64845e-05
1.82298e-05
1.99562e-05
2.16501e-05
2.32981e-05
2.48883e-05
2.6409e-05
2.785e-05
2.92012e-05
3.04539e-05
3.15997e-05
3.26312e-05
3.35418e-05
3.43254e-05
3.49768e-05
3.54913e-05
3.58651e-05
3.60949e-05
3.6178e-05
3.61125e-05
3.5897e-05
3.55307e-05
3.50134e-05
3.43455e-05
3.35277e-05
3.25614e-05
3.14487e-05
3.01916e-05
2.87932e-05
2.72566e-05
2.55853e-05
2.37835e-05
2.18554e-05
1.98058e-05
1.76396e-05
1.53622e-05
1.29791e-05
1.0496e-05
7.9191e-06
5.25442e-06
2.50844e-06
-3.12391e-07
-3.20135e-06
-6.15175e-06
-9.15669e-06
-1.22093e-05
-1.53026e-05
-1.84297e-05
-2.15835e-05
-2.47571e-05
-2.79434e-05
-3.11356e-05
-3.43269e-05
-3.75103e-05
-4.06792e-05
-4.38269e-05
-4.6947e-05
-5.00331e-05
-5.3079e-05
-5.60785e-05
-5.90256e-05
-6.19146e-05
-6.47399e-05
-6.74958e-05
-7.01773e-05
-7.2779e-05
-7.5296e-05
-7.77237e-05
-8.00574e-05
-8.22928e-05
-8.44258e-05
-8.64523e-05
-8.83687e-05
-9.01715e-05
-9.18573e-05
-9.34232e-05
-9.48664e-05
-9.61843e-05
-9.73746e-05
-9.84354e-05
-9.9365e-05
-0.000100162
-0.000100825
-0.000101354
-0.000101748
-0.000102006
-0.000102131
-0.000102121
-0.000101979
-0.000101706
-0.000101304
-0.000100776
-0.000100125
-9.93559e-05
-9.84722e-05
-9.74794e-05
-9.63837e-05
-9.51918e-05
-9.39114e-05
-9.25511e-05
-9.11206e-05
-8.96306e-05
-8.80927e-05
-8.65201e-05
-8.49268e-05
-8.33285e-05
-8.1742e-05
-8.01856e-05
-7.86789e-05
-7.72429e-05
-7.58998e-05
-7.46726e-05
-7.35852e-05
-7.26611e-05
-7.19229e-05
-7.13937e-05
-7.11015e-05
-7.10651e-05
-7.1194e-05
-1.09949e-06
-1.2439e-06
-1.25417e-06
-1.04404e-06
-6.32574e-07
-4.1765e-08
7.12725e-07
1.61764e-06
2.65767e-06
3.81761e-06
5.08099e-06
6.43208e-06
7.85453e-06
9.33291e-06
1.08516e-05
1.23959e-05
1.39513e-05
1.55042e-05
1.70414e-05
1.85507e-05
2.002e-05
2.14385e-05
2.27957e-05
2.4082e-05
2.52882e-05
2.64063e-05
2.74284e-05
2.83476e-05
2.91575e-05
2.98526e-05
3.04278e-05
3.08786e-05
3.12013e-05
3.13927e-05
3.14503e-05
3.13719e-05
3.11562e-05
3.08023e-05
3.03099e-05
2.9679e-05
2.89104e-05
2.80051e-05
2.69648e-05
2.57916e-05
2.44878e-05
2.30564e-05
2.15007e-05
1.98241e-05
1.80307e-05
1.61247e-05
1.41108e-05
1.19936e-05
9.77839e-06
7.47033e-06
5.07505e-06
2.59817e-06
4.56496e-08
-2.57659e-06
-5.2623e-06
-8.00534e-06
-1.07993e-05
-1.36378e-05
-1.65144e-05
-1.94227e-05
-2.2356e-05
-2.5308e-05
-2.82722e-05
-3.1242e-05
-3.42112e-05
-3.71734e-05
-4.01223e-05
-4.30518e-05
-4.59559e-05
-4.88285e-05
-5.1664e-05
-5.44564e-05
-5.72005e-05
-5.98907e-05
-6.25218e-05
-6.50887e-05
-6.75864e-05
-7.00103e-05
-7.23556e-05
-7.46181e-05
-7.67935e-05
-7.88777e-05
-8.08669e-05
-8.27575e-05
-8.45461e-05
-8.62295e-05
-8.78047e-05
-8.9269e-05
-9.06198e-05
-9.18549e-05
-9.29722e-05
-9.39701e-05
-9.4847e-05
-9.56018e-05
-9.62336e-05
-9.67419e-05
-9.71264e-05
-9.73873e-05
-9.75251e-05
-9.75407e-05
-9.74353e-05
-9.72108e-05
-9.68693e-05
-9.64136e-05
-9.58469e-05
-9.51731e-05
-9.43964e-05
-9.35221e-05
-9.25556e-05
-9.15035e-05
-9.03729e-05
-8.91718e-05
-8.79088e-05
-8.65937e-05
-8.5237e-05
-8.38503e-05
-8.24458e-05
-8.10372e-05
-7.96388e-05
-7.8266e-05
-7.6935e-05
-7.56629e-05
-7.44676e-05
-7.33673e-05
-7.23806e-05
-7.15261e-05
-7.08216e-05
-7.02863e-05
-6.99454e-05
-6.98196e-05
-6.98479e-05
-3.12348e-06
-3.14027e-06
-3.02538e-06
-2.7243e-06
-2.25286e-06
-1.62954e-06
-8.68131e-07
1.96103e-08
1.02052e-06
2.12171e-06
3.30945e-06
4.57049e-06
5.89109e-06
7.25813e-06
8.65828e-06
1.00789e-05
1.15073e-05
1.29318e-05
1.43405e-05
1.57226e-05
1.70675e-05
1.83652e-05
1.96063e-05
2.07821e-05
2.18842e-05
2.29051e-05
2.38376e-05
2.46754e-05
2.54124e-05
2.60434e-05
2.65636e-05
2.69689e-05
2.72556e-05
2.74209e-05
2.7462e-05
2.73772e-05
2.71649e-05
2.68243e-05
2.63549e-05
2.57568e-05
2.50306e-05
2.41771e-05
2.3198e-05
2.20949e-05
2.08701e-05
1.95263e-05
1.80664e-05
1.64938e-05
1.48121e-05
1.30252e-05
1.11374e-05
9.15306e-06
7.07705e-06
4.91421e-06
2.66977e-06
3.4895e-07
-2.04267e-06
-4.49957e-06
-7.01591e-06
-9.58596e-06
-1.22037e-05
-1.48632e-05
-1.75584e-05
-2.02833e-05
-2.30317e-05
-2.57976e-05
-2.85749e-05
-3.13576e-05
-3.41397e-05
-3.69152e-05
-3.96784e-05
-4.24234e-05
-4.51446e-05
-4.78364e-05
-5.04935e-05
-5.31103e-05
-5.56819e-05
-5.82031e-05
-6.06691e-05
-6.3075e-05
-6.54163e-05
-6.76884e-05
-6.98873e-05
-7.20087e-05
-7.40488e-05
-7.60038e-05
-7.78701e-05
-7.96444e-05
-8.13236e-05
-8.29048e-05
-8.43851e-05
-8.57621e-05
-8.70335e-05
-8.81973e-05
-8.92516e-05
-9.0195e-05
-9.1026e-05
-9.17438e-05
-9.23475e-05
-9.28368e-05
-9.32115e-05
-9.34719e-05
-9.36185e-05
-9.36522e-05
-9.35743e-05
-9.33866e-05
-9.30911e-05
-9.26904e-05
-9.21877e-05
-9.15864e-05
-9.08906e-05
-9.01049e-05
-8.92346e-05
-8.82855e-05
-8.7264e-05
-8.61772e-05
-8.5033e-05
-8.38397e-05
-8.26067e-05
-8.1344e-05
-8.00621e-05
-7.87725e-05
-7.74874e-05
-7.62196e-05
-7.49824e-05
-7.37899e-05
-7.26563e-05
-7.15965e-05
-7.06251e-05
-6.9757e-05
-6.90068e-05
-6.83895e-05
-6.79216e-05
-6.76172e-05
-6.74611e-05
-5.98596e-06
-5.81526e-06
-5.50996e-06
-5.06138e-06
-4.47842e-06
-3.77203e-06
-2.95291e-06
-2.03114e-06
-1.01761e-06
7.6981e-08
1.24125e-06
2.46414e-06
3.73412e-06
5.04008e-06
6.37068e-06
7.71506e-06
9.06233e-06
1.04021e-05
1.17242e-05
1.3019e-05
1.42769e-05
1.54893e-05
1.66475e-05
1.77436e-05
1.87702e-05
1.97202e-05
2.05872e-05
2.13652e-05
2.20488e-05
2.2633e-05
2.31135e-05
2.34864e-05
2.37482e-05
2.38961e-05
2.39279e-05
2.38415e-05
2.36358e-05
2.33097e-05
2.28629e-05
2.22954e-05
2.16077e-05
2.08006e-05
1.98755e-05
1.88341e-05
1.76785e-05
1.6411e-05
1.50346e-05
1.35523e-05
1.19675e-05
1.02838e-05
8.5054e-06
6.63632e-06
4.6811e-06
2.6443e-06
5.30857e-07
-1.65432e-06
-3.90599e-06
-6.21894e-06
-8.58768e-06
-1.10068e-05
-1.34707e-05
-1.59737e-05
-1.85101e-05
-2.10743e-05
-2.36604e-05
-2.62629e-05
-2.88759e-05
-3.14939e-05
-3.41111e-05
-3.6722e-05
-3.93212e-05
-4.19031e-05
-4.44626e-05
-4.69943e-05
-4.94933e-05
-5.19543e-05
-5.43728e-05
-5.67438e-05
-5.90628e-05
-6.13254e-05
-6.35273e-05
-6.56642e-05
-6.77324e-05
-6.97278e-05
-7.16469e-05
-7.34862e-05
-7.52424e-05
-7.69125e-05
-7.84935e-05
-7.99827e-05
-8.13776e-05
-8.2676e-05
-8.38756e-05
-8.49747e-05
-8.59717e-05
-8.68651e-05
-8.76537e-05
-8.83368e-05
-8.89136e-05
-8.93838e-05
-8.97472e-05
-9.00043e-05
-9.01553e-05
-9.02014e-05
-9.01436e-05
-8.99835e-05
-8.97231e-05
-8.93648e-05
-8.89112e-05
-8.83657e-05
-8.77318e-05
-8.70138e-05
-8.62161e-05
-8.5344e-05
-8.4403e-05
-8.33994e-05
-8.234e-05
-8.1232e-05
-8.00833e-05
-7.89023e-05
-7.76981e-05
-7.64801e-05
-7.52584e-05
-7.40434e-05
-7.28459e-05
-7.16772e-05
-7.05485e-05
-6.94716e-05
-6.84577e-05
-6.75185e-05
-6.66653e-05
-6.59085e-05
-6.52542e-05
-6.47066e-05
-6.43099e-05
-9.49512e-06
-9.10241e-06
-8.56614e-06
-7.93028e-06
-7.19624e-06
-6.36635e-06
-5.44806e-06
-4.44968e-06
-3.38008e-06
-2.24797e-06
-1.06268e-06
1.66619e-07
1.43029e-06
2.71897e-06
4.023e-06
5.33312e-06
6.63988e-06
7.93434e-06
9.2075e-06
1.04509e-05
1.16561e-05
1.28154e-05
1.3921e-05
1.4966e-05
1.59433e-05
1.68468e-05
1.76705e-05
1.84091e-05
1.90574e-05
1.96111e-05
2.00659e-05
2.04184e-05
2.06655e-05
2.08044e-05
2.08331e-05
2.07498e-05
2.05533e-05
2.02427e-05
1.98178e-05
1.92784e-05
1.86252e-05
1.7859e-05
1.6981e-05
1.59928e-05
1.48965e-05
1.36944e-05
1.23892e-05
1.09837e-05
9.48127e-06
7.88539e-06
6.19989e-06
4.42871e-06
2.57614e-06
6.46532e-07
-1.35543e-06
-3.42508e-06
-5.5574e-06
-7.74748e-06
-9.99008e-06
-1.22801e-05
-1.46121e-05
-1.69808e-05
-1.93808e-05
-2.18067e-05
-2.42531e-05
-2.67146e-05
-2.91857e-05
-3.16612e-05
-3.41356e-05
-3.66038e-05
-3.90606e-05
-4.15008e-05
-4.39195e-05
-4.63117e-05
-4.86727e-05
-5.09977e-05
-5.32822e-05
-5.55218e-05
-5.7712e-05
-5.98489e-05
-6.19282e-05
-6.39463e-05
-6.58992e-05
-6.77836e-05
-6.95959e-05
-7.13331e-05
-7.29919e-05
-7.45696e-05
-7.60634e-05
-7.74709e-05
-7.87897e-05
-8.00177e-05
-8.1153e-05
-8.2194e-05
-8.31389e-05
-8.39867e-05
-8.47362e-05
-8.53866e-05
-8.59373e-05
-8.63879e-05
-8.67385e-05
-8.69891e-05
-8.71402e-05
-8.71927e-05
-8.71475e-05
-8.70061e-05
-8.67701e-05
-8.64417e-05
-8.60231e-05
-8.55173e-05
-8.49273e-05
-8.42567e-05
-8.35096e-05
-8.26902e-05
-8.18035e-05
-8.08546e-05
-7.98493e-05
-7.87936e-05
-7.76942e-05
-7.6558e-05
-7.53924e-05
-7.42051e-05
-7.30042e-05
-7.17982e-05
-7.05955e-05
-6.9405e-05
-6.82354e-05
-6.70956e-05
-6.59942e-05
-6.49399e-05
-6.39415e-05
-6.30049e-05
-6.21254e-05
-6.12981e-05
-6.06319e-05
-1.34793e-05
-1.28473e-05
-1.2057e-05
-1.12081e-05
-1.02948e-05
-9.31114e-06
-8.26157e-06
-7.15287e-06
-5.99229e-06
-4.78676e-06
-3.54391e-06
-2.27128e-06
-9.76939e-07
3.31254e-07
1.64507e-06
2.9566e-06
4.25767e-06
5.54054e-06
6.79731e-06
8.02058e-06
9.20288e-06
1.03373e-05
1.1417e-05
1.24356e-05
1.33869e-05
1.42653e-05
1.50654e-05
1.57823e-05
1.64114e-05
1.69486e-05
1.73903e-05
1.77331e-05
1.79742e-05
1.81113e-05
1.81423e-05
1.80658e-05
1.78806e-05
1.7586e-05
1.71818e-05
1.6668e-05
1.60452e-05
1.53143e-05
1.44766e-05
1.35335e-05
1.24872e-05
1.13399e-05
1.00941e-05
8.75267e-06
7.31889e-06
5.79608e-06
4.18794e-06
2.49827e-06
7.31239e-07
-1.10898e-06
-3.01787e-06
-4.99094e-06
-7.02337e-06
-9.11045e-06
-1.12471e-05
-1.34285e-05
-1.56494e-05
-1.79048e-05
-2.01895e-05
-2.24984e-05
-2.48262e-05
-2.71679e-05
-2.95182e-05
-3.18722e-05
-3.42247e-05
-3.65708e-05
-3.89056e-05
-4.12242e-05
-4.35219e-05
-4.5794e-05
-4.8036e-05
-5.02435e-05
-5.24122e-05
-5.45378e-05
-5.66164e-05
-5.8644e-05
-6.06167e-05
-6.25311e-05
-6.43836e-05
-6.61709e-05
-6.78898e-05
-6.95373e-05
-7.11105e-05
-7.26069e-05
-7.40239e-05
-7.53591e-05
-7.66104e-05
-7.77758e-05
-7.88536e-05
-7.98422e-05
-8.07401e-05
-8.15461e-05
-8.22593e-05
-8.28788e-05
-8.3404e-05
-8.38347e-05
-8.41706e-05
-8.44118e-05
-8.45588e-05
-8.46121e-05
-8.45726e-05
-8.44414e-05
-8.42199e-05
-8.39099e-05
-8.35134e-05
-8.30326e-05
-8.24703e-05
-8.18294e-05
-8.11132e-05
-8.03254e-05
-7.94698e-05
-7.85509e-05
-7.75733e-05
-7.6542e-05
-7.54623e-05
-7.43397e-05
-7.31804e-05
-7.19902e-05
-7.07758e-05
-6.95435e-05
-6.83e-05
-6.7052e-05
-6.58061e-05
-6.45688e-05
-6.33464e-05
-6.21454e-05
-6.09724e-05
-5.98297e-05
-5.87024e-05
-5.75776e-05
-5.663e-05
-1.77958e-05
-1.69175e-05
-1.58617e-05
-1.4784e-05
-1.36725e-05
-1.25132e-05
-1.13082e-05
-1.00632e-05
-8.784e-06
-7.47625e-06
-6.14616e-06
-4.79991e-06
-3.44429e-06
-2.08591e-06
-7.31807e-07
6.11245e-07
1.93616e-06
3.2362e-06
4.50445e-06
5.73438e-06
6.91939e-06
8.05334e-06
9.13006e-06
1.01439e-05
1.10893e-05
1.19612e-05
1.27547e-05
1.34654e-05
1.40891e-05
1.46222e-05
1.50613e-05
1.54034e-05
1.56461e-05
1.57871e-05
1.58248e-05
1.57578e-05
1.55852e-05
1.53065e-05
1.49214e-05
1.44302e-05
1.38336e-05
1.31324e-05
1.2328e-05
1.1422e-05
1.04165e-05
9.31356e-06
8.1159e-06
6.8263e-06
5.44793e-06
3.98408e-06
2.4384e-06
8.14616e-07
-8.8321e-07
-2.65099e-06
-4.48433e-06
-6.37885e-06
-8.32988e-06
-1.03328e-05
-1.23828e-05
-1.44751e-05
-1.66046e-05
-1.87666e-05
-2.0956e-05
-2.3168e-05
-2.53973e-05
-2.76393e-05
-2.98889e-05
-3.21413e-05
-3.43916e-05
-3.66352e-05
-3.88672e-05
-4.10832e-05
-4.32784e-05
-4.54488e-05
-4.75898e-05
-4.96973e-05
-5.17671e-05
-5.37954e-05
-5.57782e-05
-5.7712e-05
-5.95931e-05
-6.14183e-05
-6.3184e-05
-6.48873e-05
-6.65252e-05
-6.80949e-05
-6.95936e-05
-7.10191e-05
-7.23687e-05
-7.36405e-05
-7.48323e-05
-7.59424e-05
-7.6969e-05
-7.79106e-05
-7.8766e-05
-7.95339e-05
-8.02133e-05
-8.08035e-05
-8.13039e-05
-8.17141e-05
-8.20337e-05
-8.22629e-05
-8.24018e-05
-8.24508e-05
-8.24107e-05
-8.22821e-05
-8.20664e-05
-8.17647e-05
-8.13787e-05
-8.09101e-05
-8.03613e-05
-7.97344e-05
-7.90322e-05
-7.82574e-05
-7.74134e-05
-7.65034e-05
-7.55312e-05
-7.45007e-05
-7.34162e-05
-7.22818e-05
-7.11023e-05
-6.98823e-05
-6.86267e-05
-6.73405e-05
-6.60285e-05
-6.46958e-05
-6.33471e-05
-6.19869e-05
-6.06198e-05
-5.92502e-05
-5.78835e-05
-5.65188e-05
-5.51321e-05
-5.37033e-05
-5.24725e-05
-2.2329e-05
-2.12035e-05
-1.98776e-05
-1.85622e-05
-1.72399e-05
-1.58895e-05
-1.45112e-05
-1.31099e-05
-1.16906e-05
-1.02577e-05
-8.81638e-06
-7.37177e-06
-5.92965e-06
-4.49561e-06
-3.07574e-06
-1.67587e-06
-3.02199e-07
1.0394e-06
2.34279e-06
3.60225e-06
4.81186e-06
5.96618e-06
7.05967e-06
8.0873e-06
9.04403e-06
9.92532e-06
1.07268e-05
1.14444e-05
1.20745e-05
1.26137e-05
1.3059e-05
1.34079e-05
1.36581e-05
1.38077e-05
1.38552e-05
1.37995e-05
1.36399e-05
1.3376e-05
1.30078e-05
1.25357e-05
1.19605e-05
1.12831e-05
1.0505e-05
9.62789e-06
8.65386e-06
7.58515e-06
6.42446e-06
5.17456e-06
3.83868e-06
2.42007e-06
9.22407e-07
-6.50636e-07
-2.29502e-06
-4.00671e-06
-5.78136e-06
-7.61466e-06
-9.50202e-06
-1.14389e-05
-1.34206e-05
-1.54424e-05
-1.74995e-05
-1.95872e-05
-2.17004e-05
-2.38346e-05
-2.59847e-05
-2.81461e-05
-3.0314e-05
-3.24838e-05
-3.46507e-05
-3.68102e-05
-3.89578e-05
-4.10891e-05
-4.31998e-05
-4.52857e-05
-4.73425e-05
-4.93665e-05
-5.13536e-05
-5.33002e-05
-5.52025e-05
-5.70572e-05
-5.88608e-05
-6.06102e-05
-6.23021e-05
-6.39339e-05
-6.55025e-05
-6.70055e-05
-6.84402e-05
-6.98044e-05
-7.10958e-05
-7.23125e-05
-7.34524e-05
-7.45138e-05
-7.54952e-05
-7.63951e-05
-7.72122e-05
-7.79453e-05
-7.85936e-05
-7.91561e-05
-7.96323e-05
-8.00216e-05
-8.03237e-05
-8.05385e-05
-8.0666e-05
-8.07063e-05
-8.066e-05
-8.05275e-05
-8.03097e-05
-8.00075e-05
-7.9622e-05
-7.91546e-05
-7.8607e-05
-7.79808e-05
-7.7278e-05
-7.65008e-05
-7.56517e-05
-7.47331e-05
-7.37479e-05
-7.26989e-05
-7.15895e-05
-7.04226e-05
-6.92018e-05
-6.79305e-05
-6.66124e-05
-6.52507e-05
-6.38493e-05
-6.24114e-05
-6.09405e-05
-5.94394e-05
-5.7911e-05
-5.63587e-05
-5.47866e-05
-5.31914e-05
-5.15407e-05
-4.98083e-05
-4.82975e-05
-2.6987e-05
-2.5616e-05
-2.40193e-05
-2.24615e-05
-2.09202e-05
-1.93679e-05
-1.7803e-05
-1.62301e-05
-1.46537e-05
-1.30773e-05
-1.15054e-05
-9.94224e-06
-8.39285e-06
-6.86204e-06
-5.35516e-06
-3.87729e-06
-2.43392e-06
-1.03022e-06
3.28332e-07
1.63664e-06
2.88941e-06
4.08177e-06
5.20874e-06
6.26579e-06
7.2484e-06
8.15247e-06
8.97405e-06
9.70955e-06
1.03557e-05
1.09094e-05
1.13681e-05
1.17296e-05
1.19917e-05
1.2153e-05
1.22123e-05
1.21685e-05
1.20213e-05
1.17704e-05
1.14162e-05
1.0959e-05
1.03998e-05
9.73978e-06
8.98055e-06
8.12384e-06
7.17191e-06
6.12706e-06
4.9921e-06
3.76987e-06
2.46365e-06
1.07674e-06
-3.87131e-07
-1.92428e-06
-3.53063e-06
-5.20217e-06
-6.93453e-06
-8.72345e-06
-1.05643e-05
-1.24527e-05
-1.43839e-05
-1.63533e-05
-1.83561e-05
-2.03877e-05
-2.24432e-05
-2.4518e-05
-2.66073e-05
-2.87066e-05
-3.08111e-05
-3.29164e-05
-3.50178e-05
-3.71111e-05
-3.91917e-05
-4.12557e-05
-4.32985e-05
-4.53166e-05
-4.73055e-05
-4.92618e-05
-5.11815e-05
-5.30614e-05
-5.48976e-05
-5.66871e-05
-5.84266e-05
-6.01132e-05
-6.17438e-05
-6.33157e-05
-6.48263e-05
-6.62731e-05
-6.76537e-05
-6.8966e-05
-7.02077e-05
-7.13771e-05
-7.24723e-05
-7.34916e-05
-7.44335e-05
-7.52965e-05
-7.60795e-05
-7.67813e-05
-7.74009e-05
-7.79374e-05
-7.83902e-05
-7.87586e-05
-7.90423e-05
-7.92408e-05
-7.93541e-05
-7.9382e-05
-7.93249e-05
-7.91829e-05
-7.89565e-05
-7.86462e-05
-7.82528e-05
-7.77772e-05
-7.72204e-05
-7.65836e-05
-7.58683e-05
-7.50757e-05
-7.42078e-05
-7.32662e-05
-7.22529e-05
-7.11698e-05
-7.00194e-05
-6.88036e-05
-6.7525e-05
-6.61857e-05
-6.47884e-05
-6.33352e-05
-6.18286e-05
-6.02706e-05
-5.86635e-05
-5.7009e-05
-5.53086e-05
-5.35646e-05
-5.17807e-05
-4.99513e-05
-4.80366e-05
-4.60046e-05
-4.42199e-05
-3.16965e-05
-3.00831e-05
-2.82165e-05
-2.64138e-05
-2.46481e-05
-2.28859e-05
-2.11243e-05
-1.9368e-05
-1.7621e-05
-1.58864e-05
-1.41681e-05
-1.24698e-05
-1.0796e-05
-9.15093e-06
-7.53933e-06
-5.96575e-06
-4.43511e-06
-2.95207e-06
-1.52153e-06
-1.48115e-07
1.16342e-06
2.40864e-06
3.58309e-06
4.68263e-06
5.70322e-06
6.64111e-06
7.4928e-06
8.25504e-06
8.92491e-06
9.49972e-06
9.97722e-06
1.03553e-05
1.06325e-05
1.08073e-05
1.08789e-05
1.08465e-05
1.071e-05
1.04694e-05
1.0125e-05
9.67773e-06
9.12859e-06
8.47891e-06
7.73051e-06
6.88528e-06
5.94562e-06
4.91398e-06
3.79329e-06
2.58651e-06
1.29704e-06
-7.17293e-08
-1.51599e-06
-3.03199e-06
-4.61557e-06
-6.26267e-06
-7.9689e-06
-9.72994e-06
-1.15412e-05
-1.33982e-05
-1.52963e-05
-1.72308e-05
-1.9197e-05
-2.11903e-05
-2.32058e-05
-2.52392e-05
-2.72855e-05
-2.93404e-05
-3.13991e-05
-3.34574e-05
-3.55106e-05
-3.75547e-05
-3.95853e-05
-4.15984e-05
-4.35898e-05
-4.55558e-05
-4.74924e-05
-4.93962e-05
-5.12634e-05
-5.30908e-05
-5.48748e-05
-5.66126e-05
-5.83009e-05
-5.99371e-05
-6.15181e-05
-6.30416e-05
-6.45048e-05
-6.59056e-05
-6.72417e-05
-6.85109e-05
-6.97113e-05
-7.0841e-05
-7.18984e-05
-7.28818e-05
-7.37897e-05
-7.46208e-05
-7.53738e-05
-7.60475e-05
-7.66411e-05
-7.71534e-05
-7.75839e-05
-7.79317e-05
-7.81963e-05
-7.83772e-05
-7.84741e-05
-7.84868e-05
-7.84151e-05
-7.82589e-05
-7.80185e-05
-7.76939e-05
-7.72857e-05
-7.6794e-05
-7.62197e-05
-7.55631e-05
-7.48252e-05
-7.40068e-05
-7.31091e-05
-7.21328e-05
-7.10793e-05
-6.99498e-05
-6.87457e-05
-6.74682e-05
-6.61189e-05
-6.46989e-05
-6.32099e-05
-6.16531e-05
-6.00299e-05
-5.83413e-05
-5.65886e-05
-5.47722e-05
-5.28931e-05
-5.09526e-05
-4.89539e-05
-4.68899e-05
-4.47136e-05
-4.23879e-05
-4.03363e-05
-3.63999e-05
-3.45469e-05
-3.24117e-05
-3.03626e-05
-2.83684e-05
-2.63901e-05
-2.44239e-05
-2.24745e-05
-2.0546e-05
-1.86411e-05
-1.67634e-05
-1.49162e-05
-1.31037e-05
-1.13297e-05
-9.59858e-06
-7.91446e-06
-6.28185e-06
-4.70501e-06
-3.18843e-06
-1.73633e-06
-3.5305e-07
9.57347e-07
2.19081e-06
3.34354e-06
4.41191e-06
5.3925e-06
6.28218e-06
7.07801e-06
7.77743e-06
8.37805e-06
8.87793e-06
9.27529e-06
9.56888e-06
9.75753e-06
9.84068e-06
9.81784e-06
9.68912e-06
9.45471e-06
9.11539e-06
8.672e-06
8.12597e-06
7.47879e-06
6.73249e-06
5.88916e-06
4.95138e-06
3.92179e-06
2.8035e-06
1.59961e-06
3.13687e-07
-1.05074e-06
-2.48974e-06
-3.99942e-06
-5.57553e-06
-7.21391e-06
-8.91006e-06
-1.06596e-05
-1.24579e-05
-1.43004e-05
-1.61824e-05
-1.80993e-05
-2.00462e-05
-2.20186e-05
-2.40117e-05
-2.6021e-05
-2.80417e-05
-3.00694e-05
-3.20995e-05
-3.41278e-05
-3.61497e-05
-3.81612e-05
-4.01581e-05
-4.21364e-05
-4.40921e-05
-4.60215e-05
-4.79209e-05
-4.97868e-05
-5.16158e-05
-5.34045e-05
-5.51498e-05
-5.68488e-05
-5.84985e-05
-6.00961e-05
-6.16391e-05
-6.3125e-05
-6.45513e-05
-6.59158e-05
-6.72165e-05
-6.84513e-05
-6.96183e-05
-7.07158e-05
-7.17421e-05
-7.26957e-05
-7.35751e-05
-7.4379e-05
-7.51061e-05
-7.57552e-05
-7.63254e-05
-7.68156e-05
-7.72251e-05
-7.75528e-05
-7.77983e-05
-7.79608e-05
-7.80399e-05
-7.80349e-05
-7.79457e-05
-7.77718e-05
-7.75131e-05
-7.71693e-05
-7.67405e-05
-7.62266e-05
-7.56277e-05
-7.4944e-05
-7.41758e-05
-7.33231e-05
-7.23866e-05
-7.13665e-05
-7.02635e-05
-6.90779e-05
-6.78103e-05
-6.64613e-05
-6.50315e-05
-6.35214e-05
-6.19316e-05
-6.02624e-05
-5.85145e-05
-5.6688e-05
-5.47832e-05
-5.28e-05
-5.07382e-05
-4.85989e-05
-4.63849e-05
-4.40876e-05
-4.16536e-05
-3.90407e-05
-3.67294e-05
-4.10516e-05
-3.89609e-05
-3.65579e-05
-3.42607e-05
-3.20345e-05
-2.98347e-05
-2.76571e-05
-2.55066e-05
-2.33872e-05
-2.13018e-05
-1.92536e-05
-1.7246e-05
-1.52827e-05
-1.33675e-05
-1.15043e-05
-9.69722e-06
-7.95031e-06
-6.26759e-06
-4.65325e-06
-3.11122e-06
-1.64552e-06
-2.59909e-07
1.04188e-06
2.25636e-06
3.38021e-06
4.41032e-06
5.34387e-06
6.17822e-06
6.91111e-06
7.54045e-06
8.06461e-06
8.48208e-06
8.7919e-06
8.99321e-06
9.08569e-06
9.06917e-06
8.944e-06
8.71066e-06
8.37017e-06
7.92367e-06
7.37281e-06
6.71934e-06
5.96553e-06
5.1137e-06
4.16667e-06
3.12731e-06
1.99891e-06
7.84816e-07
-5.11243e-07
-1.88554e-06
-3.33396e-06
-4.85245e-06
-6.43662e-06
-8.08216e-06
-9.78444e-06
-1.1539e-05
-1.3341e-05
-1.51859e-05
-1.70688e-05
-1.89851e-05
-2.093e-05
-2.28987e-05
-2.48865e-05
-2.68889e-05
-2.8901e-05
-3.09185e-05
-3.29369e-05
-3.49518e-05
-3.69588e-05
-3.8954e-05
-4.0933e-05
-4.28922e-05
-4.48275e-05
-4.67354e-05
-4.86122e-05
-5.04546e-05
-5.22591e-05
-5.40227e-05
-5.57423e-05
-5.74151e-05
-5.90381e-05
-6.06089e-05
-6.21249e-05
-6.35837e-05
-6.49831e-05
-6.63209e-05
-6.75951e-05
-6.88039e-05
-6.99453e-05
-7.10177e-05
-7.20196e-05
-7.29493e-05
-7.38056e-05
-7.4587e-05
-7.52923e-05
-7.59203e-05
-7.647e-05
-7.69403e-05
-7.73303e-05
-7.76391e-05
-7.78658e-05
-7.80095e-05
-7.80698e-05
-7.80457e-05
-7.79368e-05
-7.77424e-05
-7.74621e-05
-7.70952e-05
-7.66415e-05
-7.61004e-05
-7.54717e-05
-7.4755e-05
-7.39501e-05
-7.30567e-05
-7.20747e-05
-7.10037e-05
-6.98438e-05
-6.85947e-05
-6.72564e-05
-6.58285e-05
-6.43111e-05
-6.27038e-05
-6.10066e-05
-5.92191e-05
-5.73409e-05
-5.53717e-05
-5.3311e-05
-5.1158e-05
-4.89118e-05
-4.65732e-05
-4.41447e-05
-4.16167e-05
-3.89294e-05
-3.60359e-05
-3.34718e-05
-4.56153e-05
-4.32876e-05
-4.06161e-05
-3.80688e-05
-3.56067e-05
-3.31805e-05
-3.07851e-05
-2.84261e-05
-2.61076e-05
-2.38327e-05
-2.16045e-05
-1.94264e-05
-1.7302e-05
-1.52349e-05
-1.32291e-05
-1.12885e-05
-9.4169e-06
-7.61824e-06
-5.89646e-06
-4.2553e-06
-2.69853e-06
-1.2297e-06
1.47717e-07
1.43048e-06
2.61553e-06
3.70003e-06
4.6814e-06
5.55731e-06
6.32576e-06
6.98495e-06
7.53351e-06
7.97026e-06
8.29449e-06
8.50565e-06
8.60371e-06
8.58879e-06
8.46152e-06
8.2227e-06
7.8736e-06
7.41569e-06
6.85088e-06
6.18122e-06
5.40923e-06
4.53755e-06
3.56922e-06
2.5074e-06
1.35562e-06
1.17491e-07
-1.20305e-06
-2.602e-06
-4.07509e-06
-5.61799e-06
-7.22618e-06
-8.8951e-06
-1.062e-05
-1.23962e-05
-1.42188e-05
-1.60831e-05
-1.79841e-05
-1.9917e-05
-2.1877e-05
-2.38592e-05
-2.58588e-05
-2.78713e-05
-2.98918e-05
-3.19159e-05
-3.3939e-05
-3.59569e-05
-3.79653e-05
-3.99599e-05
-4.19369e-05
-4.38922e-05
-4.58222e-05
-4.77232e-05
-4.95918e-05
-5.14245e-05
-5.32181e-05
-5.49697e-05
-5.66762e-05
-5.83349e-05
-5.99431e-05
-6.14982e-05
-6.2998e-05
-6.444e-05
-6.58222e-05
-6.71424e-05
-6.83989e-05
-6.95896e-05
-7.0713e-05
-7.17674e-05
-7.27512e-05
-7.3663e-05
-7.45014e-05
-7.5265e-05
-7.59527e-05
-7.65632e-05
-7.70954e-05
-7.75482e-05
-7.79206e-05
-7.82116e-05
-7.84202e-05
-7.85454e-05
-7.85865e-05
-7.85424e-05
-7.84124e-05
-7.81955e-05
-7.78912e-05
-7.74983e-05
-7.70164e-05
-7.64445e-05
-7.57819e-05
-7.50278e-05
-7.41816e-05
-7.32424e-05
-7.22097e-05
-7.10826e-05
-6.98604e-05
-6.85424e-05
-6.71278e-05
-6.56158e-05
-6.40056e-05
-6.22964e-05
-6.04872e-05
-5.85772e-05
-5.65653e-05
-5.44505e-05
-5.22317e-05
-4.99076e-05
-4.74767e-05
-4.49394e-05
-4.22984e-05
-3.95428e-05
-3.66066e-05
-3.34388e-05
-3.06281e-05
-5.0062e-05
-4.74962e-05
-4.45543e-05
-4.17534e-05
-3.90511e-05
-3.6393e-05
-3.37735e-05
-3.11989e-05
-2.86737e-05
-2.6201e-05
-2.37842e-05
-2.14265e-05
-1.91319e-05
-1.69038e-05
-1.47463e-05
-1.26631e-05
-1.06582e-05
-8.73524e-06
-6.8981e-06
-5.15039e-06
-3.49576e-06
-1.93755e-06
-4.79081e-07
8.76631e-07
2.12672e-06
3.26858e-06
4.29989e-06
5.21855e-06
6.02281e-06
6.71117e-06
7.2825e-06
7.73596e-06
8.07106e-06
8.28762e-06
8.38586e-06
8.36626e-06
8.22971e-06
7.97737e-06
7.61081e-06
7.13182e-06
6.54262e-06
5.84561e-06
5.04359e-06
4.13953e-06
3.13677e-06
2.03879e-06
8.49393e-07
-4.27496e-07
-1.78769e-06
-3.22688e-06
-4.74056e-06
-6.32415e-06
-7.97288e-06
-9.68195e-06
-1.14465e-05
-1.32614e-05
-1.51219e-05
-1.70229e-05
-1.89593e-05
-2.09261e-05
-2.29185e-05
-2.49314e-05
-2.69601e-05
-2.89996e-05
-3.10454e-05
-3.30927e-05
-3.51372e-05
-3.71744e-05
-3.92e-05
-4.12099e-05
-4.32001e-05
-4.51667e-05
-4.71061e-05
-4.90146e-05
-5.08889e-05
-5.27255e-05
-5.45215e-05
-5.62737e-05
-5.79795e-05
-5.9636e-05
-6.12407e-05
-6.27911e-05
-6.4285e-05
-6.57201e-05
-6.70945e-05
-6.84061e-05
-6.96532e-05
-7.08339e-05
-7.19466e-05
-7.29897e-05
-7.39617e-05
-7.48613e-05
-7.5687e-05
-7.64376e-05
-7.71118e-05
-7.77083e-05
-7.82261e-05
-7.8664e-05
-7.90209e-05
-7.92956e-05
-7.94871e-05
-7.95944e-05
-7.96163e-05
-7.95519e-05
-7.93999e-05
-7.91595e-05
-7.88294e-05
-7.84087e-05
-7.78961e-05
-7.72907e-05
-7.65912e-05
-7.57966e-05
-7.49056e-05
-7.39171e-05
-7.28299e-05
-7.16428e-05
-7.03544e-05
-6.89637e-05
-6.7469e-05
-6.58692e-05
-6.41627e-05
-6.23483e-05
-6.04243e-05
-5.83893e-05
-5.62417e-05
-5.39799e-05
-5.16022e-05
-4.91068e-05
-4.64918e-05
-4.37574e-05
-4.09062e-05
-3.79262e-05
-3.47457e-05
-3.13092e-05
-2.82575e-05
-5.43678e-05
-5.1561e-05
-4.83446e-05
-4.52855e-05
-4.23376e-05
-3.94415e-05
-3.65913e-05
-3.3794e-05
-3.10545e-05
-2.83762e-05
-2.57626e-05
-2.32173e-05
-2.07442e-05
-1.8347e-05
-1.60299e-05
-1.37965e-05
-1.16509e-05
-9.59671e-06
-7.63784e-06
-5.77781e-06
-4.02016e-06
-2.36814e-06
-8.24927e-07
6.06621e-07
1.92379e-06
3.12422e-06
4.20573e-06
5.16652e-06
6.00504e-06
6.72009e-06
7.31077e-06
7.77657e-06
8.11727e-06
8.33305e-06
8.42438e-06
8.39214e-06
8.23751e-06
7.96204e-06
7.5676e-06
7.05638e-06
6.4309e-06
5.69398e-06
4.84872e-06
3.89849e-06
2.84694e-06
1.69793e-06
4.55558e-07
-8.75863e-07
-2.29187e-06
-3.7878e-06
-5.35889e-06
-7.00019e-06
-8.70674e-06
-1.04734e-05
-1.22951e-05
-1.41665e-05
-1.60825e-05
-1.80379e-05
-2.00274e-05
-2.20459e-05
-2.40883e-05
-2.61494e-05
-2.82243e-05
-3.03081e-05
-3.2396e-05
-3.44833e-05
-3.65655e-05
-3.86381e-05
-4.06969e-05
-4.27376e-05
-4.47563e-05
-4.6749e-05
-4.87123e-05
-5.06424e-05
-5.2536e-05
-5.43899e-05
-5.6201e-05
-5.79664e-05
-5.96833e-05
-6.13491e-05
-6.29613e-05
-6.45176e-05
-6.60158e-05
-6.74536e-05
-6.88293e-05
-7.01409e-05
-7.13866e-05
-7.25648e-05
-7.36739e-05
-7.47123e-05
-7.56787e-05
-7.65717e-05
-7.73898e-05
-7.81319e-05
-7.87967e-05
-7.9383e-05
-7.98895e-05
-8.03152e-05
-8.06587e-05
-8.0919e-05
-8.10948e-05
-8.1185e-05
-8.11884e-05
-8.11037e-05
-8.09296e-05
-8.06649e-05
-8.03082e-05
-7.98583e-05
-7.93137e-05
-7.8673e-05
-7.79346e-05
-7.70972e-05
-7.61591e-05
-7.51188e-05
-7.39746e-05
-7.27249e-05
-7.13678e-05
-6.99016e-05
-6.83244e-05
-6.66345e-05
-6.48296e-05
-6.29081e-05
-6.08677e-05
-5.87065e-05
-5.64223e-05
-5.40132e-05
-5.14767e-05
-4.88108e-05
-4.60131e-05
-4.30835e-05
-4.00247e-05
-3.68237e-05
-3.34031e-05
-2.97032e-05
-2.64154e-05
-5.85123e-05
-5.54595e-05
-5.19627e-05
-4.86392e-05
-4.5439e-05
-4.2298e-05
-3.92099e-05
-3.61823e-05
-3.32208e-05
-3.03291e-05
-2.7511e-05
-2.47703e-05
-2.21112e-05
-1.95377e-05
-1.70539e-05
-1.46638e-05
-1.23713e-05
-1.01804e-05
-8.09482e-06
-6.11814e-06
-4.25388e-06
-2.50521e-06
-8.75227e-07
6.33335e-07
2.0179e-06
3.27629e-06
4.4065e-06
5.40697e-06
6.27636e-06
7.01376e-06
7.61854e-06
8.09049e-06
8.42969e-06
8.63667e-06
8.71223e-06
8.65763e-06
8.47438e-06
8.16444e-06
7.73004e-06
7.1738e-06
6.49858e-06
5.70765e-06
4.80445e-06
3.79281e-06
2.67672e-06
1.46048e-06
1.48528e-07
-1.25441e-06
-2.74353e-06
-4.31377e-06
-5.96006e-06
-7.6771e-06
-9.4596e-06
-1.13021e-05
-1.31992e-05
-1.51455e-05
-1.71354e-05
-1.91634e-05
-2.12243e-05
-2.33124e-05
-2.54227e-05
-2.75497e-05
-2.96885e-05
-3.18338e-05
-3.3981e-05
-3.6125e-05
-3.82614e-05
-4.03856e-05
-4.24932e-05
-4.45802e-05
-4.66424e-05
-4.8676e-05
-5.06774e-05
-5.26429e-05
-5.45693e-05
-5.64534e-05
-5.82922e-05
-6.00828e-05
-6.18225e-05
-6.35088e-05
-6.51392e-05
-6.67115e-05
-6.82236e-05
-6.96735e-05
-7.10592e-05
-7.2379e-05
-7.36312e-05
-7.48143e-05
-7.59266e-05
-7.69667e-05
-7.79333e-05
-7.8825e-05
-7.96406e-05
-8.03787e-05
-8.10381e-05
-8.16177e-05
-8.21161e-05
-8.25323e-05
-8.28648e-05
-8.31127e-05
-8.32744e-05
-8.33487e-05
-8.33343e-05
-8.32299e-05
-8.30339e-05
-8.27449e-05
-8.23613e-05
-8.18816e-05
-8.13041e-05
-8.06271e-05
-7.98486e-05
-7.89672e-05
-7.79805e-05
-7.68869e-05
-7.56841e-05
-7.43702e-05
-7.29428e-05
-7.13998e-05
-6.97387e-05
-6.79574e-05
-6.60531e-05
-6.40236e-05
-6.18663e-05
-5.95787e-05
-5.71581e-05
-5.4602e-05
-5.19077e-05
-4.90726e-05
-4.6094e-05
-4.29716e-05
-3.9708e-05
-3.62893e-05
-3.26326e-05
-2.86738e-05
-2.51543e-05
-6.24768e-05
-5.91714e-05
-5.5386e-05
-5.17901e-05
-4.83298e-05
-4.49358e-05
-4.16016e-05
-3.83358e-05
-3.51443e-05
-3.20313e-05
-2.9001e-05
-2.60576e-05
-2.32054e-05
-2.04488e-05
-1.77922e-05
-1.52396e-05
-1.27953e-05
-1.04632e-05
-8.24721e-06
-6.15095e-06
-4.17793e-06
-2.33132e-06
-6.14151e-07
9.70932e-07
2.42147e-06
3.73545e-06
4.91104e-06
5.94689e-06
6.8419e-06