/*--------------------------------*- C++ -*----------------------------------*\
  =========                 |
  \\      /  F ield         | OpenFOAM: The Open Source CFD Toolbox
   \\    /   O peration     | Website:  https://openfoam.org
    \\  /    A nd           | Version:  12
     \\/     M anipulation  |
\*---------------------------------------------------------------------------*/
FoamFile
{
    format      ascii;
    class       surfaceScalarField;
    location    "9.5";
    object      phi;
}
// * * * * * * * * * * * * * * * * * * * * * * * * * * * * * * * * * * * * * //

dimensions      [0 3 -1 0 0 0 0];

internalField   nonuniform List<scalar> 
36180
(
-4.77031e-12
5.33071e-12
-1.81472e-11
1.33898e-11
-3.64201e-11
1.82531e-11
-5.64855e-11
2.00668e-11
-7.59244e-11
1.94182e-11
-9.2765e-11
1.68394e-11
-1.05561e-10
1.27794e-11
-1.13174e-10
7.61259e-12
-1.14825e-10
1.63721e-12
-1.09917e-10
-4.9086e-12
-9.80916e-11
-1.18347e-11
-7.90976e-11
-1.89946e-11
-5.28337e-11
-2.62715e-11
-1.9263e-11
-3.35715e-11
2.15515e-11
-4.08204e-11
6.95077e-11
-4.79571e-11
1.24436e-10
-5.49329e-11
1.86141e-10
-6.17065e-11
2.54381e-10
-6.82447e-11
3.28899e-10
-7.45188e-11
4.09401e-10
-8.05055e-11
4.95584e-10
-8.61846e-11
5.8712e-10
-9.15392e-11
6.83674e-10
-9.65551e-11
7.84891e-10
-1.0122e-10
8.90415e-10
-1.05525e-10
9.99874e-10
-1.09462e-10
1.1129e-09
-1.13023e-10
1.2291e-09
-1.16205e-10
1.3481e-09
-1.19003e-10
1.46951e-09
-1.21416e-10
1.59295e-09
-1.23442e-10
1.71804e-09
-1.25083e-10
1.84437e-09
-1.26339e-10
1.97159e-09
-1.27213e-10
2.09929e-09
-1.27709e-10
2.22712e-09
-1.27831e-10
2.35471e-09
-1.27585e-10
2.48168e-09
-1.26977e-10
2.6077e-09
-1.26014e-10
2.7324e-09
-1.24704e-10
2.85546e-09
-1.23057e-10
2.97654e-09
-1.21081e-10
3.09533e-09
-1.18788e-10
3.21151e-09
-1.16187e-10
3.3248e-09
-1.13291e-10
3.43491e-09
-1.10111e-10
3.54157e-09
-1.06659e-10
3.64452e-09
-1.02949e-10
3.74351e-09
-9.89933e-11
3.83832e-09
-9.4806e-11
3.92872e-09
-9.04008e-11
4.01451e-09
-8.57917e-11
4.0955e-09
-8.0993e-11
4.17152e-09
-7.60191e-11
4.2424e-09
-7.08845e-11
4.30801e-09
-6.56037e-11
4.3682e-09
-6.01913e-11
4.42286e-09
-5.46618e-11
4.47189e-09
-4.90297e-11
4.5152e-09
-4.33093e-11
4.55271e-09
-3.7515e-11
4.58437e-09
-3.16606e-11
4.61013e-09
-2.57602e-11
4.62996e-09
-1.98273e-11
4.64384e-09
-1.38755e-11
4.65175e-09
-7.9179e-12
4.65372e-09
-1.96739e-12
4.64976e-09
3.96337e-12
4.6399e-09
9.86218e-12
4.62418e-09
1.57171e-11
4.60266e-09
2.15162e-11
4.57541e-09
2.72483e-11
4.54251e-09
3.29023e-11
4.50404e-09
3.84674e-11
4.46011e-09
4.39333e-11
4.41082e-09
4.92899e-11
4.35629e-09
5.45272e-11
4.29666e-09
5.96359e-11
4.23205e-09
6.46066e-11
4.16262e-09
6.94303e-11
4.08852e-09
7.40984e-11
4.00992e-09
7.86021e-11
3.92699e-09
8.29331e-11
3.8399e-09
8.70834e-11
3.74886e-09
9.1045e-11
3.65405e-09
9.48099e-11
3.55568e-09
9.83704e-11
3.45396e-09
1.01719e-10
3.34911e-09
1.04848e-10
3.24136e-09
1.0775e-10
3.13094e-09
1.10418e-10
3.0181e-09
1.12844e-10
2.90308e-09
1.1502e-10
2.78614e-09
1.1694e-10
2.66754e-09
1.18596e-10
2.54756e-09
1.19981e-10
2.42647e-09
1.21086e-10
2.30457e-09
1.21905e-10
2.18214e-09
1.2243e-10
2.05948e-09
1.22653e-10
1.93692e-09
1.22567e-10
1.81475e-09
1.22164e-10
1.69332e-09
1.21437e-10
1.57294e-09
1.20379e-10
1.45396e-09
1.18981e-10
1.33672e-09
1.17237e-10
1.22158e-09
1.1514e-10
1.1089e-09
1.12683e-10
9.99035e-10
1.09861e-10
8.92368e-10
1.06667e-10
7.8927e-10
1.03098e-10
6.90122e-10
9.91485e-11
5.95304e-10
9.48173e-11
5.05202e-10
9.01031e-11
4.20194e-10
8.50071e-11
3.40662e-10
7.95331e-11
2.66973e-10
7.3688e-11
1.99491e-10
6.74829e-11
1.38556e-10
6.09342e-11
8.4492e-11
5.40653e-11
3.75831e-11
4.69084e-11
-1.92369e-12
3.95074e-11
-3.38456e-11
3.19215e-11
-5.80745e-11
2.42295e-11
-7.46122e-11
1.65374e-11
-8.35982e-11
8.98643e-12
-8.53653e-11
1.76692e-12
-8.04835e-11
-4.88149e-12
-6.98663e-11
-1.06174e-11
-5.48494e-11
-1.50168e-11
-3.73255e-11
-1.7524e-11
-1.98957e-11
-1.74299e-11
-6.05456e-12
-1.38412e-11
-6.05456e-12
-1.04511e-11
1.57759e-11
-3.33869e-11
3.6336e-11
-6.21548e-11
4.70086e-11
-9.13357e-11
4.92507e-11
-1.1647e-10
4.45396e-11
-1.33844e-10
3.42145e-11
-1.40513e-10
1.94383e-11
-1.34103e-10
1.20398e-12
-1.12813e-10
-1.96603e-11
-7.52554e-11
-4.24659e-11
-2.04503e-11
-6.66456e-11
5.22863e-11
-9.1731e-11
1.43346e-10
-1.17336e-10
2.52914e-10
-1.43139e-10
3.80965e-10
-1.68875e-10
5.27327e-10
-1.9432e-10
6.91676e-10
-2.19286e-10
8.73583e-10
-2.43614e-10
1.07251e-09
-2.67171e-10
1.28783e-09
-2.8984e-10
1.51884e-09
-3.11525e-10
1.7648e-09
-3.32141e-10
2.02487e-09
-3.51617e-10
2.29821e-09
-3.69891e-10
2.5839e-09
-3.86911e-10
2.881e-09
-4.02635e-10
3.18856e-09
-4.17025e-10
3.50559e-09
-4.30053e-10
3.83108e-09
-4.41695e-10
4.16401e-09
-4.51934e-10
4.50335e-09
-4.60758e-10
4.84807e-09
-4.68161e-10
5.19713e-09
-4.74141e-10
5.54948e-09
-4.78699e-10
5.90411e-09
-4.81843e-10
6.25999e-09
-4.83584e-10
6.61609e-09
-4.83937e-10
6.97143e-09
-4.82919e-10
7.325e-09
-4.80554e-10
7.67585e-09
-4.76866e-10
8.02303e-09
-4.71885e-10
8.36562e-09
-4.65641e-10
8.7027e-09
-4.58168e-10
9.03342e-09
-4.49505e-10
9.35692e-09
-4.3969e-10
9.6724e-09
-4.28764e-10
9.97906e-09
-4.16772e-10
1.02762e-08
-4.03759e-10
1.0563e-08
-3.89771e-10
1.08388e-08
-3.74858e-10
1.11031e-08
-3.5907e-10
1.13552e-08
-3.42457e-10
1.15944e-08
-3.25072e-10
1.18204e-08
-3.06967e-10
1.20326e-08
-2.88196e-10
1.22305e-08
-2.68814e-10
1.24138e-08
-2.48873e-10
1.2582e-08
-2.28428e-10
1.27349e-08
-2.07534e-10
1.28721e-08
-1.86244e-10
1.29934e-08
-1.64613e-10
1.30986e-08
-1.42694e-10
1.31875e-08
-1.2054e-10
1.32599e-08
-9.82032e-11
1.33158e-08
-7.57349e-11
1.33551e-08
-5.31859e-11
1.33778e-08
-3.06063e-11
1.33839e-08
-8.04491e-12
1.33734e-08
1.44503e-11
1.33464e-08
3.68325e-11
1.33031e-08
5.9056e-11
1.32435e-08
8.10759e-11
1.31679e-08
1.02849e-10
1.30765e-08
1.24332e-10
1.29695e-08
1.45485e-10
1.28472e-08
1.66267e-10
1.27098e-08
1.86639e-10
1.25578e-08
2.06563e-10
1.23914e-08
2.26002e-10
1.22111e-08
2.4492e-10
1.20172e-08
2.63283e-10
1.18103e-08
2.81056e-10
1.15907e-08
2.98206e-10
1.13589e-08
3.147e-10
1.11155e-08
3.30508e-10
1.08609e-08
3.45597e-10
1.05958e-08
3.59939e-10
1.03207e-08
3.73501e-10
1.00361e-08
3.86257e-10
9.74281e-09
3.98175e-10
9.44134e-09
4.09229e-10
9.13237e-09
4.19388e-10
8.81658e-09
4.28627e-10
8.49469e-09
4.36916e-10
8.1674e-09
4.44227e-10
7.83546e-09
4.50535e-10
7.49963e-09
4.5581e-10
7.16069e-09
4.60027e-10
6.81944e-09
4.63157e-10
6.4767e-09
4.65174e-10
6.1333e-09
4.66052e-10
5.7901e-09
4.65764e-10
5.44798e-09
4.64285e-10
5.10783e-09
4.6159e-10
4.77056e-09
4.57653e-10
4.43708e-09
4.52453e-10
4.10836e-09
4.45966e-10
3.78532e-09
4.38173e-10
3.46895e-09
4.29056e-10
3.16021e-09
4.18598e-10
2.86009e-09
4.06787e-10
2.56958e-09
3.93615e-10
2.28965e-09
3.79077e-10
2.02129e-09
3.63177e-10
1.76547e-09
3.45922e-10
1.52315e-09
3.27331e-10
1.29525e-09
3.07433e-10
1.08267e-09
2.8627e-10
8.86248e-10
2.63901e-10
7.06779e-10
2.40404e-10
5.44962e-10
2.15883e-10
4.01395e-10
1.90474e-10
2.76552e-10
1.64352e-10
1.70734e-10
1.37739e-10
8.40435e-11
1.10921e-10
1.63206e-11
8.426e-11
-3.29101e-11
5.82173e-11
-6.45189e-11
3.33756e-11
-7.98707e-11
1.04704e-11
-8.09172e-11
-9.57103e-12
-7.03423e-11
-2.55917e-11
-5.17062e-11
-3.61601e-11
-2.96085e-11
-3.95276e-11
-9.85817e-12
-3.35915e-11
-1.59127e-11
-9.98261e-12
2.5758e-11
-3.00423e-11
5.64006e-11
-5.23813e-11
6.93435e-11
-7.07416e-11
6.7614e-11
-7.99617e-11
5.37545e-11
-7.57124e-11
2.99677e-11
-5.44413e-11
-1.83728e-12
-1.32296e-11
-4.00054e-11
5.02374e-11
-8.3131e-11
1.37783e-10
-1.3001e-10
2.50756e-10
-1.79621e-10
3.90123e-10
-2.31097e-10
5.56487e-10
-2.83702e-10
7.50157e-10
-3.36809e-10
9.71161e-10
-3.89881e-10
1.2193e-09
-4.42462e-10
1.49417e-09
-4.94158e-10
1.79519e-09
-5.44631e-10
2.12161e-09
-5.9359e-10
2.47255e-09
-6.40783e-10
2.84701e-09
-6.85991e-10
3.2439e-09
-7.29027e-10
3.662e-09
-7.69727e-10
4.10006e-09
-8.07951e-10
4.55673e-09
-8.43579e-10
5.0306e-09
-8.76511e-10
5.52023e-09
-9.0666e-10
6.02414e-09
-9.33957e-10
6.54079e-09
-9.58346e-10
7.06863e-09
-9.79783e-10
7.60611e-09
-9.98238e-10
8.15164e-09
-1.01369e-09
8.70363e-09
-1.02613e-09
9.26049e-09
-1.03556e-09
9.82064e-09
-1.04199e-09
1.03825e-08
-1.04544e-09
1.09445e-08
-1.04594e-09
1.15051e-08
-1.04352e-09
1.20628e-08
-1.03823e-09
1.2616e-08
-1.03012e-09
1.31634e-08
-1.01925e-09
1.37034e-08
-1.00569e-09
1.42348e-08
-9.89494e-10
1.4756e-08
-9.70754e-10
1.52659e-08
-9.49547e-10
1.57631e-08
-9.25961e-10
1.62464e-08
-9.00088e-10
1.67146e-08
-8.72022e-10
1.71667e-08
-8.41865e-10
1.76016e-08
-8.09717e-10
1.80182e-08
-7.75686e-10
1.84156e-08
-7.39878e-10
1.8793e-08
-7.02406e-10
1.91494e-08
-6.6338e-10
1.94841e-08
-6.22914e-10
1.97964e-08
-5.81123e-10
2.00857e-08
-5.38123e-10
2.03513e-08
-4.94029e-10
2.05927e-08
-4.48957e-10
2.08095e-08
-4.03023e-10
2.10012e-08
-3.56342e-10
2.11675e-08
-3.09028e-10
2.13082e-08
-2.61196e-10
2.14229e-08
-2.12958e-10
2.15116e-08
-1.64424e-10
2.15741e-08
-1.15704e-10
2.16104e-08
-6.6905e-11
2.16205e-08
-1.81332e-11
2.16045e-08
3.0508e-11
2.15624e-08
7.8917e-11
2.14944e-08
1.26995e-10
2.14009e-08
1.74644e-10
2.12819e-08
2.2177e-10
2.1138e-08
2.6828e-10
2.09694e-08
3.14085e-10
2.07766e-08
3.59098e-10
2.056e-08
4.03231e-10
2.03201e-08
4.46404e-10
2.00576e-08
4.88534e-10
1.9773e-08
5.29543e-10
1.94669e-08
5.69354e-10
1.91401e-08
6.07894e-10
1.87932e-08
6.45088e-10
1.8427e-08
6.80867e-10
1.80424e-08
7.15159e-10
1.76401e-08
7.47899e-10
1.7221e-08
7.79019e-10
1.6786e-08
8.08454e-10
1.63362e-08
8.3614e-10
1.58723e-08
8.62015e-10
1.53955e-08
8.86016e-10
1.49068e-08
9.08082e-10
1.44073e-08
9.28153e-10
1.38981e-08
9.4617e-10
1.33802e-08
9.62073e-10
1.28549e-08
9.75806e-10
1.23234e-08
9.87309e-10
1.17869e-08
9.96527e-10
1.12467e-08
1.0034e-09
1.0704e-08
1.00789e-09
1.01601e-08
1.00992e-09
9.61645e-09
1.00945e-09
9.07431e-09
1.00642e-09
8.5351e-09
1.0008e-09
8.00023e-09
9.92524e-10
7.47113e-09
9.81561e-10
6.94923e-09
9.67866e-10
6.43599e-09
9.51406e-10
5.9329e-09
9.32151e-10
5.44142e-09
9.10078e-10
4.96304e-09
8.85171e-10
4.49923e-09
8.57425e-10
4.05146e-09
8.26846e-10
3.62118e-09
7.93453e-10
3.20982e-09
7.57283e-10
2.81876e-09
7.18391e-10
2.44934e-09
6.76857e-10
2.10282e-09
6.32789e-10
1.78039e-09
5.86331e-10
1.48313e-09
5.37666e-10
1.21198e-09
4.87031e-10
9.67736e-10
4.3472e-10
7.50984e-10
3.81104e-10
5.62079e-10
3.26643e-10
4.01094e-10
2.71907e-10
2.67757e-10
2.17596e-10
1.614e-10
1.64575e-10
8.08739e-11
1.13902e-10
2.44735e-11
6.68709e-11
-1.0158e-11
2.50603e-11
-2.6133e-11
-9.61664e-12
-2.74378e-11
-3.48555e-11
-1.90751e-11
-4.78904e-11
-7.28109e-12
-4.53856e-11
-2.31938e-11
-5.92007e-12
3.16767e-11
-1.50334e-11
6.55142e-11
-2.00161e-11
7.43233e-11
-1.47394e-11
6.23378e-11
5.95265e-12
3.30596e-11
4.6431e-11
-1.05093e-11
1.10348e-10
-6.57567e-11
2.0075e-10
-1.30406e-10
3.20097e-10
-2.0248e-10
4.70351e-10
-2.80262e-10
6.52996e-10
-3.62267e-10
8.69104e-10
-4.47204e-10
1.11936e-09
-5.33956e-10
1.4041e-09
-6.21551e-10
1.72336e-09
-7.09145e-10
2.0769e-09
-7.96004e-10
2.46423e-09
-8.81486e-10
2.88463e-09
-9.65032e-10
3.33719e-09
-1.04615e-09
3.82083e-09
-1.12442e-09
4.3343e-09
-1.19946e-09
4.87622e-09
-1.27095e-09
5.4451e-09
-1.3386e-09
6.03931e-09
-1.40217e-09
6.65717e-09
-1.46144e-09
7.29689e-09
-1.51623e-09
7.95662e-09
-1.56639e-09
8.63445e-09
-1.61179e-09
9.32843e-09
-1.65233e-09
1.00366e-08
-1.68792e-09
1.07568e-08
-1.7185e-09
1.14872e-08
-1.74405e-09
1.22256e-08
-1.76452e-09
1.29699e-08
-1.77992e-09
1.37182e-08
-1.79027e-09
1.44683e-08
-1.79558e-09
1.52183e-08
-1.7959e-09
1.59661e-08
-1.7913e-09
1.67097e-08
-1.78183e-09
1.74471e-08
-1.76759e-09
1.81766e-08
-1.74867e-09
1.88961e-08
-1.72518e-09
1.96038e-08
-1.69723e-09
2.0298e-08
-1.66495e-09
2.09769e-08
-1.62848e-09
2.16389e-08
-1.58796e-09
2.22824e-08
-1.54356e-09
2.29058e-08
-1.49542e-09
2.35076e-08
-1.44371e-09
2.40865e-08
-1.38861e-09
2.46411e-08
-1.3303e-09
2.51702e-08
-1.26895e-09
2.56726e-08
-1.20476e-09
2.61471e-08
-1.13791e-09
2.65928e-08
-1.0686e-09
2.70087e-08
-9.97011e-10
2.73939e-08
-9.23349e-10
2.77477e-08
-8.47807e-10
2.80693e-08
-7.70582e-10
2.83582e-08
-6.91871e-10
2.86137e-08
-6.1187e-10
2.88354e-08
-5.30773e-10
2.9023e-08
-4.48773e-10
2.91761e-08
-3.66064e-10
2.92945e-08
-2.82832e-10
2.93781e-08
-1.99267e-10
2.94267e-08
-1.1555e-10
2.94405e-08
-3.18642e-11
2.94193e-08
5.1614e-11
2.93636e-08
1.3471e-10
2.92733e-08
2.17254e-10
2.91489e-08
2.99078e-10
2.89906e-08
3.8002e-10
2.8799e-08
4.59921e-10
2.85744e-08
5.38625e-10
2.83175e-08
6.15982e-10
2.80289e-08
6.91843e-10
2.77093e-08
7.66066e-10
2.73593e-08
8.3851e-10
2.69798e-08
9.09039e-10
2.65716e-08
9.77521e-10
2.61357e-08
1.04383e-09
2.5673e-08
1.10783e-09
2.51844e-08
1.16941e-09
2.46711e-08
1.22844e-09
2.41342e-08
1.28481e-09
2.35749e-08
1.3384e-09
2.29942e-08
1.3891e-09
2.23936e-08
1.4368e-09
2.17742e-08
1.48139e-09
2.11374e-08
1.52277e-09
2.04847e-08
1.56084e-09
1.98174e-08
1.59548e-09
1.91369e-08
1.6266e-09
1.84449e-08
1.6541e-09
1.77428e-08
1.67788e-09
1.70323e-08
1.69786e-09
1.63149e-08
1.71392e-09
1.55923e-08
1.72599e-09
1.48662e-08
1.73397e-09
1.41384e-08
1.73778e-09
1.34105e-08
1.73733e-09
1.26844e-08
1.73254e-09
1.19618e-08
1.72334e-09
1.12447e-08
1.70966e-09
1.05348e-08
1.69144e-09
9.83406e-09
1.66861e-09
9.14434e-09
1.64113e-09
8.46753e-09
1.60896e-09
7.80552e-09
1.57208e-09
7.16022e-09
1.53048e-09
6.53349e-09
1.48416e-09
5.92719e-09
1.43315e-09
5.34314e-09
1.3775e-09
4.78313e-09
1.31729e-09
4.24888e-09
1.25264e-09
3.74204e-09
1.1837e-09
3.26417e-09
1.11067e-09
2.8167e-09
1.0338e-09
2.40094e-09
9.53423e-10
2.01804e-09
8.69934e-10
1.66893e-09
7.83827e-10
1.35433e-09
6.95703e-10
1.07468e-09
6.06296e-10
8.30099e-10
5.1649e-10
6.20342e-10
4.27353e-10
4.44746e-10
3.4017e-10
3.02171e-10
2.56477e-10
1.9093e-10
1.78111e-10
1.0873e-10
1.0726e-10
5.25923e-11
4.65209e-11
1.87693e-11
-1.0325e-12
2.66482e-12
-3.1786e-11
-1.32865e-12
-4.13922e-11
-2.45225e-11
-2.01339e-13
3.1874e-11
6.09866e-12
5.92112e-11
2.50563e-11
5.53606e-11
6.20552e-11
2.53368e-11
1.21755e-10
-2.66447e-11
2.0818e-10
-9.69345e-11
3.24745e-10
-1.82325e-10
4.74326e-10
-2.79987e-10
6.59274e-10
-3.8743e-10
8.81472e-10
-5.0246e-10
1.14235e-09
-6.23144e-10
1.44292e-09
-7.47779e-10
1.78383e-09
-8.74865e-10
2.16536e-09
-1.00308e-09
2.58746e-09
-1.13125e-09
3.04981e-09
-1.25835e-09
3.55178e-09
-1.38346e-09
4.09254e-09
-1.50579e-09
4.67099e-09
-1.62461e-09
5.28588e-09
-1.7393e-09
5.93572e-09
-1.84931e-09
6.6189e-09
-1.95414e-09
7.33365e-09
-2.05336e-09
8.07809e-09
-2.1466e-09
8.85019e-09
-2.23354e-09
9.64785e-09
-2.31389e-09
1.04689e-08
-2.38742e-09
1.1311e-08
-2.45393e-09
1.21719e-08
-2.51324e-09
1.30492e-08
-2.56524e-09
1.39406e-08
-2.60982e-09
1.48434e-08
-2.64691e-09
1.57554e-08
-2.67648e-09
1.6674e-08
-2.69851e-09
1.75967e-08
-2.71301e-09
1.85212e-08
-2.72002e-09
1.94449e-08
-2.7196e-09
2.03654e-08
-2.71183e-09
2.12804e-08
-2.6968e-09
2.21874e-08
-2.67465e-09
2.30842e-08
-2.6455e-09
2.39686e-08
-2.60951e-09
2.48382e-08
-2.56686e-09
2.5691e-08
-2.51774e-09
2.65249e-08
-2.46233e-09
2.73378e-08
-2.40087e-09
2.81278e-08
-2.33357e-09
2.8893e-08
-2.26068e-09
2.96318e-08
-2.18243e-09
3.03422e-08
-2.09909e-09
3.10228e-08
-2.01091e-09
3.16721e-08
-1.91818e-09
3.22885e-08
-1.82117e-09
3.28707e-08
-1.72015e-09
3.34176e-08
-1.61542e-09
3.39278e-08
-1.50727e-09
3.44004e-08
-1.39598e-09
3.48345e-08
-1.28186e-09
3.52291e-08
-1.16518e-09
3.55835e-08
-1.04626e-09
3.5897e-08
-9.25379e-10
3.61691e-08
-8.02832e-10
3.63992e-08
-6.7891e-10
3.6587e-08
-5.539e-10
3.67323e-08
-4.28087e-10
3.68348e-08
-3.01752e-10
3.68944e-08
-1.75172e-10
3.69111e-08
-4.86185e-11
3.68851e-08
7.76391e-11
3.68165e-08
2.03339e-10
3.67055e-08
3.28222e-10
3.65526e-08
4.52038e-10
3.6358e-08
5.74538e-10
3.61225e-08
6.95483e-10
3.58465e-08
8.14637e-10
3.55307e-08
9.31771e-10
3.51759e-08
1.04666e-09
3.47828e-08
1.15909e-09
3.43525e-08
1.26884e-09
3.38858e-08
1.37571e-09
3.33839e-08
1.4795e-09
3.28477e-08
1.58001e-09
3.22785e-08
1.67704e-09
3.16775e-08
1.77042e-09
3.10459e-08
1.85996e-09
3.03853e-08
1.94548e-09
2.96969e-08
2.02681e-09
2.89822e-08
2.10377e-09
2.82428e-08
2.17621e-09
2.74802e-08
2.24396e-09
2.66961e-08
2.30686e-09
2.58922e-08
2.36475e-09
2.50702e-08
2.41748e-09
2.42319e-08
2.4649e-09
2.33792e-08
2.50687e-09
2.25138e-08
2.54324e-09
2.16378e-08
2.57388e-09
2.07531e-08
2.59864e-09
1.98617e-08
2.61739e-09
1.89656e-08
2.63e-09
1.80671e-08
2.63636e-09
1.7168e-08
2.63634e-09
1.62708e-08
2.62984e-09
1.53774e-08
2.61674e-09
1.449e-08
2.59697e-09
1.36111e-08
2.57042e-09
1.27426e-08
2.53704e-09
1.1887e-08
2.49676e-09
1.10464e-08
2.44955e-09
1.02231e-08
2.39538e-09
9.41935e-09
2.33425e-09
8.63731e-09
2.26619e-09
7.87919e-09
2.19127e-09
7.14712e-09
2.10957e-09
6.44317e-09
2.02124e-09
5.76934e-09
1.92647e-09
5.12755e-09
1.82549e-09
4.51961e-09
1.71861e-09
3.94717e-09
1.60624e-09
3.41176e-09
1.48883e-09
2.91471e-09
1.36699e-09
2.45713e-09
1.2414e-09
2.03991e-09
1.11293e-09
1.66363e-09
9.8257e-10
1.32859e-09
8.51535e-10
1.0347e-09
7.21244e-10
7.81492e-10
5.93377e-10
5.6806e-10
4.69909e-10
3.93012e-10
3.5316e-10
2.54434e-10
2.45838e-10
1.4985e-10
1.51106e-10
7.61808e-11
7.26361e-11
2.96978e-11
1.46971e-11
6.00271e-12
-1.76971e-11
-1.85198e-11
6.2542e-12
2.56148e-11
3.02112e-11
3.52504e-11
7.67017e-11
8.86414e-12
1.50116e-10
-4.80803e-11
2.54357e-10
-1.30891e-10
3.92861e-10
-2.3544e-10
5.68583e-10
-3.58051e-10
7.84031e-10
-4.95436e-10
1.04126e-09
-6.44662e-10
1.34191e-09
-8.0311e-10
1.68721e-09
-9.68441e-10
2.07799e-09
-1.13856e-09
2.51474e-09
-1.31162e-09
2.99759e-09
-1.48593e-09
3.52634e-09
-1.66001e-09
4.10051e-09
-1.83252e-09
4.71933e-09
-2.00228e-09
5.38177e-09
-2.16823e-09
6.08657e-09
-2.32941e-09
6.83226e-09
-2.48499e-09
7.61714e-09
-2.63419e-09
8.43938e-09
-2.77637e-09
9.29695e-09
-2.91093e-09
1.01877e-08
-3.03735e-09
1.11093e-08
-3.15518e-09
1.20594e-08
-3.26402e-09
1.30356e-08
-3.36353e-09
1.40351e-08
-3.45345e-09
1.50554e-08
-3.53352e-09
1.60937e-08
-3.60357e-09
1.71473e-08
-3.66344e-09
1.82134e-08
-3.71304e-09
1.92893e-08
-3.7523e-09
2.03719e-08
-3.7812e-09
2.14587e-08
-3.79974e-09
2.25466e-08
-3.80797e-09
2.3633e-08
-3.80597e-09
2.4715e-08
-3.79383e-09
2.57899e-08
-3.7717e-09
2.6855e-08
-3.73973e-09
2.79076e-08
-3.6981e-09
2.89451e-08
-3.64704e-09
2.9965e-08
-3.58678e-09
3.09649e-08
-3.51756e-09
3.19422e-08
-3.43966e-09
3.28947e-08
-3.35339e-09
3.38202e-08
-3.25903e-09
3.47164e-08
-3.15693e-09
3.55814e-08
-3.04741e-09
3.64132e-08
-2.93084e-09
3.72098e-08
-2.80757e-09
3.79696e-08
-2.67797e-09
3.86909e-08
-2.54244e-09
3.93721e-08
-2.40134e-09
4.00117e-08
-2.25509e-09
4.06085e-08
-2.10408e-09
4.11613e-08
-1.9487e-09
4.16688e-08
-1.78938e-09
4.21301e-08
-1.6265e-09
4.25443e-08
-1.46049e-09
4.29107e-08
-1.29174e-09
4.32285e-08
-1.12067e-09
4.34973e-08
-9.47662e-10
4.37165e-08
-7.73129e-10
4.38859e-08
-5.97461e-10
4.40052e-08
-4.2105e-10
4.40743e-08
-2.4428e-10
4.40932e-08
-6.753e-11
4.4062e-08
1.08827e-10
4.39809e-08
2.84425e-10
4.38503e-08
4.58905e-10
4.36704e-08
6.31916e-10
4.34418e-08
8.03112e-10
4.31651e-08
9.72159e-10
4.2841e-08
1.13873e-09
4.24703e-08
1.30249e-09
4.20538e-08
1.46315e-09
4.15925e-08
1.62039e-09
4.10875e-08
1.77391e-09
4.05397e-08
1.92343e-09
3.99506e-08
2.06866e-09
3.93213e-08
2.20933e-09
3.86531e-08
2.34518e-09
3.79476e-08
2.47593e-09
3.72062e-08
2.60133e-09
3.64306e-08
2.72114e-09
3.56223e-08
2.83512e-09
3.4783e-08
2.94302e-09
3.39146e-08
3.04461e-09
3.30189e-08
3.13968e-09
3.20978e-08
3.228e-09
3.11532e-08
3.30935e-09
3.01871e-08
3.38353e-09
2.92017e-08
3.45032e-09
2.8199e-08
3.50954e-09
2.71813e-08
3.56098e-09
2.61507e-08
3.60445e-09
2.51096e-08
3.63977e-09
2.40602e-08
3.66677e-09
2.30049e-08
3.68527e-09
2.19462e-08
3.69511e-09
2.08864e-08
3.69614e-09
1.9828e-08
3.68822e-09
1.87735e-08
3.67121e-09
1.77255e-08
3.645e-09
1.66864e-08
3.60949e-09
1.56589e-08
3.56459e-09
1.46454e-08
3.51024e-09
1.36486e-08
3.44639e-09
1.26709e-08
3.37305e-09
1.17149e-08
3.29022e-09
1.07832e-08
3.19797e-09
9.87803e-09
3.0964e-09
9.00196e-09
2.98565e-09
8.15728e-09
2.86593e-09
7.34624e-09
2.7375e-09
6.57101e-09
2.60072e-09
5.83361e-09
2.45601e-09
5.13594e-09
2.3039e-09
4.47975e-09
2.14503e-09
3.86657e-09
1.98017e-09
3.29774e-09
1.81023e-09
2.77438e-09
1.63629e-09
2.29731e-09
1.45964e-09
1.86709e-09
1.28176e-09
1.48392e-09
1.10441e-09
1.14769e-09
9.29606e-10
8.57895e-10
7.59708e-10
6.13624e-10
5.9743e-10
4.1356e-10
4.45901e-10
2.55951e-10
3.08714e-10
1.38608e-10
1.8998e-10
5.89099e-11
9.43953e-11
1.38303e-11
2.73826e-11
-4.68943e-12
1.29521e-11
1.26584e-11
5.55142e-11
-7.31466e-12
1.31257e-10
-6.68844e-11
2.43539e-10
-1.60365e-10
3.95412e-10
-2.82768e-10
5.89606e-10
-4.29637e-10
8.2849e-10
-5.96939e-10
1.11408e-09
-7.81024e-10
1.448e-09
-9.78591e-10
1.83155e-09
-1.18665e-09
2.26562e-09
-1.40252e-09
2.75079e-09
-1.62373e-09
3.28727e-09
-1.8481e-09
3.87498e-09
-2.07363e-09
4.51349e-09
-2.29852e-09
5.20211e-09
-2.52114e-09
5.93985e-09
-2.74003e-09
6.72548e-09
-2.95386e-09
7.55752e-09
-3.16145e-09
8.43427e-09
-3.36173e-09
9.35382e-09
-3.55375e-09
1.03141e-08
-3.73664e-09
1.13128e-08
-3.90964e-09
1.23475e-08
-4.07209e-09
1.34157e-08
-4.22339e-09
1.45148e-08
-4.36304e-09
1.56418e-08
-4.49057e-09
1.6794e-08
-4.60563e-09
1.79684e-08
-4.7079e-09
1.91619e-08
-4.79713e-09
2.03716e-08
-4.87311e-09
2.15943e-08
-4.93572e-09
2.28268e-08
-4.98486e-09
2.40661e-08
-5.02049e-09
2.5309e-08
-5.04262e-09
2.65523e-08
-5.05129e-09
2.77929e-08
-5.0466e-09
2.90278e-08
-5.02868e-09
3.02538e-08
-4.9977e-09
3.1468e-08
-4.95387e-09
3.26673e-08
-4.89742e-09
3.38489e-08
-4.82863e-09
3.50099e-08
-4.74779e-09
3.61476e-08
-4.65524e-09
3.72592e-08
-4.55133e-09
3.83423e-08
-4.43644e-09
3.93942e-08
-4.31098e-09
4.04127e-08
-4.17536e-09
4.13953e-08
-4.03003e-09
4.23399e-08
-3.87544e-09
4.32444e-08
-3.71206e-09
4.41068e-08
-3.54039e-09
4.49253e-08
-3.36091e-09
4.56981e-08
-3.17415e-09
4.64236e-08
-2.9806e-09
4.71003e-08
-2.78079e-09
4.77268e-08
-2.57526e-09
4.8302e-08
-2.36452e-09
4.88246e-08
-2.14911e-09
4.92937e-08
-1.92957e-09
4.97083e-08
-1.70642e-09
5.00679e-08
-1.48019e-09
5.03716e-08
-1.25142e-09
5.06191e-08
-1.02063e-09
5.081e-08
-7.88326e-10
5.0944e-08
-5.55034e-10
5.10209e-08
-3.21254e-10
5.10409e-08
-8.74869e-11
5.1004e-08
1.45778e-10
5.09103e-08
3.78058e-10
5.07603e-08
6.08881e-10
5.05545e-08
8.37783e-10
5.02933e-08
1.06431e-09
4.99774e-08
1.28802e-09
4.96077e-08
1.50847e-09
4.91849e-08
1.72525e-09
4.87101e-08
1.93794e-09
4.81844e-08
2.14613e-09
4.76089e-08
2.34944e-09
4.69848e-08
2.54748e-09
4.63136e-08
2.73988e-09
4.55967e-08
2.92628e-09
4.48355e-08
3.10631e-09
4.40318e-08
3.27964e-09
4.31872e-08
3.44593e-09
4.23035e-08
3.60485e-09
4.13825e-08
3.75609e-09
4.04262e-08
3.89932e-09
3.94366e-08
4.03426e-09
3.84157e-08
4.16059e-09
3.73656e-08
4.27804e-09
3.62886e-08
4.38633e-09
3.5187e-08
4.48517e-09
3.4063e-08
4.5743e-09
3.29191e-08
4.65347e-09
3.17576e-08
4.72243e-09
3.05812e-08
4.78092e-09
2.93922e-08
4.82872e-09
2.81934e-08
4.8656e-09
2.69873e-08
4.89135e-09
2.57767e-08
4.90576e-09
2.45642e-08
4.90865e-09
2.33525e-08
4.89984e-09
2.21446e-08
4.87917e-09
2.09431e-08
4.8465e-09
1.97509e-08
4.80171e-09
1.85707e-08
4.74472e-09
1.74055e-08
4.67544e-09
1.62581e-08
4.59386e-09
1.51311e-08
4.49996e-09
1.40276e-08
4.39379e-09
1.29501e-08
4.27545e-09
1.19014e-08
4.14507e-09
1.08842e-08
4.00286e-09
9.90105e-09
3.8491e-09
8.95441e-09
3.68414e-09
8.0467e-09
3.50843e-09
7.18019e-09
3.32252e-09
6.35702e-09
3.12707e-09
5.57919e-09
2.92287e-09
4.84848e-09
2.71088e-09
4.16651e-09
2.49219e-09
3.53468e-09
2.26812e-09
2.95414e-09
2.04018e-09
2.42578e-09
1.81012e-09
1.95022e-09
1.57996e-09
1.5278e-09
1.35203e-09
1.15854e-09
1.12897e-09
8.42148e-10
9.13825e-10
5.78016e-10
7.10033e-10
3.65236e-10
5.21495e-10
2.02602e-10
3.52614e-10
8.86512e-11
2.08346e-10
2.17132e-11
9.43207e-11
1.70238e-11
1.96408e-11
-6.98599e-12
8.10311e-11
-6.87071e-11
1.86633e-10
-1.72491e-10
3.38833e-10
-3.12566e-10
5.39836e-10
-4.83775e-10
7.91636e-10
-6.81439e-10
1.09596e-09
-9.01266e-10
1.45426e-09
-1.13932e-09
1.86767e-09
-1.39201e-09
2.33705e-09
-1.65603e-09
2.86289e-09
-1.92837e-09
3.44543e-09
-2.20627e-09
4.08456e-09
-2.48723e-09
4.77987e-09
-2.76895e-09
5.53069e-09
-3.04933e-09
6.33603e-09
-3.32648e-09
7.19465e-09
-3.59866e-09
8.10507e-09
-3.86429e-09
9.06556e-09
-4.12194e-09
1.00742e-08
-4.37034e-09
1.11287e-08
-4.60831e-09
1.22269e-08
-4.83481e-09
1.33662e-08
-5.0489e-09
1.45438e-08
-5.24976e-09
1.57571e-08
-5.43665e-09
1.7003e-08
-5.60893e-09
1.82785e-08
-5.76605e-09
1.95804e-08
-5.90754e-09
2.09055e-08
-6.03299e-09
2.22504e-08
-6.1421e-09
2.36119e-08
-6.23461e-09
2.49866e-08
-6.31035e-09
2.63709e-08
-6.36919e-09
2.77615e-08
-6.41107e-09
2.91549e-08
-6.43601e-09
3.05476e-08
-6.44406e-09
3.19364e-08
-6.43533e-09
3.33177e-08
-6.40998e-09
3.46882e-08
-6.36822e-09
3.60446e-08
-6.31031e-09
3.73837e-08
-6.23653e-09
3.87024e-08
-6.14724e-09
3.99974e-08
-6.0428e-09
4.12657e-08
-5.92362e-09
4.25046e-08
-5.79016e-09
4.3711e-08
-5.64288e-09
4.48823e-08
-5.48228e-09
4.60158e-08
-5.3089e-09
4.71091e-08
-5.12328e-09
4.81597e-08
-4.92601e-09
4.91653e-08
-4.71767e-09
5.01238e-08
-4.49887e-09
5.10331e-08
-4.27024e-09
5.18914e-08
-4.03242e-09
5.26968e-08
-3.78604e-09
5.34478e-08
-3.53177e-09
5.41428e-08
-3.27027e-09
5.47805e-08
-3.0022e-09
5.53596e-08
-2.72824e-09
5.58791e-08
-2.44906e-09
5.6338e-08
-2.16532e-09
5.67355e-08
-1.87769e-09
5.70709e-08
-1.58684e-09
5.73437e-08
-1.29343e-09
5.75535e-08
-9.98106e-10
5.77e-08
-7.01525e-10
5.77831e-08
-4.04322e-10
5.78027e-08
-1.07127e-10
5.7759e-08
1.8944e-10
5.76523e-08
4.84769e-10
5.74829e-08
7.78263e-10
5.72514e-08
1.06934e-09
5.69583e-08
1.35741e-09
5.66044e-08
1.64193e-09
5.61905e-08
1.92233e-09
5.57177e-08
2.1981e-09
5.51869e-08
2.46869e-09
5.45994e-08
2.7336e-09
5.39565e-08
2.99234e-09
5.32596e-08
3.24441e-09
5.25101e-08
3.48935e-09
5.17097e-08
3.72669e-09
5.08601e-08
3.95598e-09
4.99629e-08
4.1768e-09
4.90201e-08
4.3887e-09
4.80337e-08
4.59129e-09
4.70056e-08
4.78415e-09
4.59381e-08
4.96689e-09
4.48332e-08
5.13913e-09
4.36933e-08
5.3005e-09
4.25207e-08
5.45064e-09
4.13178e-08
5.5892e-09
4.00871e-08
5.71582e-09
3.88312e-08
5.83019e-09
3.75527e-08
5.93198e-09
3.62543e-08
6.02087e-09
3.49386e-08
6.09658e-09
3.36085e-08
6.1588e-09
3.22669e-08
6.20728e-09
3.09165e-08
6.24174e-09
2.95603e-08
6.26194e-09
2.82013e-08
6.26766e-09
2.68424e-08
6.25869e-09
2.54867e-08
6.23484e-09
2.41373e-08
6.19594e-09
2.27971e-08
6.14187e-09
2.14693e-08
6.07252e-09
2.01569e-08
5.98782e-09
1.88631e-08
5.88774e-09
1.75907e-08
5.7723e-09
1.63429e-08
5.64156e-09
1.51227e-08
5.49565e-09
1.39331e-08
5.33476e-09
1.27768e-08
5.15914e-09
1.16567e-08
4.96915e-09
1.05756e-08
4.76522e-09
9.53616e-09
4.5479e-09
8.54084e-09
4.31784e-09
7.59207e-09
4.07584e-09
6.69211e-09
3.82283e-09
5.84306e-09
3.55992e-09
5.04686e-09
3.28839e-09
4.30524e-09
3.00974e-09
3.61974e-09
2.72568e-09
2.99168e-09
2.43818e-09
2.42215e-09
2.14949e-09
1.91202e-09
1.86216e-09
1.4619e-09
1.57909e-09
1.0722e-09
1.30353e-09
7.43085e-10
1.03915e-09
4.74521e-10
7.90059e-10
2.663e-10
5.60835e-10
1.1808e-10
3.56566e-10
2.9446e-11
1.82955e-10
4.64698e-11
2.6201e-11
-3.31896e-11
1.06266e-10
-1.48774e-10
2.41714e-10
-3.07943e-10
4.34062e-10
-5.04915e-10
6.84724e-10
-7.34441e-10
9.94978e-10
-9.91694e-10
1.3659e-09
-1.27219e-09
1.79836e-09
-1.57178e-09
2.29297e-09
-1.88662e-09
2.85007e-09
-2.21313e-09
3.46976e-09
-2.54805e-09
4.15183e-09
-2.88834e-09
4.8958e-09
-3.23121e-09
5.70093e-09
-3.57408e-09
6.56619e-09
-3.91459e-09
7.49029e-09
-4.25058e-09
8.47169e-09
-4.58005e-09
9.5086e-09
-4.9012e-09
1.0599e-08
-5.21235e-09
1.17407e-08
-5.51201e-09
1.29312e-08
-5.79881e-09
1.41679e-08
-6.07151e-09
1.5448e-08
-6.32901e-09
1.67685e-08
-6.57031e-09
1.81264e-08
-6.79455e-09
1.95184e-08
-7.00095e-09
2.09412e-08
-7.18885e-09
2.23914e-08
-7.35768e-09
2.38653e-08
-7.50696e-09
2.53595e-08
-7.6363e-09
2.68703e-08
-7.7454e-09
2.8394e-08
-7.83405e-09
2.99269e-08
-7.90209e-09
3.14653e-08
-7.94946e-09
3.30054e-08
-7.97615e-09
3.45436e-08
-7.98224e-09
3.60761e-08
-7.96785e-09
3.75993e-08
-7.93319e-09
3.91096e-08
-7.8785e-09
4.06034e-08
-7.8041e-09
4.20772e-08
-7.71034e-09
4.35276e-08
-7.59763e-09
4.49513e-08
-7.46643e-09
4.63449e-08
-7.31724e-09
4.77053e-08
-7.1506e-09
4.90295e-08
-6.96709e-09
5.03146e-08
-6.76732e-09
5.15576e-08
-6.55193e-09
5.27559e-08
-6.32159e-09
5.39069e-08
-6.07701e-09
5.50081e-08
-5.81891e-09
5.60573e-08
-5.54803e-09
5.70522e-08
-5.26514e-09
5.79908e-08
-4.971e-09
5.88712e-08
-4.66642e-09
5.96916e-08
-4.35218e-09
6.04504e-08
-4.02911e-09
6.11462e-08
-3.69801e-09
6.17777e-08
-3.3597e-09
6.23436e-08
-3.015e-09
6.2843e-08
-2.66473e-09
6.3275e-08
-2.30971e-09
6.3639e-08
-1.95074e-09
6.39342e-08
-1.58865e-09
6.41603e-08
-1.22423e-09
6.4317e-08
-8.58261e-10
6.44043e-08
-4.91539e-10
6.4422e-08
-1.24832e-10
6.43703e-08
2.41102e-10
6.42495e-08
6.05514e-10
6.40601e-08
9.67671e-10
6.38026e-08
1.32685e-09
6.34777e-08
1.68236e-09
6.30861e-08
2.03349e-09
6.26289e-08
2.37958e-09
6.2107e-08
2.71997e-09
6.15216e-08
3.05402e-09
6.08741e-08
3.38109e-09
6.01659e-08
3.70058e-09
5.93984e-08
4.01189e-09
5.85733e-08
4.31445e-09
5.76923e-08
4.60767e-09
5.67573e-08
4.89102e-09
5.57701e-08
5.16397e-09
5.47328e-08
5.42598e-09
5.36476e-08
5.67655e-09
5.25165e-08
5.91519e-09
5.1342e-08
6.14142e-09
5.01264e-08
6.35477e-09
4.88721e-08
6.55479e-09
4.75817e-08
6.74104e-09
4.62578e-08
6.91309e-09
4.4903e-08
7.07053e-09
4.35203e-08
7.21296e-09
4.21123e-08
7.33998e-09
4.06819e-08
7.45123e-09
3.92321e-08
7.54635e-09
3.77659e-08
7.62498e-09
3.62864e-08
7.68682e-09
3.47966e-08
7.73154e-09
3.32997e-08
7.75887e-09
3.17988e-08
7.76853e-09
3.02972e-08
7.76028e-09
2.87981e-08
7.7339e-09
2.73049e-08
7.68922e-09
2.58207e-08
7.62608e-09
2.43488e-08
7.54436e-09
2.28926e-08
7.44399e-09
2.14554e-08
7.32496e-09
2.00404e-08
7.18728e-09
1.8651e-08
7.03104e-09
1.72902e-08
6.85641e-09
1.59613e-08
6.66361e-09
1.46675e-08
6.45296e-09
1.34118e-08
6.22486e-09
1.21972e-08
5.97983e-09
1.10266e-08
5.7185e-09
9.90281e-09
5.44162e-09
8.82854e-09
5.15011e-09
7.80636e-09
4.84501e-09
6.8387e-09
4.52758e-09
5.92785e-09
4.19925e-09
5.07593e-09
3.86165e-09
4.28493e-09
3.51669e-09
3.55662e-09
3.16649e-09
2.89263e-09
2.81348e-09
2.2944e-09
2.46039e-09
1.76319e-09
2.11029e-09
1.30012e-09
1.7666e-09
9.06147e-10
1.43312e-09