/*--------------------------------*- C++ -*----------------------------------*\
  =========                 |
  \\      /  F ield         | OpenFOAM: The Open Source CFD Toolbox
   \\    /   O peration     | Website:  https://openfoam.org
    \\  /    A nd           | Version:  12
     \\/     M anipulation  |
\*---------------------------------------------------------------------------*/
FoamFile
{
    format      ascii;
    class       volScalarField;
    location    "9.5";
    object      epsilon;
}
// * * * * * * * * * * * * * * * * * * * * * * * * * * * * * * * * * * * * * //

dimensions      [0 2 -3 0 0 0 0];

internalField   nonuniform List<scalar> 
18225
(
2.33726e-09
1.16802e-08
2.55618e-08
4.22312e-08
6.09081e-08
8.11315e-08
1.02576e-07
1.24988e-07
1.48163e-07
1.71928e-07
1.96138e-07
2.20672e-07
2.45424e-07
2.70311e-07
2.9526e-07
3.20217e-07
3.45139e-07
3.69994e-07
3.94763e-07
4.19436e-07
4.44011e-07
4.68493e-07
4.92896e-07
5.17236e-07
5.41535e-07
5.65818e-07
5.90109e-07
6.14437e-07
6.38827e-07
6.63305e-07
6.87895e-07
7.12617e-07
7.3749e-07
7.62527e-07
7.87739e-07
8.13132e-07
8.38708e-07
8.64463e-07
8.90392e-07
9.16481e-07
9.42715e-07
9.69072e-07
9.95528e-07
1.02205e-06
1.04861e-06
1.07517e-06
1.10168e-06
1.12809e-06
1.15437e-06
1.18044e-06
1.20626e-06
1.23177e-06
1.25688e-06
1.28154e-06
1.30567e-06
1.32919e-06
1.35202e-06
1.37408e-06
1.39527e-06
1.41552e-06
1.43472e-06
1.45278e-06
1.4696e-06
1.4851e-06
1.49916e-06
1.51171e-06
1.52263e-06
1.53183e-06
1.53924e-06
1.54477e-06
1.5483e-06
1.54978e-06
1.5492e-06
1.54648e-06
1.54153e-06
1.53433e-06
1.52485e-06
1.51306e-06
1.49896e-06
1.48257e-06
1.4639e-06
1.44299e-06
1.41991e-06
1.3947e-06
1.36746e-06
1.33827e-06
1.30725e-06
1.27452e-06
1.24021e-06
1.20446e-06
1.16742e-06
1.12925e-06
1.09013e-06
1.05021e-06
1.00967e-06
9.68682e-07
9.27423e-07
8.8606e-07
8.44759e-07
8.03679e-07
7.62971e-07
7.22779e-07
6.83236e-07
6.44464e-07
6.06572e-07
5.6966e-07
5.33813e-07
4.99102e-07
4.65589e-07
4.33318e-07
4.02326e-07
3.72635e-07
3.44255e-07
3.17189e-07
2.91428e-07
2.66953e-07
2.43738e-07
2.2175e-07
2.00952e-07
1.81302e-07
1.62752e-07
1.45256e-07
1.28763e-07
1.13226e-07
9.86e-08
8.48424e-08
7.19187e-08
5.98034e-08
4.84836e-08
3.79644e-08
2.82768e-08
1.9492e-08
1.17523e-08
5.35854e-09
1.07171e-09
1.16872e-08
9.53949e-09
1.43422e-08
2.14811e-08
2.99139e-08
3.92267e-08
4.91936e-08
5.96639e-08
7.0525e-08
8.16873e-08
9.30776e-08
1.04635e-07
1.16308e-07
1.28055e-07
1.39842e-07
1.51641e-07
1.63431e-07
1.75197e-07
1.86928e-07
1.98621e-07
2.10272e-07
2.21886e-07
2.33466e-07
2.45021e-07
2.5656e-07
2.68095e-07
2.79638e-07
2.91201e-07
3.02796e-07
3.14435e-07
3.26129e-07
3.37887e-07
3.49719e-07
3.6163e-07
3.73624e-07
3.85706e-07
3.97875e-07
4.10129e-07
4.22466e-07
4.34878e-07
4.47359e-07
4.59897e-07
4.72481e-07
4.85096e-07
4.97725e-07
5.1035e-07
5.2295e-07
5.35503e-07
5.47984e-07
5.60367e-07
5.72623e-07
5.84723e-07
5.96633e-07
6.08321e-07
6.19749e-07
6.30882e-07
6.4168e-07
6.52103e-07
6.62109e-07
6.71655e-07
6.80697e-07
6.89191e-07
6.97091e-07
7.04351e-07
7.10927e-07
7.16772e-07
7.21843e-07
7.26097e-07
7.29494e-07
7.31996e-07
7.3355e-07
7.34134e-07
7.33742e-07
7.32329e-07
7.2987e-07
7.26346e-07
7.21744e-07
7.16058e-07
7.09287e-07
7.01436e-07
6.92519e-07
6.82553e-07
6.71565e-07
6.59586e-07
6.46656e-07
6.32818e-07
6.18125e-07
6.02633e-07
5.86404e-07
5.69505e-07
5.52007e-07
5.33984e-07
5.15515e-07
4.96677e-07
4.77552e-07
4.58219e-07
4.3876e-07
4.19254e-07
3.99776e-07
3.80401e-07
3.61201e-07
3.42242e-07
3.23585e-07
3.05288e-07
2.87403e-07
2.69976e-07
2.53047e-07
2.36649e-07
2.20812e-07
2.05557e-07
1.90901e-07
1.76856e-07
1.63426e-07
1.50614e-07
1.38416e-07
1.26823e-07
1.15823e-07
1.05403e-07
9.55437e-08
8.62266e-08
7.74306e-08
6.91337e-08
6.13135e-08
5.39484e-08
4.7018e-08
4.05041e-08
3.43925e-08
2.86739e-08
2.33469e-08
1.84219e-08
1.39289e-08
9.93559e-09
6.60025e-09
4.37501e-09
5.35629e-09
2.56403e-08
1.43945e-08
1.47303e-08
1.82383e-08
2.3256e-08
2.91821e-08
3.5727e-08
4.27224e-08
5.00571e-08
5.76502e-08
6.54396e-08
7.33759e-08
8.1419e-08
8.95361e-08
9.77009e-08
1.05893e-07
1.14095e-07
1.22296e-07
1.30487e-07
1.38664e-07
1.46825e-07
1.54971e-07
1.63104e-07
1.71229e-07
1.79353e-07
1.87483e-07
1.95625e-07
2.03789e-07
2.11983e-07
2.20214e-07
2.28488e-07
2.36814e-07
2.45195e-07
2.53635e-07
2.62139e-07
2.70706e-07
2.79337e-07
2.88031e-07
2.96783e-07
3.05589e-07
3.14443e-07
3.23336e-07
3.3226e-07
3.41203e-07
3.50153e-07
3.59095e-07
3.68015e-07
3.76895e-07
3.85717e-07
3.94462e-07
4.03108e-07
4.11634e-07
4.20015e-07
4.28227e-07
4.36244e-07
4.4404e-07
4.51585e-07
4.58852e-07
4.6581e-07
4.72429e-07
4.78678e-07
4.84527e-07
4.89943e-07
4.94895e-07
4.99352e-07
5.03284e-07
5.0666e-07
5.09452e-07
5.11634e-07
5.13179e-07
5.14047e-07
5.14244e-07
5.1375e-07
5.1254e-07
5.10601e-07
5.0792e-07
5.04493e-07
5.00316e-07
4.95392e-07
4.89726e-07
4.83329e-07
4.76215e-07
4.68405e-07
4.59922e-07
4.50793e-07
4.4105e-07
4.3073e-07
4.19872e-07
4.08518e-07
3.96716e-07
3.84512e-07
3.71959e-07
3.59108e-07
3.46013e-07
3.32728e-07
3.19308e-07
3.05807e-07
2.92277e-07
2.7877e-07
2.65337e-07
2.52025e-07
2.38878e-07
2.2594e-07
2.13248e-07
2.00837e-07
1.8874e-07
1.76982e-07
1.65588e-07
1.54578e-07
1.43966e-07
1.33765e-07
1.23983e-07
1.14624e-07
1.0569e-07
9.71792e-08
8.90859e-08
8.14034e-08
7.41224e-08
6.72318e-08
6.07192e-08
5.45712e-08
4.87739e-08
4.33135e-08
3.81768e-08
3.33521e-08
2.883e-08
2.46049e-08
2.06769e-08
1.70549e-08
1.3763e-08
1.0853e-08
8.43443e-09
6.76262e-09
6.58214e-09
1.17271e-08
4.25461e-08
2.16754e-08
1.83668e-08
1.93715e-08
2.22901e-08
2.62998e-08
3.10185e-08
3.62359e-08
4.18206e-08
4.76829e-08
5.37576e-08
5.9995e-08
6.63562e-08
7.281e-08
7.93316e-08
8.59015e-08
9.25042e-08
9.91283e-08
1.05766e-07
1.12411e-07
1.19061e-07
1.25716e-07
1.32376e-07
1.39045e-07
1.45727e-07
1.52426e-07
1.59149e-07
1.659e-07
1.72685e-07
1.79511e-07
1.86381e-07
1.93301e-07
2.00274e-07
2.07303e-07
2.14389e-07
2.21531e-07
2.28731e-07
2.35984e-07
2.43288e-07
2.50637e-07
2.58026e-07
2.65446e-07
2.72889e-07
2.80344e-07
2.878e-07
2.95244e-07
3.02663e-07
3.1004e-07
3.1736e-07
3.24605e-07
3.31756e-07
3.38795e-07
3.45701e-07
3.52452e-07
3.59026e-07
3.654e-07
3.71551e-07
3.77455e-07
3.83086e-07
3.88419e-07
3.93431e-07
3.98094e-07
4.02385e-07
4.06278e-07
4.0975e-07
4.12775e-07
4.15331e-07
4.17396e-07
4.18951e-07
4.19969e-07
4.20428e-07
4.20345e-07
4.19688e-07
4.18446e-07
4.1661e-07
4.14174e-07
4.11135e-07
4.07494e-07
4.03255e-07
3.98425e-07
3.93014e-07
3.87035e-07
3.80507e-07
3.7345e-07
3.65887e-07
3.57845e-07
3.49353e-07
3.40444e-07
3.31153e-07
3.21516e-07
3.11572e-07
3.01361e-07
2.90925e-07
2.80305e-07
2.69544e-07
2.58685e-07
2.4777e-07
2.36841e-07
2.25936e-07
2.15096e-07
2.04357e-07
1.93754e-07
1.8332e-07
1.73084e-07
1.63074e-07
1.53315e-07
1.43827e-07
1.3463e-07
1.25739e-07
1.17166e-07
1.08921e-07
1.0101e-07
9.34378e-08
8.62054e-08
7.9312e-08
7.27544e-08
6.65278e-08
6.06255e-08
5.50398e-08
4.97619e-08
4.47824e-08
4.0092e-08
3.56815e-08
3.15429e-08
2.76702e-08
2.406e-08
2.07139e-08
1.76407e-08
1.48608e-08
1.24147e-08
1.03807e-08
8.91665e-09
8.38456e-09
9.86638e-09
1.93881e-08
6.17545e-08
3.03976e-08
2.36271e-08
2.25197e-08
2.38099e-08
2.64277e-08
2.98915e-08
3.39415e-08
3.84202e-08
4.32232e-08
4.82768e-08
5.35265e-08
5.89306e-08
6.44562e-08
7.00775e-08
7.5774e-08
8.15296e-08
8.73319e-08
9.31717e-08
9.90427e-08
1.04941e-07
1.10864e-07
1.16813e-07
1.22788e-07
1.28791e-07
1.34827e-07
1.40898e-07
1.47009e-07
1.53164e-07
1.59366e-07
1.65621e-07
1.71929e-07
1.78294e-07
1.84717e-07
1.91198e-07
1.97736e-07
2.04329e-07
2.10974e-07
2.17667e-07
2.24402e-07
2.31172e-07
2.37968e-07
2.44783e-07
2.51603e-07
2.58419e-07
2.65217e-07
2.71984e-07
2.78703e-07
2.85359e-07
2.91936e-07
2.98415e-07
3.04777e-07
3.11004e-07
3.17075e-07
3.2297e-07
3.28668e-07
3.34146e-07
3.39383e-07
3.44358e-07
3.49047e-07
3.53429e-07
3.57481e-07
3.61183e-07
3.64513e-07
3.6745e-07
3.69975e-07
3.72068e-07
3.73712e-07
3.7489e-07
3.75568e-07
3.75761e-07
3.75461e-07
3.74646e-07
3.73309e-07
3.71443e-07
3.69046e-07
3.66118e-07
3.6266e-07
3.58678e-07
3.54179e-07
3.49174e-07
3.43677e-07
3.37704e-07
3.31274e-07
3.24409e-07
3.17134e-07
3.09474e-07
3.01459e-07
2.9312e-07
2.8449e-07
2.75602e-07
2.66492e-07
2.57195e-07
2.4775e-07
2.38193e-07
2.2856e-07
2.18888e-07
2.09213e-07
1.99569e-07
1.8999e-07
1.80507e-07
1.7115e-07
1.61947e-07
1.52923e-07
1.44101e-07
1.35503e-07
1.27146e-07
1.19046e-07
1.11216e-07
1.03667e-07
9.64063e-08
8.94398e-08
8.27711e-08
7.64016e-08
7.03306e-08
6.45558e-08
5.90734e-08
5.38786e-08
4.89653e-08
4.43271e-08
3.99572e-08
3.58492e-08
3.19973e-08
2.83974e-08
2.50479e-08
2.19509e-08
1.91145e-08
1.65558e-08
1.43067e-08
1.24244e-08
1.10134e-08
1.02819e-08
1.07049e-08
1.37526e-08
2.79889e-08
8.29562e-08
4.02155e-08
2.99527e-08
2.68914e-08
2.67755e-08
2.82551e-08
3.07405e-08
3.39195e-08
3.76059e-08
4.16782e-08
4.60523e-08
5.06667e-08
5.54749e-08
6.04409e-08
6.55363e-08
7.07386e-08
7.603e-08
8.13965e-08
8.68274e-08
9.2315e-08
9.78536e-08
1.0344e-07
1.09073e-07
1.14751e-07
1.20476e-07
1.2625e-07
1.32075e-07
1.37953e-07
1.43887e-07
1.4988e-07
1.55934e-07
1.62051e-07
1.68231e-07
1.74474e-07
1.8078e-07
1.87146e-07
1.9357e-07
2.00046e-07
2.06569e-07
2.13132e-07
2.19728e-07
2.26346e-07
2.32978e-07
2.3961e-07
2.46231e-07
2.52826e-07
2.59382e-07
2.65882e-07
2.7231e-07
2.78649e-07
2.8488e-07
2.90986e-07
2.96948e-07
3.02745e-07
3.08357e-07
3.13766e-07
3.18949e-07
3.23887e-07
3.28559e-07
3.32944e-07
3.37022e-07
3.40774e-07
3.4418e-07
3.47221e-07
3.49878e-07
3.52136e-07
3.53976e-07
3.55385e-07
3.56347e-07
3.5682e-07
3.56852e-07
3.56406e-07
3.55472e-07
3.54043e-07
3.52115e-07
3.49686e-07
3.46756e-07
3.43328e-07
3.39408e-07
3.35003e-07
3.30125e-07
3.24786e-07
3.19003e-07
3.12793e-07
3.06178e-07
2.99181e-07
2.91828e-07
2.84147e-07
2.76167e-07
2.67919e-07
2.59436e-07
2.50751e-07
2.419e-07
2.32918e-07
2.23839e-07
2.14699e-07
2.05531e-07
1.96371e-07
1.8725e-07
1.78199e-07
1.69249e-07
1.60426e-07
1.51757e-07
1.43265e-07
1.34971e-07
1.26895e-07
1.19051e-07
1.11455e-07
1.04118e-07
9.70486e-08
9.02545e-08
8.37402e-08
7.75086e-08
7.15606e-08
6.58956e-08
6.05113e-08
5.54044e-08
5.05706e-08
4.6005e-08
4.17025e-08
3.7658e-08
3.38671e-08
3.03267e-08
2.70358e-08
2.39965e-08
2.12158e-08
1.87077e-08
1.64973e-08
1.46268e-08
1.31706e-08
1.22605e-08
1.21534e-08
1.34491e-08
1.80542e-08
3.73254e-08
1.05991e-07
5.09786e-08
3.71016e-08
3.21386e-08
3.07312e-08
3.12162e-08
3.28833e-08
3.53641e-08
3.84418e-08
4.19772e-08
4.58741e-08
5.00629e-08
5.44916e-08
5.912e-08
6.39164e-08
6.88555e-08
7.39172e-08
7.90853e-08
8.43474e-08
8.96937e-08
9.51172e-08
1.00613e-07
1.06178e-07
1.11809e-07
1.17508e-07
1.23273e-07
1.29107e-07
1.3501e-07
1.40983e-07
1.47027e-07
1.53145e-07
1.59335e-07
1.65597e-07
1.7193e-07
1.78331e-07
1.84797e-07
1.91324e-07
1.97905e-07
2.04533e-07
2.112e-07
2.17897e-07
2.24613e-07
2.31336e-07
2.38053e-07
2.44752e-07
2.51416e-07
2.5803e-07
2.64577e-07
2.71042e-07
2.77404e-07
2.83648e-07
2.89753e-07
2.95701e-07
3.01472e-07
3.07047e-07
3.12407e-07
3.1753e-07
3.22399e-07
3.26993e-07
3.31293e-07
3.3528e-07
3.38935e-07
3.42241e-07
3.4518e-07
3.47735e-07
3.4989e-07
3.5163e-07
3.52944e-07
3.53807e-07
3.54187e-07
3.54139e-07
3.53616e-07
3.5261e-07
3.51116e-07
3.49128e-07
3.46644e-07
3.43665e-07
3.40194e-07
3.36234e-07
3.31794e-07
3.26883e-07
3.21515e-07
3.15705e-07
3.0947e-07
3.02832e-07
2.95814e-07
2.88441e-07
2.80742e-07
2.72746e-07
2.64484e-07
2.55991e-07
2.473e-07
2.38447e-07
2.29467e-07
2.20397e-07
2.11272e-07
2.02128e-07
1.92998e-07
1.83916e-07
1.74914e-07
1.66022e-07
1.57266e-07
1.48673e-07
1.40267e-07
1.32067e-07
1.24092e-07
1.16358e-07
1.08879e-07
1.01664e-07
9.47219e-08
8.80594e-08
8.16802e-08
7.55863e-08
6.97781e-08
6.42545e-08
5.90129e-08
5.405e-08
4.93612e-08
4.4942e-08
4.07878e-08
3.68945e-08
3.32594e-08
2.98811e-08
2.67611e-08
2.39047e-08
2.13229e-08
1.90351e-08
1.70744e-08
1.54946e-08
1.43841e-08
1.39011e-08
1.43564e-08
1.64862e-08
2.26706e-08
4.72547e-08
1.30779e-07
6.26156e-08
4.49564e-08
3.80864e-08
3.54442e-08
3.50206e-08
3.59717e-08
3.78676e-08
4.04587e-08
4.3586e-08
4.71412e-08
5.10467e-08
5.52437e-08
5.96872e-08
6.43413e-08
6.91776e-08
7.4173e-08
7.9309e-08
8.45707e-08
8.99464e-08
9.5427e-08
1.01006e-07
1.06678e-07
1.1244e-07
1.18289e-07
1.24226e-07
1.30248e-07
1.36356e-07
1.4255e-07
1.4883e-07
1.55194e-07
1.61642e-07
1.68172e-07
1.7478e-07
1.81463e-07
1.88215e-07
1.95031e-07
2.01902e-07
2.08821e-07
2.15777e-07
2.22759e-07
2.29755e-07
2.36752e-07
2.43736e-07
2.50692e-07
2.57603e-07
2.64453e-07
2.71225e-07
2.77901e-07
2.84462e-07
2.9089e-07
2.97167e-07
3.03273e-07
3.09189e-07
3.14896e-07
3.20374e-07
3.25606e-07
3.30571e-07
3.35252e-07
3.3963e-07
3.43687e-07
3.47405e-07
3.50766e-07
3.53755e-07
3.56354e-07
3.58548e-07
3.60321e-07
3.6166e-07
3.62538e-07
3.62922e-07
3.62878e-07
3.62351e-07
3.61334e-07
3.59817e-07
3.57796e-07
3.55267e-07
3.52229e-07
3.48683e-07
3.44633e-07
3.40084e-07
3.35046e-07
3.29531e-07
3.23554e-07
3.17132e-07
3.10286e-07
3.0304e-07
2.95419e-07
2.87454e-07
2.79175e-07
2.70615e-07
2.61811e-07
2.52798e-07
2.43615e-07
2.343e-07
2.24893e-07
2.1543e-07
2.05952e-07
1.96494e-07
1.87093e-07
1.77782e-07
1.68594e-07
1.59558e-07
1.50702e-07
1.42049e-07
1.33622e-07
1.25439e-07
1.17516e-07
1.09868e-07
1.02503e-07
9.54298e-08
8.86543e-08
8.21794e-08
7.60062e-08
7.01343e-08
6.45616e-08
5.92849e-08
5.43001e-08
4.96023e-08
4.51868e-08
4.10489e-08
3.71852e-08
3.35934e-08
3.02737e-08
2.72295e-08
2.44691e-08
2.20074e-08
1.98689e-08
1.80926e-08
1.67418e-08
1.59214e-08
1.58171e-08
1.6796e-08
1.97413e-08
2.75355e-08
5.7667e-08
1.57293e-07
7.50954e-08
5.34585e-08
4.46411e-08
4.07849e-08
3.95038e-08
3.98075e-08
4.11984e-08
4.33914e-08
4.62064e-08
4.95216e-08
5.32496e-08
5.7325e-08
6.16974e-08
6.63268e-08
7.11809e-08
7.62336e-08
8.14636e-08
8.68534e-08
9.2389e-08
9.80594e-08
1.03856e-07
1.09771e-07
1.15801e-07
1.21941e-07
1.28188e-07
1.34541e-07
1.40998e-07
1.47557e-07
1.54216e-07
1.60972e-07
1.67824e-07
1.74767e-07
1.81797e-07
1.88908e-07
1.96092e-07
2.03342e-07
2.10649e-07
2.18001e-07
2.25388e-07
2.32796e-07
2.40211e-07
2.47619e-07
2.55004e-07
2.62349e-07
2.69637e-07
2.76852e-07
2.83974e-07
2.90987e-07
2.9787e-07
3.04606e-07
3.11176e-07
3.1756e-07
3.23741e-07
3.297e-07
3.35419e-07
3.40878e-07
3.4606e-07
3.50948e-07
3.55523e-07
3.59768e-07
3.63665e-07
3.67198e-07
3.7035e-07
3.73104e-07
3.75445e-07
3.77355e-07
3.78819e-07
3.79819e-07
3.803e-07
3.80338e-07
3.79883e-07
3.78917e-07
3.77431e-07
3.75417e-07
3.72869e-07
3.69783e-07
3.66158e-07
3.61996e-07
3.573e-07
3.52079e-07
3.46342e-07
3.40105e-07
3.33384e-07
3.262e-07
3.18578e-07
3.10544e-07
3.0213e-07
2.9337e-07
2.84299e-07
2.74956e-07
2.65381e-07
2.55617e-07
2.45706e-07
2.35691e-07
2.25615e-07
2.15522e-07
2.05452e-07
1.95446e-07
1.85541e-07
1.75775e-07
1.66179e-07
1.56784e-07
1.47617e-07
1.38702e-07
1.30059e-07
1.21706e-07
1.13656e-07
1.0592e-07
9.85064e-08
9.14196e-08
8.46623e-08
7.82349e-08
7.21358e-08
6.63619e-08
6.09086e-08
5.57708e-08
5.09429e-08
4.64196e-08
4.21959e-08
3.8268e-08
3.46342e-08
3.12953e-08
2.82561e-08
2.55266e-08
2.31248e-08
2.10797e-08
1.94371e-08
1.82699e-08
1.76988e-08
1.79374e-08
1.94142e-08
2.31656e-08
3.26003e-08
6.84737e-08
1.85535e-07
8.84101e-08
6.25805e-08
5.17518e-08
4.66783e-08
4.45677e-08
4.42704e-08
4.52149e-08
4.70772e-08
4.96546e-08
5.28105e-08
5.64474e-08
6.04925e-08
6.48893e-08
6.95931e-08
7.45673e-08
7.97822e-08
8.52133e-08
9.08402e-08
9.66464e-08
1.02618e-07
1.08745e-07
1.15017e-07
1.21429e-07
1.27974e-07
1.34647e-07
1.41446e-07
1.48366e-07
1.55403e-07
1.62556e-07
1.69818e-07
1.77186e-07
1.84655e-07
1.92216e-07
1.99863e-07
2.07586e-07
2.15376e-07
2.23221e-07
2.31109e-07
2.39025e-07
2.46956e-07
2.54887e-07
2.62799e-07
2.70677e-07
2.78504e-07
2.8626e-07
2.93929e-07
3.01491e-07
3.08929e-07
3.16223e-07
3.23355e-07
3.30307e-07
3.37061e-07
3.43599e-07
3.49903e-07
3.55955e-07
3.61738e-07
3.67235e-07
3.72429e-07
3.77301e-07
3.81836e-07
3.86016e-07
3.89824e-07
3.93242e-07
3.96253e-07
3.98839e-07
4.00984e-07
4.02669e-07
4.03877e-07
4.04552e-07
4.04736e-07
4.04425e-07
4.03575e-07
4.02174e-07
4.00211e-07
3.97676e-07
3.94562e-07
3.90866e-07
3.86587e-07
3.81725e-07
3.76287e-07
3.70281e-07
3.63721e-07
3.56624e-07
3.4901e-07
3.40904e-07
3.32335e-07
3.23337e-07
3.13945e-07
3.042e-07
2.94143e-07
2.8382e-07
2.73277e-07
2.62563e-07
2.51726e-07
2.40816e-07
2.29881e-07
2.18969e-07
2.08125e-07
1.97393e-07
1.86814e-07
1.76427e-07
1.66265e-07
1.56359e-07
1.46737e-07
1.37422e-07
1.28433e-07
1.19785e-07
1.11491e-07
1.03557e-07
9.59904e-08
8.87917e-08
8.1961e-08
7.54956e-08
6.9391e-08
6.36415e-08
5.82406e-08
5.31814e-08
4.84573e-08
4.40623e-08
3.99922e-08
3.62449e-08
3.28214e-08
2.97274e-08
2.69747e-08
2.45838e-08
2.25876e-08
2.10381e-08
2.00177e-08
1.96632e-08
2.02172e-08
2.21726e-08
2.67248e-08
3.78274e-08
7.96024e-08
2.15534e-07
1.02566e-07
7.23128e-08
5.93919e-08
5.30805e-08
5.01516e-08
4.92849e-08
4.98271e-08
5.14126e-08
5.38137e-08
5.68779e-08
6.04967e-08
6.45889e-08
6.90915e-08
7.39542e-08
7.91359e-08
8.46028e-08
9.03268e-08
9.62842e-08
1.02456e-07
1.08825e-07
1.15378e-07
1.22104e-07
1.28995e-07
1.36042e-07
1.43238e-07
1.50579e-07
1.58058e-07
1.6567e-07
1.7341e-07
1.81272e-07
1.89248e-07
1.97331e-07
2.05512e-07
2.13781e-07
2.22128e-07
2.30539e-07
2.39002e-07
2.47502e-07
2.56023e-07
2.6455e-07
2.73065e-07
2.81551e-07
2.89989e-07
2.98361e-07
3.0665e-07
3.14835e-07
3.229e-07
3.30826e-07
3.38594e-07
3.46186e-07
3.53587e-07
3.60777e-07
3.67741e-07
3.7446e-07
3.8092e-07
3.87103e-07
3.92993e-07
3.98573e-07
4.03826e-07
4.08736e-07
4.13283e-07
4.17452e-07
4.21223e-07
4.24577e-07
4.27495e-07
4.29958e-07
4.31945e-07
4.33436e-07
4.3439e-07
4.34783e-07
4.34677e-07
4.34001e-07
4.32735e-07
4.30865e-07
4.28378e-07
4.25262e-07
4.21511e-07
4.1712e-07
4.12087e-07
4.06417e-07
4.00115e-07
3.93194e-07
3.85669e-07
3.77562e-07
3.68898e-07
3.59708e-07
3.50027e-07
3.39894e-07
3.29352e-07
3.18449e-07
3.07235e-07
2.95761e-07
2.84082e-07
2.72254e-07
2.60333e-07
2.48373e-07
2.3643e-07
2.24557e-07
2.12803e-07
2.01217e-07
1.89842e-07
1.78718e-07
1.67882e-07
1.57364e-07
1.47192e-07
1.37389e-07
1.27971e-07
1.18952e-07
1.10341e-07
1.02144e-07
9.43629e-08
8.69961e-08
8.00404e-08
7.34898e-08
6.73373e-08
6.15747e-08
5.61935e-08
5.11855e-08
4.65436e-08
4.22622e-08
3.83386e-08
3.47736e-08
3.15732e-08
2.87504e-08
2.63277e-08
2.43418e-08
2.28503e-08
2.19452e-08
2.17797e-08
2.26261e-08
2.50444e-08
3.03935e-08
4.31869e-08
9.09941e-08
2.47331e-07
1.17579e-07
8.26568e-08
6.75496e-08
5.9967e-08
5.62188e-08
5.48027e-08
5.49764e-08
5.63294e-08
5.86069e-08
6.16387e-08
6.53041e-08
6.95127e-08
7.41943e-08
7.92923e-08
8.47606e-08
9.05607e-08
9.66603e-08
1.03032e-07
1.09654e-07
1.16506e-07
1.23571e-07
1.30838e-07
1.38293e-07
1.45926e-07
1.5373e-07
1.61696e-07
1.69816e-07
1.78084e-07
1.8649e-07
1.95027e-07
2.03686e-07
2.12456e-07
2.21327e-07
2.30286e-07
2.39319e-07
2.48414e-07
2.57553e-07
2.6672e-07
2.75899e-07
2.85072e-07
2.9422e-07
3.03324e-07
3.12367e-07
3.21328e-07
3.30191e-07
3.38935e-07
3.47544e-07
3.56e-07
3.64285e-07
3.72383e-07
3.80277e-07
3.87952e-07
3.95392e-07
4.02582e-07
4.09505e-07
4.16146e-07
4.2249e-07
4.28519e-07
4.34218e-07
4.39569e-07
4.44554e-07
4.49153e-07
4.53346e-07
4.57114e-07
4.60433e-07
4.63283e-07
4.65638e-07
4.67476e-07
4.68771e-07
4.69449e-07
4.69582e-07
4.6913e-07
4.68046e-07
4.6631e-07
4.63904e-07
4.60814e-07
4.57029e-07
4.52541e-07
4.47344e-07
4.4144e-07
4.34833e-07
4.27534e-07
4.19556e-07
4.10921e-07
4.01655e-07
3.91789e-07
3.81361e-07
3.70414e-07
3.58993e-07
3.4715e-07
3.34941e-07
3.22424e-07
3.0966e-07
2.96711e-07
2.8364e-07
2.70512e-07
2.57387e-07
2.44328e-07
2.31391e-07
2.18633e-07
2.06105e-07
1.93853e-07
1.81919e-07
1.70341e-07
1.5915e-07
1.48373e-07
1.38031e-07
1.28138e-07
1.18707e-07
1.09744e-07
1.01251e-07
9.3226e-08
8.56655e-08
7.85624e-08
7.19079e-08
6.56922e-08
5.9905e-08
5.45363e-08
4.95772e-08
4.50207e-08
4.08629e-08
3.71038e-08
3.37495e-08
3.08135e-08
2.83201e-08
2.63093e-08
2.48441e-08
2.40259e-08
2.40246e-08
2.51435e-08
2.80106e-08
3.41531e-08
4.86557e-08
1.02602e-07
2.80978e-07
1.3347e-07
9.36205e-08
7.62222e-08
6.73252e-08
6.27476e-08
6.0793e-08
6.06251e-08
6.17831e-08
6.39832e-08
6.70361e-08
7.08075e-08
7.51966e-08
8.01251e-08
8.55296e-08
9.1358e-08
9.75666e-08
1.04119e-07
1.10983e-07
1.18133e-07
1.25545e-07
1.33201e-07
1.41084e-07
1.4918e-07
1.57476e-07
1.65961e-07
1.74624e-07
1.83456e-07
1.92446e-07
2.01584e-07
2.10859e-07
2.2026e-07
2.29775e-07
2.39388e-07
2.49087e-07
2.58854e-07
2.68675e-07
2.7853e-07
2.88402e-07
2.98273e-07
3.08123e-07
3.17932e-07
3.27682e-07
3.37354e-07
3.46929e-07
3.56389e-07
3.65715e-07
3.74892e-07
3.83902e-07
3.9273e-07
4.0136e-07
4.09778e-07
4.1797e-07
4.2592e-07
4.33615e-07
4.4104e-07
4.48181e-07
4.55022e-07
4.61548e-07
4.6774e-07
4.73582e-07
4.79054e-07
4.84135e-07
4.88803e-07
4.93036e-07
4.96809e-07
5.00097e-07
5.02871e-07
5.05106e-07
5.06774e-07
5.07812e-07
5.08209e-07
5.08023e-07
5.07159e-07
5.05593e-07
5.03302e-07
5.00268e-07
4.96476e-07
4.91912e-07
4.86571e-07
4.80447e-07
4.73545e-07
4.65871e-07
4.57438e-07
4.48268e-07
4.38385e-07
4.27822e-07
4.16619e-07
4.04819e-07
3.92472e-07
3.79635e-07
3.66368e-07
3.52735e-07
3.38802e-07
3.24641e-07
3.10321e-07
2.95914e-07
2.81491e-07
2.67122e-07
2.52874e-07
2.38809e-07
2.24988e-07
2.11465e-07
1.9829e-07
1.85507e-07
1.73153e-07
1.61259e-07
1.49852e-07
1.3895e-07
1.28566e-07
1.18709e-07
1.09383e-07
1.00585e-07
9.23118e-08
8.45548e-08
7.7304e-08
7.05479e-08
6.42742e-08
5.8471e-08
5.31273e-08
4.82343e-08
4.37866e-08
3.97832e-08
3.62295e-08
3.31392e-08
3.05382e-08
2.8469e-08
2.70002e-08
2.62425e-08
2.63821e-08
2.77554e-08
3.10583e-08
3.79901e-08
5.42165e-08
1.14391e-07
3.16535e-07
1.50265e-07
1.05217e-07
8.5413e-08
7.51502e-08
6.97259e-08
6.72374e-08
6.6749e-08
6.77446e-08
6.99094e-08
7.30331e-08
7.69661e-08
8.15965e-08
8.68364e-08
9.26149e-08
9.88731e-08
1.05562e-07
1.12638e-07
1.20067e-07
1.27818e-07
1.35863e-07
1.4418e-07
1.5275e-07
1.61555e-07
1.7058e-07
1.7981e-07
1.89232e-07
1.98835e-07
2.08604e-07
2.18527e-07
2.2859e-07
2.3878e-07
2.4908e-07
2.59475e-07
2.69948e-07
2.8048e-07
2.91054e-07
3.01649e-07
3.12245e-07
3.22824e-07
3.33364e-07
3.43847e-07
3.54252e-07
3.64561e-07
3.74756e-07
3.84819e-07
3.94734e-07
4.04486e-07
4.14058e-07
4.23438e-07
4.32612e-07
4.41566e-07
4.50289e-07
4.58767e-07
4.66987e-07
4.74936e-07
4.826e-07
4.89964e-07
4.97012e-07
5.03727e-07
5.10089e-07
5.16079e-07
5.21673e-07
5.26849e-07
5.3158e-07
5.35838e-07
5.39596e-07
5.42822e-07
5.45485e-07
5.47553e-07
5.4899e-07
5.49696e-07
5.49788e-07
5.49179e-07
5.47816e-07
5.45673e-07
5.42727e-07
5.38959e-07
5.34353e-07
5.28897e-07
5.22585e-07
5.15416e-07
5.07394e-07
4.98531e-07
4.88846e-07
4.78364e-07
4.67116e-07
4.55143e-07
4.4249e-07
4.29211e-07
4.15364e-07
4.01014e-07
3.8623e-07
3.71086e-07
3.55658e-07
3.40025e-07
3.24267e-07
3.08463e-07
2.92693e-07
2.77032e-07
2.61553e-07
2.46325e-07
2.31412e-07
2.16872e-07
2.02756e-07
1.8911e-07
1.75971e-07
1.6337e-07
1.51331e-07
1.39871e-07
1.29e-07
1.18725e-07
1.09044e-07
9.99529e-08
9.14433e-08
8.3504e-08
7.61217e-08
6.92823e-08
6.29717e-08
5.71769e-08
5.18868e-08
4.70943e-08
4.27968e-08
3.89987e-08
3.57137e-08
3.29686e-08
3.08084e-08
2.93069e-08
2.85841e-08
2.88427e-08
3.04526e-08
3.41788e-08
4.18954e-08
5.98577e-08
1.26337e-07
3.54063e-07
1.6799e-07
1.1746e-07
9.51286e-08
8.34421e-08
7.7148e-08
7.41255e-08
7.33336e-08
7.41958e-08
7.63644e-08
7.96058e-08
8.37539e-08
8.86838e-08
9.42974e-08
1.00515e-07
1.0727e-07
1.14506e-07
1.22176e-07
1.30239e-07
1.38658e-07
1.47402e-07
1.56446e-07
1.65766e-07
1.75342e-07
1.85153e-07
1.95184e-07
2.05418e-07
2.1584e-07
2.26433e-07
2.37182e-07
2.4807e-07
2.59081e-07
2.70196e-07
2.81396e-07
2.92663e-07
3.03975e-07
3.15312e-07
3.26654e-07
3.37978e-07
3.49265e-07
3.60493e-07
3.71644e-07
3.82697e-07
3.93635e-07
4.04441e-07
4.15098e-07
4.25592e-07
4.35909e-07
4.46036e-07
4.55961e-07
4.65673e-07
4.7516e-07
4.84411e-07
4.93416e-07
5.02162e-07
5.10638e-07
5.18829e-07
5.26722e-07
5.34299e-07
5.41543e-07
5.48434e-07
5.54951e-07
5.61068e-07
5.6676e-07
5.71999e-07
5.76755e-07
5.80994e-07
5.84685e-07
5.87792e-07
5.90279e-07
5.92112e-07
5.93192e-07
5.93553e-07
5.93228e-07
5.92098e-07
5.90135e-07
5.87314e-07
5.8361e-07
5.79004e-07
5.73479e-07
5.67026e-07
5.5964e-07
5.51322e-07
5.42082e-07
5.31933e-07
5.20901e-07
5.09016e-07
4.96316e-07
4.82849e-07
4.68668e-07
4.53836e-07
4.38419e-07
4.22491e-07
4.06131e-07
3.89423e-07
3.72451e-07
3.55304e-07
3.38071e-07
3.20839e-07
3.03694e-07
2.8672e-07
2.69996e-07
2.53594e-07
2.37584e-07
2.22026e-07
2.06973e-07
1.92471e-07
1.78558e-07
1.65263e-07
1.52608e-07
1.40609e-07
1.29272e-07
1.186e-07
1.08588e-07
9.92279e-08
9.0508e-08
8.24136e-08
7.49288e-08
6.80374e-08
6.1724e-08
5.59754e-08
5.07822e-08
4.614e-08
4.20521e-08
3.85315e-08
3.56056e-08
3.33217e-08
3.17585e-08
3.10451e-08
3.14011e-08
3.32301e-08
3.73673e-08
4.5864e-08
6.55729e-08
1.38427e-07
3.93624e-07
1.86674e-07
1.30366e-07
1.05378e-07
9.22041e-08
8.50128e-08
8.14524e-08
8.03708e-08
8.11262e-08
8.33356e-08
8.67401e-08
9.11551e-08
9.64414e-08
1.02489e-07
1.09209e-07
1.16526e-07
1.24376e-07
1.32704e-07
1.41465e-07
1.50615e-07
1.60121e-07
1.69952e-07
1.80078e-07
1.90477e-07
2.01126e-07
2.12004e-07
2.23093e-07
2.34372e-07
2.45823e-07
2.57427e-07
2.69165e-07
2.81016e-07
2.9296e-07
3.04975e-07
3.1704e-07
3.29132e-07
3.41228e-07
3.53308e-07
3.65348e-07
3.77327e-07
3.89225e-07
4.01022e-07
4.12701e-07
4.24244e-07
4.35635e-07
4.46861e-07
4.57909e-07
4.68766e-07
4.79423e-07
4.8987e-07
5.00097e-07
5.10095e-07
5.19855e-07
5.29367e-07
5.38621e-07
5.47606e-07
5.56307e-07
5.64712e-07
5.72802e-07
5.80561e-07
5.87965e-07
5.94994e-07
6.0162e-07
6.07816e-07
6.13551e-07
6.18793e-07
6.23507e-07
6.27656e-07
6.31203e-07
6.3411e-07
6.36339e-07
6.37815e-07
6.3846e-07
6.38431e-07
6.37562e-07
6.35814e-07
6.33158e-07
6.29567e-07
6.25015e-07
6.19483e-07
6.12957e-07
6.05427e-07
5.9689e-07
5.87351e-07
5.76823e-07
5.65325e-07
5.52885e-07
5.39541e-07
5.25337e-07
5.10329e-07
4.94576e-07
4.7815e-07
4.61127e-07
4.43589e-07
4.25625e-07
4.07327e-07
3.88791e-07
3.70114e-07
3.51392e-07
3.32723e-07
3.14201e-07
2.95914e-07
2.77948e-07
2.60382e-07
2.43286e-07
2.26726e-07
2.10754e-07
1.95419e-07
1.80756e-07
1.66794e-07
1.53553e-07
1.41045e-07
1.29274e-07
1.18238e-07
1.07928e-07
9.83345e-08
8.94402e-08
8.12282e-08
7.36803e-08
6.67788e-08
6.05081e-08
5.48564e-08
4.98174e-08
4.53925e-08
4.1594e-08
3.84494e-08
3.60083e-08
3.43538e-08
3.36241e-08
3.40558e-08
3.60865e-08
4.06225e-08
4.98948e-08
7.13606e-08
1.50658e-07
4.35277e-07
2.06343e-07
1.43951e-07
1.1617e-07
1.01441e-07
9.33218e-08
8.9217e-08
8.78573e-08
8.85308e-08
9.08167e-08
9.44284e-08
9.91611e-08
1.0486e-07
1.11401e-07
1.18685e-07
1.26626e-07
1.35152e-07
1.44202e-07
1.53721e-07
1.63663e-07
1.73987e-07
1.84656e-07
1.9564e-07
2.06909e-07
2.18437e-07
2.302e-07
2.42175e-07
2.54339e-07
2.6667e-07
2.79147e-07
2.91745e-07
3.04443e-07
3.17216e-07
3.30041e-07
3.42894e-07
3.55751e-07
3.68587e-07
3.8138e-07
3.94108e-07
4.06748e-07
4.19281e-07
4.31689e-07
4.43954e-07
4.56062e-07
4.67999e-07
4.79752e-07
4.91312e-07
5.02669e-07
5.13815e-07
5.24743e-07
5.35445e-07
5.45914e-07
5.56143e-07
5.66123e-07
5.75845e-07
5.85299e-07
5.94471e-07
6.03348e-07
6.11912e-07
6.20145e-07
6.28024e-07
6.35526e-07
6.42623e-07
6.49286e-07
6.55482e-07
6.61179e-07
6.66338e-07
6.70921e-07
6.74889e-07
6.78201e-07
6.80815e-07
6.82682e-07
6.83671e-07
6.83908e-07
6.83332e-07
6.81838e-07
6.79396e-07
6.75974e-07
6.71544e-07
6.66083e-07
6.5957e-07
6.51991e-07
6.43338e-07
6.33612e-07
6.22818e-07
6.10973e-07
5.98099e-07
5.84231e-07
5.69409e-07
5.53687e-07
5.37124e-07
5.19789e-07
5.01761e-07
4.83125e-07
4.63972e-07
4.44401e-07
4.24513e-07
4.04413e-07
3.84209e-07
3.64006e-07
3.43909e-07
3.24019e-07
3.04435e-07
2.85245e-07
2.66535e-07
2.48379e-07
2.30842e-07
2.13982e-07
1.97845e-07
1.82467e-07
1.67875e-07
1.54085e-07
1.41107e-07
1.28941e-07
1.17582e-07
1.07018e-07
9.72326e-08
8.82083e-08
7.99248e-08
7.23622e-08
6.55026e-08
5.93316e-08
5.38406e-08
4.90291e-08
4.49083e-08
4.15056e-08
3.88722e-08
3.70956e-08
3.63231e-08
3.68085e-08
3.90233e-08
4.39461e-08
5.399e-08
7.72244e-08
1.63038e-07
4.79078e-07
2.27021e-07
1.58231e-07
1.27516e-07
1.11159e-07
1.02078e-07
9.74204e-08
9.57927e-08
9.64081e-08
9.88054e-08
1.02668e-07
1.07769e-07
1.13934e-07
1.21028e-07
1.28935e-07
1.37562e-07
1.46825e-07
1.56655e-07
1.66991e-07
1.77778e-07
1.8897e-07
2.00526e-07
2.12409e-07
2.24586e-07
2.37026e-07
2.49702e-07
2.62586e-07
2.75651e-07
2.88874e-07
3.02226e-07
3.15684e-07
3.2922e-07
3.42809e-07
3.56425e-07
3.70041e-07
3.83631e-07
3.97173e-07
4.1064e-07
4.24012e-07
4.37267e-07
4.50386e-07
4.63352e-07
4.76151e-07
4.88768e-07
5.01194e-07
5.13417e-07
5.25432e-07
5.3723e-07
5.48806e-07
5.60156e-07
5.71274e-07
5.82154e-07
5.92792e-07
6.03179e-07
6.13308e-07
6.23169e-07
6.3275e-07
6.42036e-07
6.5101e-07
6.59653e-07
6.67943e-07
6.75856e-07
6.83362e-07
6.90434e-07
6.97036e-07
7.03135e-07
7.08692e-07
7.13669e-07
7.18024e-07
7.21716e-07
7.247e-07
7.26933e-07
7.28297e-07
7.28804e-07
7.28545e-07
7.27346e-07
7.25171e-07
7.21986e-07
7.17759e-07
7.12462e-07
7.06068e-07
6.98558e-07
6.89919e-07
6.80143e-07
6.69229e-07
6.57189e-07
6.44037e-07
6.29803e-07
6.14522e-07
5.98241e-07
5.81018e-07
5.62919e-07
5.4402e-07
5.24408e-07
5.04176e-07
4.83425e-07
4.62263e-07
4.40802e-07
4.19155e-07
3.97441e-07
3.75774e-07
3.54269e-07
3.33035e-07
3.12176e-07
2.91789e-07
2.71963e-07
2.52777e-07
2.34299e-07
2.16587e-07
1.99686e-07
1.83634e-07
1.68453e-07
1.54158e-07
1.40756e-07
1.28242e-07
1.16607e-07
1.05835e-07
9.59089e-08
8.68061e-08
7.8505e-08
7.09853e-08
6.42302e-08
5.82284e-08
5.29775e-08
4.84871e-08
4.47842e-08
4.19215e-08
3.99905e-08
3.91476e-08
3.96638e-08
4.20449e-08
4.73427e-08
5.81552e-08
8.31723e-08
1.75584e-07
5.25076e-07
2.48733e-07
1.73219e-07
1.39424e-07
1.21365e-07
1.11286e-07
1.06065e-07
1.04179e-07
1.04759e-07
1.07302e-07
1.11459e-07
1.16977e-07
1.23665e-07
1.31367e-07
1.39957e-07
1.49328e-07
1.59386e-07
1.70052e-07
1.81256e-07
1.92938e-07
2.05044e-07
2.17527e-07
2.30345e-07
2.43459e-07
2.56835e-07
2.70441e-07
2.84245e-07
2.98217e-07
3.12327e-07
3.26548e-07
3.40849e-07
3.55203e-07
3.69579e-07
3.83951e-07
3.9829e-07
4.12571e-07