/*--------------------------------*- C++ -*----------------------------------*\
  =========                 |
  \\      /  F ield         | OpenFOAM: The Open Source CFD Toolbox
   \\    /   O peration     | Website:  https://openfoam.org
    \\  /    A nd           | Version:  12
     \\/     M anipulation  |
\*---------------------------------------------------------------------------*/
FoamFile
{
    format      ascii;
    class       volScalarField;
    location    "9.5";
    object      k;
}
// * * * * * * * * * * * * * * * * * * * * * * * * * * * * * * * * * * * * * //

dimensions      [0 2 -2 0 0 0 0];

internalField   nonuniform List<scalar> 
18225
(
6.38201e-13
3.18933e-12
6.97979e-12
1.15315e-11
1.66313e-11
2.21534e-11
2.80089e-11
3.41287e-11
4.04567e-11
4.69458e-11
5.35566e-11
6.02556e-11
6.70145e-11
7.38098e-11
8.06225e-11
8.74371e-11
9.4242e-11
1.01029e-10
1.07792e-10
1.14529e-10
1.2124e-10
1.27925e-10
1.34588e-10
1.41234e-10
1.47869e-10
1.545e-10
1.61133e-10
1.67775e-10
1.74435e-10
1.81119e-10
1.87834e-10
1.94584e-10
2.01376e-10
2.08212e-10
2.15097e-10
2.2203e-10
2.29014e-10
2.36047e-10
2.43127e-10
2.5025e-10
2.57414e-10
2.64611e-10
2.71835e-10
2.79077e-10
2.86329e-10
2.9358e-10
3.00819e-10
3.08032e-10
3.15207e-10
3.22327e-10
3.29377e-10
3.36341e-10
3.43198e-10
3.49932e-10
3.5652e-10
3.62943e-10
3.69177e-10
3.752e-10
3.80987e-10
3.86515e-10
3.91757e-10
3.96689e-10
4.01283e-10
4.05514e-10
4.09355e-10
4.1278e-10
4.15762e-10
4.18276e-10
4.20299e-10
4.21808e-10
4.22772e-10
4.23176e-10
4.23019e-10
4.22274e-10
4.20924e-10
4.18958e-10
4.16368e-10
4.13149e-10
4.09299e-10
4.04823e-10
3.99726e-10
3.94018e-10
3.87713e-10
3.80831e-10
3.73392e-10
3.65423e-10
3.56953e-10
3.48016e-10
3.38646e-10
3.28884e-10
3.18771e-10
3.08349e-10
2.97665e-10
2.86765e-10
2.75695e-10
2.64504e-10
2.53238e-10
2.41944e-10
2.30666e-10
2.19449e-10
2.08334e-10
1.97359e-10
1.86561e-10
1.75974e-10
1.65628e-10
1.55549e-10
1.45761e-10
1.36283e-10
1.27132e-10
1.1832e-10
1.09857e-10
1.0175e-10
9.40007e-11
8.66103e-11
7.95761e-11
7.2893e-11
6.65539e-11
6.05501e-11
5.48712e-11
4.95055e-11
4.44404e-11
3.96629e-11
3.51595e-11
3.09171e-11
2.69233e-11
2.31667e-11
1.96378e-11
1.63296e-11
1.32387e-11
1.03664e-11
7.72114e-12
5.3224e-12
3.20902e-12
1.46318e-12
2.92637e-13
3.19125e-12
2.74572e-11
6.20399e-11
1.03207e-10
1.49218e-10
1.98994e-10
2.51749e-10
3.06872e-10
3.63859e-10
4.2229e-10
4.81809e-10
5.42114e-10
6.02953e-10
6.64115e-10
7.25429e-10
7.86757e-10
8.47995e-10
9.09067e-10
9.69924e-10
1.03054e-09
1.09092e-09
1.15106e-09
1.21101e-09
1.27081e-09
1.3305e-09
1.39015e-09
1.44982e-09
1.50959e-09
1.5695e-09
1.62963e-09
1.69004e-09
1.75077e-09
1.81188e-09
1.87338e-09
1.93532e-09
1.99771e-09
2.06054e-09
2.12382e-09
2.18753e-09
2.25163e-09
2.31608e-09
2.38084e-09
2.44585e-09
2.51102e-09
2.57628e-09
2.64153e-09
2.70667e-09
2.77159e-09
2.83615e-09
2.90023e-09
2.96369e-09
3.02636e-09
3.08808e-09
3.14868e-09
3.20799e-09
3.2658e-09
3.32191e-09
3.37613e-09
3.42823e-09
3.478e-09
3.5252e-09
3.5696e-09
3.61097e-09
3.64907e-09
3.68367e-09
3.71452e-09
3.74138e-09
3.76403e-09
3.78223e-09
3.79575e-09
3.80437e-09
3.80793e-09
3.80647e-09
3.7997e-09
3.78749e-09
3.76974e-09
3.74637e-09
3.71734e-09
3.68264e-09
3.6423e-09
3.59638e-09
3.54496e-09
3.48818e-09
3.42621e-09
3.35923e-09
3.28749e-09
3.21124e-09
3.13079e-09
3.04646e-09
2.9586e-09
2.86758e-09
2.7738e-09
2.67766e-09
2.57957e-09
2.47997e-09
2.37928e-09
2.27791e-09
2.1763e-09
2.07484e-09
1.97392e-09
1.87392e-09
1.77519e-09
1.67805e-09
1.58281e-09
1.48973e-09
1.39906e-09
1.31101e-09
1.22575e-09
1.14343e-09
1.06417e-09
9.88043e-10
9.15114e-10
8.45406e-10
7.7892e-10
7.15635e-10
6.55509e-10
5.98482e-10
5.44474e-10
4.93389e-10
4.45125e-10
3.99565e-10
3.56593e-10
3.16088e-10
2.7793e-10
2.42007e-10
2.08217e-10
1.76473e-10
1.46711e-10
1.18899e-10
9.30467e-11
6.92265e-11
4.76046e-11
2.85068e-11
1.25902e-11
1.46256e-12
7.00123e-12
6.2189e-11
1.41712e-10
2.3674e-10
3.4307e-10
4.58125e-10
5.80065e-10
7.07464e-10
8.39157e-10
9.74171e-10
1.11169e-09
1.25101e-09
1.39155e-09
1.53283e-09
1.67445e-09
1.81609e-09
1.95752e-09
2.09856e-09
2.23909e-09
2.37907e-09
2.51849e-09
2.65738e-09
2.79581e-09
2.93389e-09
3.07174e-09
3.2095e-09
3.34731e-09
3.48534e-09
3.62374e-09
3.76265e-09
3.9022e-09
4.04252e-09
4.1837e-09
4.32583e-09
4.46897e-09
4.61315e-09
4.75838e-09
4.90464e-09
5.05189e-09
5.20006e-09
5.34905e-09
5.49875e-09
5.64901e-09
5.79966e-09
5.9505e-09
6.10132e-09
6.25187e-09
6.40189e-09
6.55108e-09
6.69914e-09
6.84572e-09
6.99048e-09
7.13303e-09
7.27296e-09
7.40986e-09
7.54329e-09
7.67278e-09
7.79784e-09
7.91799e-09
8.03271e-09
8.14148e-09
8.24375e-09
8.33899e-09
8.42665e-09
8.50618e-09
8.57703e-09
8.63867e-09
8.69056e-09
8.73219e-09
8.76307e-09
8.78258e-09
8.79039e-09
8.78667e-09
8.77068e-09
8.74212e-09
8.70076e-09
8.64642e-09
8.57903e-09
8.49856e-09
8.40507e-09
8.2987e-09
8.17967e-09
8.04828e-09
7.9049e-09
7.75001e-09
7.58413e-09
7.40788e-09
7.22195e-09
7.02708e-09
6.82409e-09
6.61384e-09
6.39724e-09
6.17521e-09
5.94873e-09
5.71877e-09
5.48632e-09
5.25234e-09
5.01781e-09
4.78365e-09
4.55078e-09
4.32004e-09
4.09224e-09
3.86815e-09
3.64844e-09
3.43375e-09
3.22462e-09
3.02154e-09
2.82492e-09
2.63509e-09
2.45232e-09
2.2768e-09
2.10866e-09
1.94796e-09
1.79469e-09
1.64882e-09
1.51024e-09
1.3788e-09
1.25432e-09
1.13659e-09
1.02535e-09
9.20351e-10
8.21312e-10
7.27956e-10
6.40008e-10
5.57208e-10
4.79318e-10
4.0614e-10
3.37523e-10
2.73393e-10
2.13773e-10
1.58836e-10
1.08978e-10
6.49854e-11
2.84592e-11
3.20214e-12
1.16174e-11
1.03902e-10
2.37759e-10
3.98311e-10
5.78283e-10
7.73177e-10
9.79802e-10
1.1957e-09
1.41887e-09
1.64766e-09
1.88068e-09
2.11673e-09
2.35484e-09
2.59418e-09
2.83407e-09
3.07398e-09
3.31352e-09
3.55238e-09
3.79038e-09
4.02743e-09
4.26352e-09
4.49873e-09
4.73316e-09
4.96701e-09
5.20047e-09
5.43381e-09
5.66726e-09
5.9011e-09
6.13558e-09
6.37096e-09
6.60746e-09
6.84529e-09
7.08461e-09
7.32556e-09
7.56825e-09
7.81271e-09
8.05897e-09
8.30699e-09
8.55669e-09
8.80795e-09
9.06061e-09
9.31445e-09
9.56923e-09
9.82465e-09
1.00804e-08
1.0336e-08
1.05912e-08
1.08454e-08
1.10981e-08
1.13489e-08
1.15971e-08
1.18422e-08
1.20835e-08
1.23203e-08
1.25518e-08
1.27774e-08
1.29963e-08
1.32076e-08
1.34105e-08
1.36041e-08
1.37876e-08
1.396e-08
1.41205e-08
1.42681e-08
1.44018e-08
1.45208e-08
1.46242e-08
1.47111e-08
1.47806e-08
1.48319e-08
1.48638e-08
1.4876e-08
1.48687e-08
1.48407e-08
1.47914e-08
1.47204e-08
1.46275e-08
1.45125e-08
1.43753e-08
1.42162e-08
1.40353e-08
1.38331e-08
1.36099e-08
1.33665e-08
1.31036e-08
1.28222e-08
1.25233e-08
1.22081e-08
1.18778e-08
1.15338e-08
1.11775e-08
1.08106e-08
1.04345e-08
1.0051e-08
9.66168e-09
9.26818e-09
8.87217e-09
8.47529e-09
8.07911e-09
7.68515e-09
7.29488e-09
6.90965e-09
6.53074e-09
6.1593e-09
5.7964e-09
5.44295e-09
5.09978e-09
4.76757e-09
4.44688e-09
4.13815e-09
3.84171e-09
3.55776e-09
3.28641e-09
3.02765e-09
2.7814e-09
2.54747e-09
2.32562e-09
2.11554e-09
1.91684e-09
1.72912e-09
1.55192e-09
1.38479e-09
1.22725e-09
1.07884e-09
9.39107e-10
8.07656e-10
6.84148e-10
5.68333e-10
4.60087e-10
3.59461e-10
2.6676e-10
1.82688e-10
1.08635e-10
4.73756e-11
5.29402e-12
1.68624e-11
1.51179e-10
3.4673e-10
5.81941e-10
8.46062e-10
1.13237e-09
1.43607e-09
1.75348e-09
2.08163e-09
2.41805e-09
2.76068e-09
3.10777e-09
3.45785e-09
3.80972e-09
4.16238e-09
4.51506e-09
4.86715e-09
5.21823e-09
5.56804e-09
5.91645e-09
6.26345e-09
6.60915e-09
6.95373e-09
7.29747e-09
7.64068e-09
7.98373e-09
8.327e-09
8.67088e-09
9.01575e-09
9.36199e-09
9.70992e-09
1.00599e-08
1.0412e-08
1.07666e-08
1.11238e-08
1.14836e-08
1.18461e-08
1.22111e-08
1.25786e-08
1.29484e-08
1.33202e-08
1.36937e-08
1.40686e-08
1.44442e-08
1.48203e-08
1.51961e-08
1.55711e-08
1.59446e-08
1.63158e-08
1.6684e-08
1.70483e-08
1.74078e-08
1.77616e-08
1.81086e-08
1.84478e-08
1.87781e-08
1.90984e-08
1.94074e-08
1.97039e-08
1.99867e-08
2.02545e-08
2.05059e-08
2.07397e-08
2.09545e-08
2.11489e-08
2.13216e-08
2.14714e-08
2.15969e-08
2.16969e-08
2.17702e-08
2.18149e-08
2.18308e-08
2.18184e-08
2.17754e-08
2.17012e-08
2.15953e-08
2.14572e-08
2.12867e-08
2.10839e-08
2.08488e-08
2.05819e-08
2.02836e-08
1.99547e-08
1.95962e-08
1.92092e-08
1.8795e-08
1.83552e-08
1.78915e-08
1.74057e-08
1.69e-08
1.63763e-08
1.5837e-08
1.52845e-08
1.4721e-08
1.41492e-08
1.35713e-08
1.29899e-08
1.24073e-08
1.18259e-08
1.12479e-08
1.06753e-08
1.01104e-08
9.55477e-09
9.01027e-09
8.4784e-09
7.96051e-09
7.45778e-09
6.97122e-09
6.50163e-09
6.04965e-09
5.61574e-09
5.2002e-09
4.80317e-09
4.42463e-09
4.06443e-09
3.72232e-09
3.3979e-09
3.09072e-09
2.80022e-09
2.52578e-09
2.26675e-09
2.02244e-09
1.79215e-09
1.5752e-09
1.37094e-09
1.17877e-09
9.98215e-10
8.28905e-10
6.70671e-10
5.23603e-10
3.8818e-10
2.65474e-10
1.57572e-10
6.85603e-11
7.64252e-12
2.26517e-11
2.03313e-10
4.66915e-10
7.84614e-10
1.14189e-09
1.52955e-09
1.94101e-09
2.37121e-09
2.81607e-09
3.27219e-09
3.73674e-09
4.20734e-09
4.68199e-09
5.15904e-09
5.63715e-09
6.11525e-09
6.59253e-09
7.06844e-09
7.5426e-09
8.01486e-09
8.48522e-09
8.95382e-09
9.42094e-09
9.88695e-09
1.03523e-08
1.08175e-08
1.1283e-08
1.17494e-08
1.22172e-08
1.2687e-08
1.31591e-08
1.36339e-08
1.41118e-08
1.45931e-08
1.50778e-08
1.55662e-08
1.6058e-08
1.65534e-08
1.7052e-08
1.75536e-08
1.80578e-08
1.85642e-08
1.90722e-08
1.95812e-08
2.00904e-08
2.05992e-08
2.11066e-08
2.16117e-08
2.21135e-08
2.26108e-08
2.31027e-08
2.35877e-08
2.40647e-08
2.45323e-08
2.49891e-08
2.54335e-08
2.58641e-08
2.62793e-08
2.66773e-08
2.70566e-08
2.74155e-08
2.77521e-08
2.80647e-08
2.83515e-08
2.86108e-08
2.88408e-08
2.90397e-08
2.92059e-08
2.93377e-08
2.94335e-08
2.94902e-08
2.95087e-08
2.9489e-08
2.94281e-08
2.93252e-08
2.91794e-08
2.89902e-08
2.87575e-08
2.84811e-08
2.81612e-08
2.77984e-08
2.73933e-08
2.69469e-08
2.64605e-08
2.59356e-08
2.53741e-08
2.47781e-08
2.41497e-08
2.34916e-08
2.28065e-08
2.20974e-08
2.13672e-08
2.06191e-08
1.98564e-08
1.90825e-08
1.83006e-08
1.75141e-08
1.67261e-08
1.59399e-08
1.51584e-08
1.43846e-08
1.36212e-08
1.28707e-08
1.21354e-08
1.14173e-08
1.07183e-08
1.004e-08
9.38365e-09
8.75039e-09
8.14105e-09
7.55622e-09
6.9963e-09
6.46144e-09
5.95161e-09
5.46659e-09
5.00601e-09
4.56933e-09
4.15591e-09
3.76498e-09
3.3957e-09
3.04719e-09
2.71849e-09
2.40866e-09
2.11678e-09
1.84197e-09
1.58344e-09
1.34052e-09
1.11275e-09
8.99903e-10
7.02133e-10
5.20118e-10
3.55344e-10
2.10656e-10
9.15351e-11
1.01919e-11
2.89414e-11
2.59928e-10
5.97422e-10
1.00475e-09
1.46336e-09
1.96141e-09
2.49036e-09
3.04364e-09
3.61591e-09
4.20277e-09
4.80054e-09
5.40613e-09
6.01693e-09
6.63081e-09
7.24604e-09
7.86123e-09
8.47536e-09
9.08769e-09
9.69777e-09
1.03054e-08
1.09106e-08
1.15135e-08
1.21146e-08
1.27142e-08
1.33131e-08
1.39118e-08
1.4511e-08
1.51114e-08
1.57137e-08
1.63185e-08
1.69264e-08
1.75379e-08
1.81533e-08
1.87729e-08
1.9397e-08
2.00257e-08
2.06588e-08
2.12961e-08
2.19375e-08
2.25825e-08
2.32306e-08
2.38812e-08
2.45335e-08
2.51867e-08
2.58399e-08
2.6492e-08
2.7142e-08
2.77885e-08
2.84303e-08
2.90659e-08
2.9694e-08
3.03129e-08
3.0921e-08
3.15167e-08
3.2098e-08
3.26631e-08
3.32101e-08
3.3737e-08
3.42417e-08
3.47222e-08
3.51763e-08
3.56017e-08
3.59963e-08
3.63579e-08
3.66842e-08
3.69731e-08
3.72222e-08
3.74296e-08
3.75932e-08
3.77109e-08
3.77782e-08
3.77977e-08
3.77684e-08
3.76865e-08
3.75509e-08
3.73608e-08
3.71154e-08
3.68143e-08
3.64576e-08
3.60454e-08
3.55783e-08
3.50573e-08
3.44834e-08
3.38585e-08
3.31843e-08
3.24632e-08
3.16979e-08
3.08913e-08
3.00467e-08
2.91674e-08
2.82574e-08
2.73204e-08
2.63606e-08
2.53823e-08
2.43896e-08
2.33868e-08
2.23782e-08
2.1368e-08
2.03602e-08
1.93588e-08
1.83674e-08
1.73896e-08
1.64285e-08
1.54872e-08
1.45682e-08
1.36739e-08
1.28064e-08
1.19672e-08
1.11578e-08
1.03793e-08
9.63227e-09
8.9173e-09
8.23454e-09
7.58391e-09
6.9651e-09
6.37761e-09
5.82073e-09
5.2936e-09
4.79523e-09
4.32453e-09
3.88034e-09
3.46143e-09
3.06659e-09
2.69463e-09
2.34442e-09
2.01497e-09
1.70542e-09
1.4152e-09
1.14404e-09
8.92161e-10
6.60472e-10
4.50899e-10
2.67082e-10
1.15957e-10
1.29031e-11
3.57101e-11
3.20839e-10
7.37812e-10
1.24158e-09
1.80929e-09
2.42628e-09
3.08194e-09
3.76803e-09
4.47789e-09
5.206e-09
5.94775e-09
6.69924e-09
7.45725e-09
8.21909e-09
8.98259e-09
9.74603e-09
1.05081e-08
1.12679e-08
1.20249e-08
1.27789e-08
1.35298e-08
1.42779e-08
1.50237e-08
1.57678e-08
1.65109e-08
1.72539e-08
1.79975e-08
1.87427e-08
1.94902e-08
2.02409e-08
2.09953e-08
2.17541e-08
2.25178e-08
2.32865e-08
2.40606e-08
2.48401e-08
2.56248e-08
2.64145e-08
2.72088e-08
2.80071e-08
2.88088e-08
2.9613e-08
3.04187e-08
3.12249e-08
3.20304e-08
3.2834e-08
3.3634e-08
3.44292e-08
3.52178e-08
3.5998e-08
3.67682e-08
3.75265e-08
3.82707e-08
3.89988e-08
3.97087e-08
4.03981e-08
4.10647e-08
4.17062e-08
4.23199e-08
4.29036e-08
4.34544e-08
4.39699e-08
4.44474e-08
4.48842e-08
4.52777e-08
4.56252e-08
4.59241e-08
4.61718e-08
4.63659e-08
4.65039e-08
4.65794e-08
4.6598e-08
4.65563e-08
4.64503e-08
4.62785e-08
4.60398e-08
4.57334e-08
4.53589e-08
4.49162e-08
4.44053e-08
4.38271e-08
4.31826e-08
4.24733e-08
4.1701e-08
4.08682e-08
3.99777e-08
3.90327e-08
3.80368e-08
3.69939e-08
3.59084e-08
3.47849e-08
3.36282e-08
3.24434e-08
3.12356e-08
3.00102e-08
2.87725e-08
2.75277e-08
2.6281e-08
2.50375e-08
2.38021e-08
2.25792e-08
2.13734e-08
2.01885e-08
1.90282e-08
1.78957e-08
1.67941e-08
1.57257e-08
1.46926e-08
1.36965e-08
1.27386e-08
1.18199e-08
1.09409e-08
1.01017e-08
9.30232e-09
8.54224e-09
7.82082e-09
7.13716e-09
6.49017e-09
5.8786e-09
5.30108e-09
4.75614e-09
4.24228e-09
3.75797e-09
3.30175e-09
2.87223e-09
2.46816e-09
2.08854e-09
1.73264e-09
1.40019e-09
1.09148e-09
8.0764e-10
5.5107e-10
3.26228e-10
1.4156e-10
1.57463e-11
4.29496e-11
3.85978e-10
8.8793e-10
1.49482e-09
2.17923e-09
2.92353e-09
3.71488e-09
4.5433e-09
5.40068e-09
6.28031e-09
7.17655e-09
8.08468e-09
9.00073e-09
9.92143e-09
1.08441e-08
1.17667e-08
1.26876e-08
1.36057e-08
1.45204e-08
1.54313e-08
1.63384e-08
1.72422e-08
1.81432e-08
1.9042e-08
1.99397e-08
2.08371e-08
2.17354e-08
2.26354e-08
2.35382e-08
2.44447e-08
2.53556e-08
2.62715e-08
2.71931e-08
2.81205e-08
2.9054e-08
2.99935e-08
3.09388e-08
3.18895e-08
3.2845e-08
3.38047e-08
3.47676e-08
3.57326e-08
3.66986e-08
3.76642e-08
3.8628e-08
3.95883e-08
4.05435e-08
4.14917e-08
4.2431e-08
4.33593e-08
4.42745e-08
4.51744e-08
4.60566e-08
4.69188e-08
4.77584e-08
4.85728e-08
4.93593e-08
5.01152e-08
5.08376e-08
5.15236e-08
5.21703e-08
5.27747e-08
5.33336e-08
5.3844e-08
5.43029e-08
5.4707e-08
5.50535e-08
5.53392e-08
5.55613e-08
5.57168e-08
5.57973e-08
5.58124e-08
5.57552e-08
5.56216e-08
5.54099e-08
5.51189e-08
5.47474e-08
5.4295e-08
5.37615e-08
5.3147e-08
5.24523e-08
5.16785e-08
5.08275e-08
4.99014e-08
4.8903e-08
4.78356e-08
4.6703e-08
4.55095e-08
4.42597e-08
4.29588e-08
4.16123e-08
4.0226e-08
3.88059e-08
3.73583e-08
3.58894e-08
3.44057e-08
3.29134e-08
3.1419e-08
2.99284e-08
2.84475e-08
2.69819e-08
2.55368e-08
2.4117e-08
2.2727e-08
2.13706e-08
2.00514e-08
1.87724e-08
1.75359e-08
1.63441e-08
1.51984e-08
1.40999e-08
1.30492e-08
1.20464e-08
1.10915e-08
1.01838e-08
9.32257e-09
8.50664e-09
7.73466e-09
7.00512e-09
6.31632e-09
5.66648e-09
5.05378e-09
4.47638e-09
3.9325e-09
3.42047e-09
2.93882e-09
2.48634e-09
2.06219e-09
1.66606e-09
1.29831e-09
9.60337e-10
6.54997e-10
3.87594e-10
1.68128e-10
1.86971e-11
5.06613e-11
4.55357e-10
1.04781e-09
1.76452e-09
2.57324e-09
3.4532e-09
4.38921e-09
5.36945e-09
6.38427e-09
7.42567e-09
8.48692e-09
9.56237e-09
1.06473e-08
1.17377e-08
1.28305e-08
1.3923e-08
1.50135e-08
1.61006e-08
1.71835e-08
1.82617e-08
1.93355e-08
2.0405e-08
2.14712e-08
2.25347e-08
2.35967e-08
2.46582e-08
2.57206e-08
2.67849e-08
2.78523e-08
2.89236e-08
2.99999e-08
3.10818e-08
3.21698e-08
3.32641e-08
3.43649e-08
3.54721e-08
3.65852e-08
3.77037e-08
3.8827e-08
3.99539e-08
4.10834e-08
4.22142e-08
4.33448e-08
4.44736e-08
4.55988e-08
4.67186e-08
4.78309e-08
4.89335e-08
5.00244e-08
5.11011e-08
5.21612e-08
5.32021e-08
5.42212e-08
5.52159e-08
5.61831e-08
5.71202e-08
5.8024e-08
5.88914e-08
5.97193e-08
6.05044e-08
6.12435e-08
6.1933e-08
6.25697e-08
6.31499e-08
6.36703e-08
6.41273e-08
6.45174e-08
6.48373e-08
6.50836e-08
6.52522e-08
6.53339e-08
6.53424e-08
6.5266e-08
6.51011e-08
6.48458e-08
6.44987e-08
6.40585e-08
6.35245e-08
6.28964e-08
6.21744e-08
6.13593e-08
6.04524e-08
5.94555e-08
5.83713e-08
5.72029e-08
5.5954e-08
5.46289e-08
5.32326e-08
5.17704e-08
5.02484e-08
4.86729e-08
4.70505e-08
4.53884e-08
4.36938e-08
4.1974e-08
4.02367e-08
3.84891e-08
3.67388e-08
3.49928e-08
3.3258e-08
3.1541e-08
2.98481e-08
2.81848e-08
2.65565e-08
2.49677e-08
2.34227e-08
2.1925e-08
2.04774e-08
1.90823e-08
1.77416e-08
1.64565e-08
1.52276e-08
1.40552e-08
1.2939e-08
1.18784e-08
1.08724e-08
9.91955e-09
9.01828e-09
8.16675e-09
7.36296e-09
6.60479e-09
5.89006e-09
5.21659e-09
4.58228e-09
3.98518e-09
3.42355e-09
2.89598e-09
2.40151e-09
1.93977e-09
1.51123e-09
1.11752e-09
7.61979e-10
4.5077e-10
1.95483e-10
2.17359e-11
5.88527e-11
5.29042e-10
1.2176e-09
2.05094e-09
2.9917e-09
4.01578e-09
5.10556e-09
6.24723e-09
7.42954e-09
8.64309e-09
9.88001e-09
1.11336e-08
1.23983e-08
1.36694e-08
1.49432e-08
1.62166e-08
1.74874e-08
1.87541e-08
2.00156e-08
2.12714e-08
2.25218e-08
2.3767e-08
2.50079e-08
2.62455e-08
2.74811e-08
2.87158e-08
2.99511e-08
3.11882e-08
3.24285e-08
3.36729e-08
3.49223e-08
3.61776e-08
3.7439e-08
3.8707e-08
3.99814e-08
4.1262e-08
4.25483e-08
4.38394e-08
4.51345e-08
4.64323e-08
4.77314e-08
4.90302e-08
5.03271e-08
5.162e-08
5.29069e-08
5.41858e-08
5.54541e-08
5.67097e-08
5.79499e-08
5.91722e-08
6.03738e-08
6.1552e-08
6.27038e-08
6.38263e-08
6.49163e-08
6.59708e-08
6.69863e-08
6.79596e-08
6.88872e-08
6.97655e-08
7.05908e-08
7.13596e-08
7.20679e-08
7.2712e-08
7.3288e-08
7.3792e-08
7.42203e-08
7.45689e-08
7.48343e-08
7.50102e-08
7.50888e-08
7.50865e-08
7.49865e-08
7.47862e-08
7.44836e-08
7.40769e-08
7.35647e-08
7.29462e-08
7.22209e-08
7.1389e-08
7.04513e-08
6.94092e-08
6.82647e-08
6.70207e-08
6.56805e-08
6.42484e-08
6.27292e-08
6.11283e-08
5.94519e-08
5.77067e-08
5.58998e-08
5.40388e-08
5.21318e-08
5.0187e-08
4.82128e-08
4.62179e-08
4.42107e-08
4.21997e-08
4.01932e-08
3.81992e-08
3.62252e-08
3.42785e-08
3.23657e-08
3.04929e-08
2.86655e-08
2.68883e-08
2.51656e-08
2.35006e-08
2.18963e-08
2.03547e-08
1.88773e-08
1.74648e-08
1.61176e-08
1.48353e-08
1.36172e-08
1.24621e-08
1.13683e-08
1.03341e-08
9.35719e-09
8.43528e-09
7.56587e-09
6.74643e-09
5.97443e-09
5.24743e-09
4.56316e-09
3.9196e-09
3.31514e-09
2.74868e-09
2.21981e-09
1.72907e-09
1.27834e-09
8.71447e-10
5.15422e-10
2.23481e-10
2.48464e-11
6.75351e-11
6.07139e-10
1.39755e-09
2.35449e-09
3.43521e-09
4.6121e-09
5.86496e-09
7.17791e-09
8.53799e-09
9.93434e-09
1.13578e-08
1.28006e-08
1.42562e-08
1.57191e-08
1.7185e-08
1.86502e-08
2.01121e-08
2.15689e-08
2.30193e-08
2.44628e-08
2.58994e-08
2.73298e-08
2.87546e-08
3.01752e-08
3.15928e-08
3.30089e-08
3.4425e-08
3.58426e-08
3.72629e-08
3.86871e-08
4.01162e-08
4.15507e-08
4.29912e-08
4.44377e-08
4.58901e-08
4.73479e-08
4.88104e-08
5.02766e-08
5.17452e-08
5.32148e-08
5.46838e-08
5.61502e-08
5.7612e-08
5.9067e-08
6.0513e-08
6.19474e-08
6.33678e-08
6.47715e-08
6.61558e-08
6.75177e-08
6.88545e-08
7.0163e-08
7.14403e-08
7.2683e-08
7.38879e-08
7.50516e-08
7.61707e-08
7.72414e-08
7.82602e-08
7.92231e-08
8.01263e-08
8.09659e-08
8.17376e-08
8.24374e-08
8.30611e-08
8.36046e-08
8.40635e-08
8.44338e-08
8.47114e-08
8.48875e-08
8.49593e-08
8.49401e-08
8.48117e-08
8.45717e-08
8.4218e-08
8.37486e-08
8.31619e-08
8.24569e-08
8.1633e-08
8.06904e-08
7.96298e-08
7.84527e-08
7.71612e-08
7.57584e-08
7.42479e-08
7.26343e-08
7.09228e-08
6.91194e-08
6.72308e-08
6.52642e-08
6.32277e-08
6.11297e-08
5.8979e-08
5.67848e-08
5.45566e-08
5.2304e-08
5.00366e-08
4.7764e-08
4.54954e-08
4.324e-08
4.10064e-08
3.88029e-08
3.6637e-08
3.45158e-08
3.24456e-08
3.04319e-08
2.84795e-08
2.65926e-08
2.47743e-08
2.3027e-08
2.13526e-08
1.9752e-08
1.82256e-08
1.6773e-08
1.53935e-08
1.40855e-08
1.28474e-08
1.1677e-08
1.05717e-08
9.52893e-09
8.54578e-09
7.61935e-09
6.74673e-09
5.92512e-09
5.15192e-09
4.42484e-09
3.74203e-09
3.10223e-09
2.50498e-09
1.95092e-09
1.44213e-09
9.8295e-10
5.81286e-10
2.52009e-10
2.8016e-11
7.67227e-11
6.89778e-10
1.58796e-09
2.67569e-09
3.90453e-09
5.24318e-09
6.66871e-09
8.1631e-09
9.71154e-09
1.13016e-08
1.29228e-08
1.45662e-08
1.62241e-08
1.78902e-08
1.95593e-08
2.12273e-08
2.2891e-08
2.45483e-08
2.61977e-08
2.78385e-08
2.94709e-08
3.10952e-08
3.27126e-08
3.43242e-08
3.59316e-08
3.75364e-08
3.91402e-08
4.07446e-08
4.23508e-08
4.39602e-08
4.55737e-08
4.71918e-08
4.88148e-08
5.04428e-08
5.20753e-08
5.37118e-08
5.53512e-08
5.69923e-08
5.86336e-08
6.02733e-08
6.19095e-08
6.354e-08
6.51626e-08
6.67747e-08
6.83739e-08
6.99575e-08
7.15226e-08
7.30666e-08
7.45864e-08
7.60791e-08
7.75416e-08
7.89706e-08
8.03631e-08
8.17156e-08
8.30246e-08
8.42868e-08
8.54983e-08
8.66554e-08
8.77543e-08
8.87909e-08
8.97611e-08
9.06606e-08
9.14853e-08
9.22306e-08
9.28922e-08
9.34655e-08
9.3946e-08
9.43294e-08
9.46112e-08
9.47795e-08
9.48394e-08
9.47968e-08
9.46348e-08
9.43508e-08
9.39425e-08
9.34077e-08
9.27448e-08
9.19525e-08
9.10303e-08
8.9978e-08
8.87965e-08
8.74871e-08
8.60522e-08
8.44948e-08
8.28188e-08
8.10289e-08
7.91308e-08
7.71307e-08
7.50359e-08
7.28542e-08
7.05941e-08
6.82648e-08
6.58759e-08
6.34374e-08
6.09598e-08
5.84535e-08
5.59291e-08
5.33974e-08
5.08686e-08
4.83529e-08
4.58602e-08
4.33995e-08
4.09797e-08
3.86085e-08
3.62934e-08
3.40405e-08
3.18557e-08
2.97434e-08
2.77075e-08
2.57509e-08
2.38758e-08
2.20833e-08
2.03739e-08
1.87474e-08
1.72028e-08
1.57387e-08
1.43531e-08
1.30435e-08
1.18071e-08
1.0641e-08
9.54182e-09
8.50633e-09
7.53122e-09
6.61332e-09
5.74969e-09
4.93771e-09
4.17531e-09
3.46106e-09
2.79442e-09
2.17609e-09
1.60839e-09
1.09615e-09
6.48161e-10
2.80978e-10
3.12351e-11
8.64318e-11
7.77105e-10
1.78917e-09
3.01511e-09
4.40049e-09
5.91014e-09
7.51828e-09
9.20459e-09
1.09523e-08
1.27475e-08
1.45779e-08
1.64334e-08
1.83053e-08
2.01861e-08
2.20698e-08
2.39517e-08
2.58279e-08
2.7696e-08
2.95541e-08
3.14017e-08
3.32385e-08
3.50652e-08
3.68827e-08
3.86927e-08
4.04966e-08
4.22962e-08
4.40932e-08
4.58893e-08
4.76859e-08
4.94842e-08
5.1285e-08
5.30889e-08
5.4896e-08
5.67061e-08
5.85187e-08
6.03329e-08
6.21473e-08
6.39605e-08
6.57707e-08
6.75759e-08
6.93738e-08
7.1162e-08
7.29381e-08
7.46992e-08
7.64427e-08
7.81658e-08
7.98655e-08
8.15389e-08
8.31828e-08
8.47943e-08
8.63701e-08
8.79069e-08
8.94016e-08
9.08505e-08
9.22503e-08
9.35972e-08
9.48876e-08
9.61175e-08
9.7283e-08
9.83798e-08
9.94038e-08
1.0035e-07
1.01215e-07
1.01994e-07
1.02682e-07
1.03274e-07
1.03765e-07
1.04152e-07
1.04428e-07
1.0458e-07
1.04622e-07
1.0455e-07
1.04349e-07
1.04017e-07
1.03551e-07
1.02949e-07
1.02209e-07
1.01331e-07
1.00312e-07
9.91535e-08
9.78554e-08
9.64194e-08
9.48476e-08
9.31432e-08
9.131e-08
8.9353e-08
8.72779e-08
8.50913e-08
8.28006e-08
8.04141e-08
7.79408e-08
7.53904e-08
7.2773e-08
7.00995e-08
6.73811e-08
6.4629e-08
6.18548e-08
5.90702e-08
5.62865e-08
5.35149e-08
5.07663e-08
4.8051e-08
4.53786e-08
4.27582e-08
4.01979e-08
3.77051e-08
3.52861e-08
3.29465e-08
3.06906e-08
2.85219e-08
2.64429e-08
2.44553e-08
2.25596e-08
2.07558e-08
1.9043e-08
1.74196e-08
1.58834e-08
1.44318e-08
1.30618e-08
1.17699e-08
1.05525e-08
9.40595e-09
8.32659e-09
7.31083e-09
6.35535e-09
5.45725e-09
4.61415e-09
3.82445e-09
3.08754e-09
2.40412e-09
1.77679e-09
1.21081e-09
7.15913e-10
3.10331e-10
3.4497e-11
9.6679e-11
8.69269e-10
2.00153e-09
3.37335e-09
4.92398e-09
6.61419e-09
8.41521e-09
1.03043e-08
1.22627e-08
1.42745e-08
1.63261e-08
1.84057e-08
2.05034e-08
2.26106e-08
2.47204e-08
2.68271e-08
2.89264e-08
3.10152e-08
3.30916e-08
3.51546e-08
3.72041e-08
3.92406e-08
4.12653e-08
4.32797e-08
4.52855e-08
4.72847e-08
4.92791e-08
5.12703e-08
5.32599e-08
5.52488e-08
5.7238e-08
5.92278e-08
6.12182e-08
6.32088e-08
6.51988e-08
6.7187e-08
6.91719e-08
7.11516e-08
7.31242e-08
7.50872e-08
7.70383e-08
7.89749e-08
8.08941e-08
8.27931e-08
8.46691e-08
8.65191e-08
8.83401e-08
9.0129e-08
9.18827e-08
9.35982e-08
9.52721e-08
9.69013e-08
9.84824e-08
1.00012e-07
1.01486e-07
1.02902e-07
1.04255e-07
1.05542e-07
1.06758e-07
1.07899e-07
1.08962e-07
1.09941e-07
1.10831e-07
1.11629e-07
1.1233e-07
1.12928e-07
1.13419e-07
1.13797e-07
1.14058e-07
1.14185e-07
1.14203e-07
1.14094e-07
1.13849e-07
1.13465e-07
1.1294e-07
1.1227e-07
1.11455e-07
1.10493e-07
1.09382e-07
1.08123e-07
1.06716e-07
1.05162e-07
1.03463e-07
1.01622e-07
9.96443e-08
9.75332e-08
9.52948e-08
9.29358e-08
9.04638e-08
8.78873e-08
8.52154e-08
8.24583e-08
7.96265e-08
7.67314e-08
7.37848e-08
7.07987e-08
6.77855e-08
6.47577e-08
6.17276e-08
5.87075e-08
5.57092e-08
5.27441e-08
4.9823e-08
4.6956e-08
4.41522e-08
4.142e-08
3.87668e-08
3.61989e-08
3.37213e-08
3.13384e-08
2.9053e-08
2.68674e-08
2.47824e-08
2.27982e-08
2.09139e-08
1.91281e-08
1.74383e-08
1.58419e-08
1.43355e-08
1.29153e-08
1.15774e-08
1.03178e-08
9.13242e-09
8.01719e-09
6.96848e-09
5.98301e-09
5.05815e-09
4.19206e-09
3.38403e-09
2.63479e-09
1.94713e-09
1.32682e-09
7.84467e-10
3.40036e-10
3.77982e-11
1.07481e-10
9.66425e-10
2.22538e-09
3.751e-09
5.47588e-09
7.35654e-09
9.36105e-09
1.14641e-08
1.36449e-08
1.58854e-08
1.81704e-08
2.04864e-08
2.2822e-08
2.51675e-08
2.75147e-08
2.98571e-08
3.21898e-08
3.4509e-08
3.68125e-08
3.90991e-08
4.13686e-08
4.36215e-08
4.58591e-08
4.80829e-08
5.02949e-08
5.2497e-08
5.46912e-08
5.68791e-08
5.90622e-08
6.12416e-08
6.3418e-08
6.55915e-08
6.7762e-08
6.99289e-08
7.2091e-08
7.42468e-08
7.63947e-08
7.85326e-08
8.0658e-08
8.27685e-08
8.48613e-08
8.69338e-08
8.8983e-08
9.10059e-08
9.29996e-08
9.4961e-08
9.68872e-08
9.8775e-08
1.00621e-07
1.02423e-07
1.04178e-07
1.05881e-07
1.0753e-07
1.09122e-07
1.10653e-07
1.12119e-07
1.13516e-07
1.14842e-07
1.1609e-07
1.17259e-07
1.18342e-07
1.19337e-07
1.20237e-07
1.21039e-07
1.21737e-07
1.22327e-07
1.22805e-07
1.23165e-07
1.23396e-07
1.23493e-07
1.23479e-07
1.23327e-07
1.23034e-07
1.22596e-07
1.2201e-07
1.21275e-07
1.20387e-07
1.19346e-07
1.1815e-07
1.16799e-07
1.15293e-07
1.13632e-07
1.1182e-07
1.09859e-07
1.07751e-07
1.05503e-07
1.03119e-07
1.00606e-07
9.79714e-08
9.52236e-08
9.2372e-08
8.94267e-08
8.63986e-08
8.32992e-08
8.01409e-08
7.69363e-08
7.36984e-08
7.04405e-08
6.71757e-08
6.39172e-08
6.06779e-08
5.74704e-08
5.43064e-08
5.11972e-08
4.81532e-08
4.51837e-08
4.22971e-08
3.95007e-08
3.68006e-08
3.42018e-08
3.17079e-08
2.93217e-08
2.70444e-08
2.48766e-08
2.28177e-08
2.08661e-08
1.90196e-08
1.72752e-08
1.56294e-08
1.40783e-08
1.26175e-08
1.12426e-08
9.94914e-09
8.73271e-09
7.58925e-09
6.51511e-09
5.50735e-09
4.56389e-09
3.68388e-09
2.86806e-09
2.11941e-09
1.44415e-09
8.5381e-10
3.70085e-10
4.11379e-11
1.18855e-10
1.06872e-09
2.46108e-09
4.14865e-09
6.05705e-09
8.13834e-09
1.03573e-08
1.2686e-08
1.51011e-08
1.75827e-08
2.01135e-08
2.26784e-08
2.52643e-08
2.78599e-08
3.04559e-08
3.30449e-08
3.56208e-08
3.81796e-08
4.07185e-08
4.32361e-08
4.5732e-08
4.82067e-08
5.06617e-08
5.30985e-08
5.55192e-08
5.79259e-08
6.03205e-08
6.27047e-08
6.508e-08
6.74474e-08
6.98075e-08
7.21601e-08
7.4505e-08
7.68412e-08
7.91675e-08
8.14819e-08
8.37826e-08
8.60672e-08
8.83332e-08
9.05777e-08
9.2798e-08
9.49912e-08
9.71542e-08
9.92842e-08
1.01378e-07
1.03433e-07
1.05445e-07
1.07413e-07
1.09333e-07
1.11201e-07
1.13015e-07
1.14773e-07
1.1647e-07
1.18103e-07
1.19669e-07
1.21165e-07
1.22586e-07
1.2393e-07
1.25192e-07
1.26368e-07
1.27454e-07
1.28445e-07
1.29338e-07
1.30127e-07
1.30808e-07
1.31376e-07
1.31827e-07
1.32156e-07
1.32347e-07
1.32411e-07
1.32354e-07
1.32155e-07
1.3181e-07
1.31317e-07
1.30672e-07
1.29874e-07
1.28919e-07
1.27806e-07
1.26534e-07
1.25103e-07
1.23511e-07
1.21759e-07
1.1985e-07
1.17786e-07
1.15569e-07
1.13204e-07
1.10696e-07
1.08051e-07
1.05276e-07
1.0238e-07
9.93714e-08
9.62603e-08
9.30576e-08
8.97751e-08
8.64252e-08
8.3021e-08
7.9576e-08
7.61039e-08
7.26189e-08
6.91349e-08
6.56659e-08
6.22253e-08
5.88263e-08
5.54811e-08
5.22014e-08
4.89977e-08
4.58796e-08
4.28555e-08
3.99325e-08
3.71165e-08
3.44121e-08
3.18226e-08
2.93501e-08
2.69953e-08
2.47582e-08
2.26373e-08
2.06304e-08
1.87347e-08
1.69463e-08
1.52611e-08
1.36746e-08
1.21819e-08
1.07781e-08
9.45843e-09
8.21847e-09
7.05417e-09
5.96222e-09
4.94029e-09
3.98735e-09
3.10412e-09
2.29374e-09
1.56289e-09
9.23988e-10
4.00499e-10
4.45184e-11
1.30815e-10
1.17629e-09
2.70894e-09
4.56683e-09
6.66829e-09
8.9607e-09
1.14054e-08
1.39715e-08
1.66334e-08
1.93689e-08
2.21583e-08
2.49847e-08
2.78331e-08
3.06908e-08
3.35469e-08
3.63927e-08
3.92215e-08
4.20284e-08
4.48102e-08
4.75651e-08
5.02927e-08
5.29936e-08
5.5669e-08
5.83209e-08
6.09512e-08
6.35622e-08
6.61559e-08
6.8734e-08
7.12979e-08
7.38486e-08
7.63863e-08
7.8911e-08
8.14219e-08
8.3918e-08
8.63976e-08
8.88589e-08
9.12994e-08
9.37166e-08
9.61079e-08
9.84704e-08
1.00801e-07
1.03097e-07
1.05355e-07
1.07573e-07
1.09747e-07
1.11874e-07
1.13952e-07
1.15978e-07
1.17948e-07
1.19861e-07
1.21713e-07
1.23502e-07
1.25224e-07
1.26876e-07
1.28456e-07
1.29959e-07
1.31383e-07
1.32723e-07
1.33977e-07
1.3514e-07
1.36208e-07
1.37178e-07
1.38045e-07
1.38804e-07
1.39452e-07
1.39984e-07
1.40395e-07
1.40681e-07
1.40822e-07
1.40848e-07
1.40742e-07
1.40491e-07
1.40094e-07
1.39546e-07
1.38845e-07
1.37989e-07
1.36974e-07
1.358e-07
1.34464e-07
1.32966e-07
1.31304e-07
1.2948e-07
1.27493e-07
1.25347e-07
1.23043e-07
1.20585e-07
1.17978e-07
1.15227e-07
1.12338e-07
1.0932e-07
1.06181e-07
1.0293e-07
9.95776e-08
9.61364e-08
9.26182e-08
8.90365e-08
8.54048e-08
8.17377e-08
7.80496e-08
7.43555e-08
7.06701e-08
6.70081e-08
6.33835e-08
5.98101e-08
5.63006e-08
5.28669e-08
4.952e-08
4.62694e-08
4.31235e-08
4.00893e-08
3.71723e-08
3.43769e-08
3.17059e-08
2.91606e-08
2.67413e-08
2.4447e-08
2.22758e-08
2.02247e-08
1.829e-08
1.64672e-08
1.47516e-08
1.3138e-08
1.16212e-08
1.0196e-08
8.85754e-09
7.60129e-09
6.42364e-09
5.32194e-09
4.29495e-09
3.34333e-09
2.47038e-09
1.68319e-09
9.951e-10
4.3132e-10
4.79443e-11
1.43375e-10
1.28925e-09
2.96924e-09
5.00603e-09
7.31031e-09
9.82458e-09
1.25065e-08
1.53224e-08
1.82437e-08
2.12458e-08
2.43069e-08
2.74076e-08
3.0531e-08
3.36624e-08
3.67895e-08
3.99023e-08
4.29928e-08
4.60556e-08
4.90869e-08
5.20845e-08
5.50479e-08
5.79777e-08
6.08752e-08
6.37424e-08
6.65815e-08
6.93946e-08
7.2184e-08
7.49514e-08
7.7698e-08
8.04247e-08
8.31317e-08
8.58187e-08
8.84847e-08
9.11285e-08
9.37482e-08
9.63416e-08