/*--------------------------------*- C++ -*----------------------------------*\
  =========                 |
  \\      /  F ield         | OpenFOAM: The Open Source CFD Toolbox
   \\    /   O peration     | Website:  https://openfoam.org
    \\  /    A nd           | Version:  12
     \\/     M anipulation  |
\*---------------------------------------------------------------------------*/
FoamFile
{
    format      ascii;
    class       volScalarField;
    location    "9.5";
    object      nut;
}
// * * * * * * * * * * * * * * * * * * * * * * * * * * * * * * * * * * * * * //

dimensions      [0 2 -1 0 0 0 0];

internalField   nonuniform List<scalar> 
18225
(
1.56838e-17
7.83779e-17
1.71528e-16
2.83386e-16
4.08714e-16
5.4442e-16
6.88318e-16
8.38713e-16
9.94222e-16
1.15369e-15
1.31615e-15
1.48078e-15
1.64688e-15
1.81388e-15
1.9813e-15
2.14877e-15
2.316e-15
2.48279e-15
2.649e-15
2.81456e-15
2.97946e-15
3.14375e-15
3.3075e-15
3.47083e-15
3.63389e-15
3.79683e-15
3.95984e-15
4.12308e-15
4.28675e-15
4.45101e-15
4.61601e-15
4.78191e-15
4.94881e-15
5.11682e-15
5.286e-15
5.45639e-15
5.62802e-15
5.80085e-15
5.97484e-15
6.1499e-15
6.32594e-15
6.50281e-15
6.68034e-15
6.85832e-15
7.03654e-15
7.21474e-15
7.39263e-15
7.5699e-15
7.74621e-15
7.92119e-15
8.09445e-15
8.26557e-15
8.43411e-15
8.59958e-15
8.76149e-15
8.91932e-15
9.07253e-15
9.22054e-15
9.36276e-15
9.49861e-15
9.62744e-15
9.74863e-15
9.86154e-15
9.96552e-15
1.00599e-14
1.01441e-14
1.02174e-14
1.02791e-14
1.03289e-14
1.03659e-14
1.03896e-14
1.03996e-14
1.03957e-14
1.03774e-14
1.03442e-14
1.02959e-14
1.02322e-14
1.01531e-14
1.00585e-14
9.94853e-15
9.82326e-15
9.68299e-15
9.52806e-15
9.35892e-15
9.17611e-15
8.98028e-15
8.77213e-15
8.55249e-15
8.32224e-15
8.08233e-15
7.83379e-15
7.57768e-15
7.31512e-15
7.04724e-15
6.77521e-15
6.50019e-15
6.22333e-15
5.94577e-15
5.66863e-15
5.39296e-15
5.1198e-15
4.8501e-15
4.58475e-15
4.32457e-15
4.07031e-15
3.82261e-15
3.58207e-15
3.34915e-15
3.12426e-15
2.90771e-15
2.69975e-15
2.50051e-15
2.31007e-15
2.12845e-15
1.95558e-15
1.79134e-15
1.63556e-15
1.48802e-15
1.34846e-15
1.2166e-15
1.09212e-15
9.74715e-16
8.64044e-16
7.59788e-16
6.61639e-16
5.69321e-16
4.82599e-16
4.01301e-16
3.25341e-16
2.54754e-16
1.89747e-16
1.30798e-16
7.88617e-17
3.59576e-17
7.19155e-18
7.8425e-17
7.11261e-15
2.41529e-14
4.46273e-14
6.69908e-14
9.0853e-14
1.1595e-13
1.42051e-13
1.68953e-13
1.96476e-13
2.24464e-13
2.52783e-13
2.81319e-13
3.09979e-13
3.38684e-13
3.67373e-13
3.96e-13
4.2453e-13
4.52942e-13
4.81226e-13
5.09382e-13
5.37418e-13
5.6535e-13
5.93198e-13
6.20988e-13
6.4875e-13
6.76515e-13
7.04313e-13
7.32177e-13
7.60137e-13
7.8822e-13
8.16451e-13
8.44852e-13
8.73438e-13
9.02224e-13
9.31216e-13
9.60416e-13
9.89823e-13
1.01943e-12
1.04922e-12
1.07918e-12
1.10928e-12
1.1395e-12
1.16981e-12
1.20016e-12
1.23051e-12
1.26082e-12
1.29103e-12
1.32109e-12
1.35094e-12
1.3805e-12
1.40972e-12
1.43851e-12
1.46679e-12
1.49448e-12
1.5215e-12
1.54775e-12
1.57313e-12
1.59755e-12
1.62089e-12
1.64307e-12
1.66396e-12
1.68345e-12
1.70145e-12
1.71782e-12
1.73247e-12
1.74527e-12
1.75612e-12
1.76488e-12
1.77145e-12
1.77573e-12
1.77765e-12
1.77723e-12
1.77433e-12
1.76889e-12
1.76085e-12
1.75017e-12
1.73684e-12
1.72084e-12
1.70218e-12
1.6809e-12
1.65703e-12
1.63062e-12
1.60176e-12
1.57054e-12
1.53706e-12
1.50146e-12
1.46386e-12
1.42442e-12
1.3833e-12
1.34069e-12
1.29677e-12
1.25173e-12
1.20577e-12
1.15908e-12
1.11188e-12
1.06436e-12
1.01672e-12
9.69155e-13
9.21846e-13
8.74973e-13
8.28701e-13
7.83185e-13
7.38566e-13
6.94972e-13
6.52518e-13
6.113e-13
5.71403e-13
5.32894e-13
4.95827e-13
4.60241e-13
4.26161e-13
3.93597e-13
3.62545e-13
3.32996e-13
3.04931e-13
2.78323e-13
2.5313e-13
2.29309e-13
2.06806e-13
1.85569e-13
1.65539e-13
1.46656e-13
1.28865e-13
1.12107e-13
9.63327e-14
8.14956e-14
6.75588e-14
5.44966e-14
4.2297e-14
3.0965e-14
2.0528e-14
1.1081e-14
3.26085e-15
3.59425e-17
1.72055e-16
2.41809e-14
1.227e-13
2.76567e-13
4.55483e-13
6.47282e-13
8.47619e-13
1.05438e-12
1.26608e-12
1.48154e-12
1.69967e-12
1.91959e-12
2.1405e-12
2.36174e-12
2.58278e-12
2.8032e-12
3.02266e-12
3.24096e-12
3.45796e-12
3.67363e-12
3.88797e-12
4.1011e-12
4.31315e-12
4.52431e-12
4.7348e-12
4.94487e-12
5.15478e-12
5.36478e-12
5.57513e-12
5.78609e-12
5.99787e-12
6.21068e-12
6.4247e-12
6.64006e-12
6.85688e-12
7.07522e-12
7.29511e-12
7.51654e-12
7.73947e-12
7.96382e-12
8.18945e-12
8.41621e-12
8.64389e-12
8.87227e-12
9.10106e-12
9.32997e-12
9.55866e-12
9.78674e-12
1.00138e-11
1.02394e-11
1.04631e-11
1.06843e-11
1.09025e-11
1.11171e-11
1.13275e-11
1.1533e-11
1.1733e-11
1.19267e-11
1.21133e-11
1.22922e-11
1.24625e-11
1.26233e-11
1.27739e-11
1.29134e-11
1.30408e-11
1.31554e-11
1.32562e-11
1.33424e-11
1.34131e-11
1.34675e-11
1.35047e-11
1.35235e-11
1.35251e-11
1.35077e-11
1.34709e-11
1.34141e-11
1.33371e-11
1.32396e-11
1.31215e-11
1.29829e-11
1.28239e-11
1.26448e-11
1.24459e-11
1.22279e-11
1.19914e-11
1.17372e-11
1.14663e-11
1.11798e-11
1.08788e-11
1.05646e-11
1.02386e-11
9.90221e-12
9.55698e-12
9.20446e-12
8.84622e-12
8.48387e-12
8.11898e-12
7.75312e-12
7.38781e-12
7.02451e-12
6.6646e-12
6.30941e-12
5.96014e-12
5.61789e-12
5.28367e-12
4.95835e-12
4.6427e-12
4.33736e-12
4.04285e-12
3.75956e-12
3.48778e-12
3.22769e-12
2.97936e-12
2.74276e-12
2.51777e-12
2.30423e-12
2.10186e-12
1.91035e-12
1.72932e-12
1.55834e-12
1.39697e-12
1.24472e-12
1.10111e-12
9.65635e-13
8.37825e-13
7.17208e-13
6.03352e-13
4.95866e-13
3.94428e-13
2.98839e-13
2.09215e-13
1.26725e-13
5.6203e-14
1.10744e-14
7.86926e-17
2.85499e-16
4.48251e-14
2.77001e-13
7.37097e-13
1.35024e-12
2.04573e-12
2.78546e-12
3.55096e-12
4.33249e-12
5.12409e-12
5.92148e-12
6.72139e-12
7.52114e-12
8.3186e-12
9.11206e-12
9.90022e-12
1.06822e-11
1.14573e-11
1.22254e-11
1.29865e-11
1.37408e-11
1.44888e-11
1.52312e-11
1.59689e-11
1.67028e-11
1.74337e-11
1.81629e-11
1.88913e-11
1.962e-11
2.03499e-11
2.10819e-11
2.18168e-11
2.25553e-11
2.3298e-11
2.40454e-11
2.47976e-11
2.5555e-11
2.63176e-11
2.70853e-11
2.78578e-11
2.86348e-11
2.94158e-11
3.02003e-11
3.09874e-11
3.17763e-11
3.25662e-11
3.33558e-11
3.41439e-11
3.49293e-11
3.57105e-11
3.64859e-11
3.72538e-11
3.80125e-11
3.87599e-11
3.94939e-11
4.02124e-11
4.09131e-11
4.15934e-11
4.22509e-11
4.28828e-11
4.34863e-11
4.40585e-11
4.45965e-11
4.50971e-11
4.55574e-11
4.59741e-11
4.6344e-11
4.66642e-11
4.69313e-11
4.71431e-11
4.72945e-11
4.73814e-11
4.74094e-11
4.7371e-11
4.7264e-11
4.70868e-11
4.68378e-11
4.65161e-11
4.6121e-11
4.56525e-11
4.51108e-11
4.44968e-11
4.38116e-11
4.30571e-11
4.22356e-11
4.13499e-11
4.04033e-11
3.93995e-11
3.83427e-11
3.72376e-11
3.60891e-11
3.49023e-11
3.36829e-11
3.24364e-11
3.11686e-11
2.98854e-11
2.85926e-11
2.72958e-11
2.60006e-11
2.47124e-11
2.34363e-11
2.21771e-11
2.09391e-11
1.97265e-11
1.85427e-11
1.73911e-11
1.62744e-11
1.51948e-11
1.41541e-11
1.31539e-11
1.2195e-11
1.1278e-11
1.04031e-11
9.57018e-12
8.7787e-12
8.02791e-12
7.31676e-12
6.64398e-12
6.0081e-12
5.40747e-12
4.84034e-12
4.30482e-12
3.79899e-12
3.32089e-12
2.86854e-12
2.44006e-12
2.03367e-12
1.64791e-12
1.28198e-12
9.36722e-13
6.16961e-13
3.36868e-13
1.26678e-13
2.04736e-14
1.301e-16
4.14394e-16
6.76686e-14
4.57947e-13
1.35343e-12
2.70576e-12
4.36673e-12
6.20931e-12
8.15289e-12
1.01505e-11
1.21747e-11
1.42081e-11
1.62394e-11
1.82606e-11
2.02658e-11
2.22509e-11
2.4213e-11
2.61503e-11
2.80619e-11
2.99477e-11
3.18085e-11
3.36454e-11
3.54602e-11
3.72553e-11
3.90331e-11
4.07963e-11
4.2548e-11
4.4291e-11
4.60283e-11
4.77629e-11
4.94973e-11
5.12342e-11
5.29756e-11
5.47237e-11
5.64801e-11
5.8246e-11
6.00226e-11
6.18105e-11
6.36099e-11
6.54211e-11
6.72435e-11
6.90768e-11
7.09198e-11
7.27715e-11
7.46302e-11
7.64944e-11
7.83618e-11
8.02302e-11
8.20969e-11
8.39591e-11
8.58135e-11
8.76567e-11
8.94847e-11
9.12935e-11
9.30786e-11
9.48353e-11
9.65583e-11
9.82424e-11
9.98816e-11
1.0147e-10
1.03001e-10
1.04468e-10
1.05864e-10
1.07181e-10
1.08413e-10
1.09552e-10
1.10589e-10
1.11517e-10
1.12328e-10
1.13014e-10
1.13574e-10
1.13982e-10
1.1424e-10
1.14358e-10
1.14316e-10
1.14109e-10
1.13731e-10
1.13179e-10
1.1245e-10
1.11542e-10
1.10455e-10
1.09187e-10
1.07741e-10
1.0612e-10
1.04327e-10
1.02369e-10
1.0025e-10
9.79798e-11
9.55667e-11
9.3021e-11
9.03539e-11
8.75774e-11
8.47044e-11
8.17485e-11
7.87237e-11
7.56444e-11
7.25249e-11
6.93797e-11
6.62232e-11
6.30691e-11
5.9931e-11
5.68215e-11
5.37526e-11
5.07354e-11
4.778e-11
4.48954e-11
4.20896e-11
3.93693e-11
3.67404e-11
3.42072e-11
3.17733e-11
2.94409e-11
2.72115e-11
2.50853e-11
2.30618e-11
2.11396e-11
1.93167e-11
1.75903e-11
1.59568e-11
1.44125e-11
1.29529e-11
1.15733e-11
1.02687e-11
9.03398e-12
7.86385e-12
6.75313e-12
5.69703e-12
4.69167e-12
3.7351e-12
2.82958e-12
1.98597e-12
1.23137e-12
6.16894e-13
2.08747e-13
3.07612e-14
1.87815e-16
5.56664e-16
9.25078e-14
6.55063e-13
2.06035e-12
4.38279e-12
7.45196e-12
1.10303e-11
1.49188e-11
1.8979e-11
2.31212e-11
2.72883e-11
3.14438e-11
3.55637e-11
3.96324e-11
4.36395e-11
4.75789e-11
5.14473e-11
5.52438e-11
5.89696e-11
6.26271e-11
6.62204e-11
6.97543e-11
7.32345e-11
7.66674e-11
8.00597e-11
8.34184e-11
8.67504e-11
9.00625e-11
9.33612e-11
9.66527e-11
9.99426e-11
1.03236e-10
1.06538e-10
1.09851e-10
1.1318e-10
1.16526e-10
1.19892e-10
1.23279e-10
1.26686e-10
1.30115e-10
1.33564e-10
1.37032e-10
1.40517e-10
1.44017e-10
1.47529e-10
1.5105e-10
1.54575e-10
1.58099e-10
1.61619e-10
1.65127e-10
1.68618e-10
1.72085e-10
1.75519e-10
1.78913e-10
1.82259e-10
1.85545e-10
1.88763e-10
1.919e-10
1.94946e-10
1.97888e-10
2.00713e-10
2.03407e-10
2.05958e-10
2.08348e-10
2.10565e-10
2.12592e-10
2.14414e-10
2.16015e-10
2.1738e-10
2.18513e-10
2.19336e-10
2.19886e-10
2.2017e-10
2.20147e-10
2.19806e-10
2.19137e-10
2.18133e-10
2.16788e-10
2.15096e-10
2.13057e-10
2.1067e-10
2.07937e-10
2.04864e-10
2.01456e-10
1.97725e-10
1.93683e-10
1.89343e-10
1.84724e-10
1.79845e-10
1.74726e-10
1.69392e-10
1.63868e-10
1.58178e-10
1.5235e-10
1.46412e-10
1.40393e-10
1.34319e-10
1.2822e-10
1.22121e-10
1.1605e-10
1.10031e-10
1.04088e-10
9.82423e-11
9.25143e-11
8.69218e-11
8.14803e-11
7.62036e-11
7.11028e-11
6.6187e-11
6.1463e-11
5.69355e-11
5.26072e-11
4.84788e-11
4.45489e-11
4.0815e-11
3.72726e-11
3.39159e-11
3.0738e-11
2.77308e-11
2.48851e-11
2.21913e-11
1.9639e-11
1.72175e-11
1.49161e-11
1.27251e-11
1.06362e-11
8.6451e-12
6.75499e-12
4.98291e-12
3.3688e-12
1.98581e-12
9.35063e-13
2.96961e-13
4.17676e-14
2.50466e-16
7.11235e-16
1.19278e-13
8.6579e-13
2.82705e-12
6.2714e-12
1.10917e-11
1.69744e-11
2.35758e-11
3.06107e-11
3.78705e-11
4.52122e-11
5.25411e-11
5.97947e-11
6.69332e-11
7.39318e-11
8.07765e-11
8.74608e-11
9.3984e-11
1.00349e-10
1.06564e-10
1.12636e-10
1.18578e-10
1.24401e-10
1.3012e-10
1.35748e-10
1.41299e-10
1.46787e-10
1.52226e-10
1.57628e-10
1.63007e-10
1.68372e-10
1.73734e-10
1.79102e-10
1.84483e-10
1.89883e-10
1.95308e-10
2.00762e-10
2.06247e-10
2.11765e-10
2.17317e-10
2.22902e-10
2.28518e-10
2.34164e-10
2.39835e-10
2.45527e-10
2.51236e-10
2.56954e-10
2.62675e-10
2.68391e-10
2.74093e-10
2.7977e-10
2.85411e-10
2.91003e-10
2.96534e-10
3.01989e-10
3.07352e-10
3.12606e-10
3.17732e-10
3.22713e-10
3.27526e-10
3.3215e-10
3.36564e-10
3.40743e-10
3.44663e-10
3.483e-10
3.51627e-10
3.54618e-10
3.57246e-10
3.59496e-10
3.61363e-10
3.62702e-10
3.63615e-10
3.64086e-10
3.64053e-10
3.63496e-10
3.62402e-10
3.60757e-10
3.58551e-10
3.55777e-10
3.52431e-10
3.48515e-10
3.44031e-10
3.38986e-10
3.33394e-10
3.27269e-10
3.20632e-10
3.13507e-10
3.0592e-10
2.97904e-10
2.89493e-10
2.80725e-10
2.71639e-10
2.62279e-10
2.52687e-10
2.4291e-10
2.32992e-10
2.22981e-10
2.1292e-10
2.02855e-10
1.92829e-10
1.82883e-10
1.73055e-10
1.63382e-10
1.53897e-10
1.4463e-10
1.35608e-10
1.26852e-10
1.18382e-10
1.10214e-10
1.02359e-10
9.48253e-11
8.76179e-11
8.0738e-11
7.41838e-11
6.79508e-11
6.20314e-11
5.64159e-11
5.10927e-11
4.60479e-11
4.12659e-11
3.67299e-11
3.24219e-11
2.83242e-11
2.44195e-11
2.06934e-11
1.71369e-11
1.37515e-11
1.05567e-11
7.60225e-12
4.9802e-12
2.82424e-12
1.27455e-12
3.89412e-13
5.33797e-14
3.17095e-16
8.77575e-16
1.47956e-13
1.08979e-12
3.64269e-12
8.31213e-12
1.51287e-11
2.37646e-11
3.37446e-11
4.46044e-11
5.59634e-11
6.75377e-11
7.91274e-11
9.05977e-11
1.01861e-10
1.12864e-10
1.23575e-10
1.33982e-10
1.44082e-10
1.53882e-10
1.63397e-10
1.72644e-10
1.81645e-10
1.90424e-10
1.99005e-10
2.07415e-10
2.15678e-10
2.23819e-10
2.31864e-10
2.39833e-10
2.47749e-10
2.5563e-10
2.63494e-10
2.71356e-10
2.79229e-10
2.87124e-10
2.9505e-10
3.03013e-10
3.11019e-10
3.19072e-10
3.27172e-10
3.35319e-10
3.43512e-10
3.51747e-10
3.60019e-10
3.68323e-10
3.7665e-10
3.84992e-10
3.93338e-10
4.01676e-10
4.09993e-10
4.18272e-10
4.26498e-10
4.34651e-10
4.42712e-10
4.50658e-10
4.58466e-10
4.6611e-10
4.73563e-10
4.80796e-10
4.87779e-10
4.94478e-10
5.00862e-10
5.06894e-10
5.1254e-10
5.17762e-10
5.22523e-10
5.26786e-10
5.30514e-10
5.33686e-10
5.363e-10
5.38109e-10
5.3932e-10
5.39873e-10
5.39681e-10
5.38722e-10
5.36975e-10
5.34423e-10
5.31052e-10
5.26855e-10
5.21827e-10
5.15969e-10
5.09288e-10
5.01796e-10
4.9351e-10
4.84454e-10
4.74656e-10
4.64153e-10
4.52983e-10
4.41191e-10
4.28827e-10
4.15945e-10
4.02601e-10
3.88857e-10
3.74774e-10
3.60418e-10
3.45852e-10
3.31144e-10
3.16357e-10
3.01556e-10
2.86803e-10
2.72156e-10
2.57673e-10
2.43406e-10
2.29402e-10
2.15707e-10
2.0236e-10
1.89393e-10
1.76836e-10
1.64712e-10
1.5304e-10
1.41831e-10
1.31095e-10
1.20833e-10
1.11044e-10
1.01721e-10
9.28545e-11
8.44292e-11
7.6428e-11
6.88302e-11
6.16125e-11
5.47497e-11
4.82155e-11
4.1984e-11
3.60322e-11
3.03432e-11
2.49127e-11
1.97585e-11
1.49334e-11
1.05393e-11
6.73426e-12
3.71152e-12
1.62723e-12
4.85186e-13
6.54984e-14
3.86965e-16
1.05549e-15
1.78547e-13
1.32734e-12
4.5049e-12
1.04797e-11
1.94723e-11
3.1201e-11
4.50926e-11
6.04974e-11
7.6825e-11
9.36008e-11
1.10472e-10
1.2719e-10
1.4359e-10
1.59567e-10
1.75061e-10
1.90045e-10
2.04514e-10
2.1848e-10
2.31967e-10
2.45005e-10
2.57631e-10
2.69886e-10
2.8181e-10
2.93447e-10
3.04839e-10
3.16025e-10
3.27044e-10
3.37933e-10
3.48725e-10
3.59449e-10
3.70134e-10
3.80802e-10
3.91473e-10
4.02165e-10
4.12892e-10
4.23664e-10
4.34489e-10
4.45372e-10
4.56316e-10
4.67322e-10
4.78386e-10
4.89505e-10
5.00673e-10
5.11879e-10
5.23114e-10
5.34364e-10
5.45614e-10
5.56846e-10
5.68041e-10
5.79177e-10
5.9023e-10
6.01175e-10
6.11981e-10
6.22619e-10
6.33055e-10
6.43252e-10
6.53174e-10
6.62781e-10
6.72029e-10
6.80875e-10
6.89274e-10
6.97178e-10
7.04539e-10
7.11308e-10
7.17436e-10
7.22874e-10
7.27573e-10
7.31494e-10
7.34662e-10
7.36716e-10
7.37997e-10
7.38362e-10
7.3772e-10
7.36043e-10
7.33308e-10
7.29496e-10
7.24593e-10
7.18591e-10
7.11486e-10
7.03285e-10
6.93996e-10
6.83639e-10
6.72238e-10
6.59826e-10
6.46443e-10
6.32134e-10
6.16953e-10
6.00958e-10
5.84214e-10
5.66792e-10
5.48764e-10
5.3021e-10
5.11211e-10
4.91849e-10
4.72209e-10
4.52375e-10
4.32432e-10
4.12462e-10
3.92546e-10
3.72762e-10
3.53183e-10
3.33879e-10
3.14912e-10
2.96343e-10
2.78222e-10
2.60597e-10
2.43505e-10
2.26979e-10
2.11044e-10
1.95719e-10
1.81016e-10
1.66939e-10
1.53487e-10
1.40652e-10
1.28421e-10
1.16776e-10
1.05692e-10
9.5142e-11
8.50943e-11
7.5515e-11
6.63696e-11
5.76257e-11
4.92569e-11
4.12497e-11
3.36133e-11
2.63936e-11
1.96911e-11
1.36737e-11
8.5715e-12
4.62731e-12
1.98884e-12
5.8365e-13
7.80366e-14
4.59481e-16
1.245e-15
2.11078e-13
1.57894e-12
5.41463e-12
1.2767e-11
2.40805e-11
3.91654e-11
5.73879e-11
7.79209e-11
9.99434e-11
1.2275e-10
1.45791e-10
1.68662e-10
1.91089e-10
2.12893e-10
2.33971e-10
2.54274e-10
2.73791e-10
2.9254e-10
3.10557e-10
3.27889e-10
3.44595e-10
3.60736e-10
3.76377e-10
3.91582e-10
4.06415e-10
4.20935e-10
4.35201e-10
4.49265e-10
4.63176e-10
4.76978e-10
4.9071e-10
5.04404e-10
5.1809e-10
5.31792e-10
5.45528e-10
5.59314e-10
5.73161e-10
5.87075e-10
6.01059e-10
6.15114e-10
6.29236e-10
6.43418e-10
6.57651e-10
6.71922e-10
6.86216e-10
7.00513e-10
7.14795e-10
7.29035e-10
7.43207e-10
7.57282e-10
7.71226e-10
7.85005e-10
7.9858e-10
8.11909e-10
8.24948e-10
8.37651e-10
8.49967e-10
8.61844e-10
8.7323e-10
8.84066e-10
8.94297e-10
9.03861e-10
9.127e-10
9.20754e-10
9.27961e-10
9.34264e-10
9.39603e-10
9.43923e-10
9.47236e-10
9.49179e-10
9.50156e-10
9.49931e-10
9.48428e-10
9.45622e-10
9.41488e-10
9.36009e-10
9.29173e-10
9.20974e-10
9.11413e-10
9.00501e-10
8.88254e-10
8.74698e-10
8.59867e-10
8.43803e-10
8.26556e-10
8.08184e-10
7.88754e-10
7.68337e-10
7.47013e-10
7.24866e-10
7.01986e-10
6.78467e-10
6.54407e-10
6.29905e-10
6.05063e-10
5.79983e-10
5.54766e-10
5.29511e-10
5.04316e-10
4.79274e-10
4.54475e-10
4.30004e-10
4.05938e-10
3.82349e-10
3.59303e-10
3.36855e-10
3.15056e-10
2.93946e-10
2.73558e-10
2.53916e-10
2.35036e-10
2.16925e-10
1.99584e-10
1.83003e-10
1.67168e-10
1.52055e-10
1.37635e-10
1.23875e-10
1.10734e-10
9.81714e-11
8.61459e-11
7.46205e-11
6.35695e-11
5.29885e-11
4.29089e-11
3.34167e-11
2.4672e-11
1.69171e-11
1.04532e-11
5.55945e-12
2.35674e-12
6.84288e-13
9.09187e-14
5.34159e-16
1.44631e-15
2.45594e-13
1.84516e-12
6.37411e-12
1.51755e-11
2.894e-11
4.7601e-11
7.0494e-11
9.66266e-11
1.24936e-10
1.54459e-10
1.84409e-10
2.14194e-10
2.43398e-10
2.71748e-10
2.99081e-10
3.25319e-10
3.50443e-10
3.74475e-10
3.97467e-10
4.19489e-10
4.40625e-10
4.60963e-10
4.80597e-10
4.99617e-10
5.18114e-10
5.36172e-10
5.5387e-10
5.71282e-10
5.88474e-10
6.05506e-10
6.22429e-10
6.39288e-10
6.56121e-10
6.72959e-10
6.89827e-10
7.06743e-10
7.2372e-10
7.40766e-10
7.57885e-10
7.75074e-10
7.92327e-10
8.09635e-10
8.26984e-10
8.44355e-10
8.61728e-10
8.79077e-10
8.96374e-10
9.13586e-10
9.30678e-10
9.4761e-10
9.64341e-10
9.80825e-10
9.97011e-10
1.01285e-09
1.02828e-09
1.04325e-09
1.05769e-09
1.07155e-09
1.08475e-09
1.09723e-09
1.10892e-09
1.11975e-09
1.12965e-09
1.13855e-09
1.14638e-09
1.15309e-09
1.15859e-09
1.16284e-09
1.16574e-09
1.16713e-09
1.16735e-09
1.16605e-09
1.16322e-09
1.15884e-09
1.15287e-09
1.14532e-09
1.13616e-09
1.1254e-09
1.11305e-09
1.09913e-09
1.08366e-09
1.06667e-09
1.0482e-09
1.02832e-09
1.00707e-09
9.84535e-10
9.60784e-10
9.35904e-10
9.09985e-10
8.83126e-10
8.5543e-10
8.27004e-10
7.97959e-10
7.6841e-10
7.38471e-10
7.08258e-10
6.77888e-10
6.47473e-10
6.17124e-10
5.8695e-10
5.57051e-10
5.27527e-10
4.98466e-10
4.69953e-10
4.42063e-10
4.14863e-10
3.88411e-10
3.62756e-10
3.37937e-10
3.13984e-10
2.90917e-10
2.68746e-10
2.47472e-10
2.27087e-10
2.07572e-10
1.88901e-10
1.71042e-10
1.53952e-10
1.37588e-10
1.21901e-10
1.06845e-10
9.23817e-11
7.84905e-11
6.51823e-11
5.25186e-11
4.06344e-11
2.97576e-11
2.02084e-11
1.23542e-11
6.50018e-12
2.72907e-12
7.86663e-13
1.04081e-13
6.10601e-16
1.65967e-15
2.82156e-13
2.12666e-12
7.38607e-12
1.77108e-11
3.40533e-11
5.64899e-11
8.43456e-11
1.16471e-10
1.51556e-10
1.88355e-10
2.2582e-10
2.63139e-10
2.9973e-10
3.35205e-10
3.69331e-10
4.01993e-10
4.33161e-10
4.62862e-10
4.91168e-10
5.18175e-10
5.43997e-10
5.68755e-10
5.92575e-10
6.1558e-10
6.3789e-10
6.59617e-10
6.80866e-10
7.01733e-10
7.22304e-10
7.42654e-10
7.62849e-10
7.82947e-10
8.02993e-10
8.23026e-10
8.43074e-10
8.63161e-10
8.83299e-10
9.03497e-10
9.23756e-10
9.44072e-10
9.64435e-10
9.84829e-10
1.00524e-09
1.02563e-09
1.04598e-09
1.06626e-09
1.08643e-09
1.10644e-09
1.12626e-09
1.14582e-09
1.16509e-09
1.184e-09
1.20249e-09
1.22049e-09
1.23795e-09
1.25479e-09
1.27094e-09
1.28633e-09
1.30088e-09
1.31452e-09
1.32716e-09
1.33873e-09
1.34915e-09
1.35836e-09
1.36627e-09
1.37281e-09
1.37793e-09
1.38155e-09
1.38347e-09
1.38381e-09
1.38279e-09
1.37994e-09
1.37532e-09
1.36892e-09
1.36072e-09
1.35072e-09
1.33891e-09
1.32531e-09
1.30992e-09
1.29277e-09
1.2739e-09
1.25335e-09
1.23116e-09
1.20741e-09
1.18215e-09
1.15548e-09
1.12747e-09
1.09823e-09
1.06784e-09
1.03643e-09
1.0041e-09
9.70979e-10
9.37178e-10
9.02827e-10
8.6805e-10
8.32976e-10
7.97731e-10
7.62439e-10
7.27221e-10
6.92197e-10
6.5748e-10
6.23176e-10
5.89386e-10
5.56203e-10
5.23711e-10
4.91986e-10
4.61093e-10
4.31087e-10
4.02014e-10
3.73907e-10
3.46791e-10
3.20678e-10
2.95569e-10
2.71457e-10
2.4832e-10
2.26131e-10
2.04852e-10
1.84437e-10
1.64835e-10
1.45993e-10
1.27864e-10
1.1041e-10
9.36201e-11
7.75246e-11
6.22217e-11
4.79013e-11
3.48632e-11
2.35056e-11
1.42582e-11
7.44435e-12
3.10443e-12
8.90414e-13
1.17474e-13
6.88494e-16
1.88546e-15
3.20832e-13
2.4241e-12
8.45343e-12
2.03799e-11
3.94307e-11
6.58374e-11
9.89236e-11
1.37388e-10
1.79663e-10
2.24206e-10
2.69683e-10
3.15038e-10
3.59503e-10
4.02562e-10
4.439e-10
4.83362e-10
5.20903e-10
5.56561e-10
5.90427e-10
6.22629e-10
6.53315e-10
6.82643e-10
7.10776e-10
7.37873e-10
7.64087e-10
7.8956e-10
8.14424e-10
8.388e-10
8.62794e-10
8.86498e-10
9.09994e-10
9.33348e-10
9.56616e-10
9.79842e-10
1.00306e-09
1.02629e-09
1.04955e-09
1.07284e-09
1.09617e-09
1.11952e-09
1.14288e-09
1.16623e-09
1.18954e-09
1.21278e-09
1.23591e-09
1.25889e-09
1.28166e-09
1.30419e-09
1.32642e-09
1.34827e-09
1.3697e-09
1.39063e-09
1.41099e-09
1.43071e-09
1.44972e-09
1.46792e-09
1.48525e-09
1.50163e-09
1.51696e-09
1.53117e-09
1.54417e-09
1.55589e-09
1.56624e-09
1.57515e-09
1.58254e-09
1.58835e-09
1.5925e-09
1.59494e-09
1.59535e-09
1.59411e-09
1.59143e-09
1.58658e-09
1.57975e-09
1.57096e-09
1.5602e-09
1.54746e-09
1.53275e-09
1.51609e-09
1.49751e-09
1.47703e-09
1.45469e-09
1.43054e-09
1.40466e-09
1.37709e-09
1.34793e-09
1.31726e-09
1.28516e-09
1.25176e-09
1.21715e-09
1.18144e-09
1.14477e-09
1.10725e-09
1.06902e-09
1.03021e-09
9.90951e-10
9.51378e-10
9.11627e-10
8.7183e-10
8.32118e-10
7.92617e-10
7.53448e-10
7.14727e-10
6.76561e-10
6.39052e-10
6.0229e-10
5.66357e-10
5.31325e-10
4.97256e-10
4.64197e-10
4.32188e-10
4.01255e-10
3.71412e-10
3.42661e-10
3.14994e-10
2.88389e-10
2.62814e-10
2.38228e-10
2.14581e-10
1.91818e-10
1.69882e-10
1.48725e-10
1.28314e-10
1.08648e-10
8.97818e-11
7.18541e-11
5.51124e-11
3.99295e-11
2.67807e-11
1.61542e-11
8.38842e-12
3.4818e-12
9.95265e-13
1.31056e-13
7.67602e-16
2.12406e-15
3.61696e-13
2.73818e-12
9.57912e-12
2.31907e-11
4.50862e-11
7.56604e-11
1.14237e-10
1.59361e-10
2.09196e-10
2.61887e-10
3.15791e-10
3.69593e-10
4.22323e-10
4.73325e-10
5.22199e-10
5.68742e-10
6.129e-10
6.54719e-10
6.94316e-10
7.31853e-10
7.67517e-10
8.01507e-10
8.34025e-10
8.65269e-10
8.95428e-10
9.24677e-10
9.53177e-10
9.81071e-10
1.00849e-09
1.03554e-09
1.06231e-09
1.08889e-09
1.11534e-09
1.1417e-09
1.16801e-09
1.1943e-09
1.22058e-09
1.24684e-09
1.27309e-09
1.29931e-09
1.32548e-09
1.35157e-09
1.37754e-09
1.40335e-09
1.42896e-09
1.45431e-09
1.47934e-09
1.504e-09
1.52822e-09
1.55192e-09
1.57504e-09
1.5975e-09
1.61922e-09
1.64011e-09
1.6601e-09
1.67909e-09
1.69701e-09
1.71376e-09
1.72926e-09
1.74342e-09
1.75617e-09
1.76741e-09
1.77708e-09
1.78509e-09
1.79138e-09
1.79588e-09
1.79853e-09
1.79927e-09
1.79769e-09
1.79444e-09
1.78965e-09
1.78247e-09
1.77311e-09
1.76163e-09
1.74805e-09
1.73238e-09
1.71462e-09
1.69481e-09
1.67297e-09
1.64913e-09
1.62336e-09
1.5957e-09
1.56622e-09
1.535e-09
1.50211e-09
1.46766e-09
1.43174e-09
1.39446e-09
1.35593e-09
1.31627e-09
1.2756e-09
1.23406e-09
1.19179e-09
1.14891e-09
1.10557e-09
1.06191e-09
1.01806e-09
9.74179e-10
9.30385e-10
8.86818e-10
8.43603e-10
8.00863e-10
7.58712e-10
7.17257e-10
6.76594e-10
6.3681e-10
5.97983e-10
5.60177e-10
5.23447e-10
4.87832e-10
4.53362e-10
4.20052e-10
3.87905e-10
3.56911e-10
3.27047e-10
2.98278e-10
2.7056e-10
2.43838e-10
2.18054e-10
1.9315e-10
1.69075e-10
1.45803e-10
1.23346e-10
1.01786e-10
8.12999e-11
6.21953e-11
4.4917e-11
3.00152e-11
1.80352e-11
9.33018e-12
3.86048e-12
1.10102e-12
1.44802e-13
8.47763e-16
2.37589e-15
4.04825e-13
3.06956e-12
1.0766e-11
2.61511e-11
5.10353e-11
8.59814e-11
1.3031e-10
1.82404e-10
2.40145e-10
3.01344e-10
3.64036e-10
4.2663e-10
4.87943e-10
5.47171e-10
6.03826e-10
6.57659e-10
7.08606e-10
7.56726e-10
8.02165e-10
8.4512e-10
8.85823e-10
9.24517e-10
9.61447e-10
9.96852e-10
1.03096e-09
1.06397e-09
1.09608e-09
1.12747e-09
1.15826e-09
1.1886e-09
1.21859e-09
1.24832e-09
1.27785e-09
1.30724e-09
1.33652e-09
1.36572e-09
1.39484e-09
1.42389e-09
1.45285e-09
1.4817e-09
1.5104e-09
1.53894e-09
1.56725e-09
1.59528e-09
1.62299e-09
1.65031e-09
1.67716e-09
1.70349e-09
1.72922e-09
1.75426e-09
1.77853e-09
1.80196e-09
1.82445e-09
1.84592e-09
1.86628e-09
1.88544e-09
1.90332e-09
1.91981e-09
1.93485e-09
1.94835e-09
1.96022e-09
1.97039e-09
1.97879e-09
1.98535e-09
1.99e-09
1.99268e-09
1.99335e-09
1.99191e-09
1.98792e-09
1.98241e-09
1.97503e-09
1.96535e-09
1.95319e-09
1.93884e-09
1.9223e-09
1.90359e-09
1.88273e-09
1.85974e-09
1.83468e-09
1.80757e-09
1.77847e-09
1.74745e-09
1.71458e-09
1.67993e-09
1.64359e-09
1.60565e-09
1.56621e-09
1.52539e-09
1.4833e-09
1.44006e-09
1.3958e-09
1.35064e-09
1.30474e-09
1.25821e-09
1.21122e-09
1.1639e-09
1.11639e-09
1.06885e-09
1.02139e-09
9.74179e-10
9.27329e-10
8.80973e-10
8.3523e-10
7.90212e-10
7.46019e-10
7.02745e-10
6.60471e-10
6.19265e-10
5.79184e-10
5.40272e-10
5.0256e-10
4.66064e-10
4.30786e-10
3.96716e-10
3.63829e-10
3.32089e-10
3.01446e-10
2.71843e-10
2.43219e-10
2.15511e-10
1.88673e-10
1.62681e-10
1.37562e-10
1.13423e-10
9.04825e-11
6.91033e-11
4.9801e-11
3.31984e-11
1.98971e-11
1.02684e-11
4.24011e-12
1.20759e-12
1.58697e-13
9.28889e-16
2.64135e-15
4.50293e-13
3.41892e-12
1.20168e-11
2.92685e-11
5.72934e-11
9.6825e-11
1.47173e-10
2.06548e-10
2.72526e-10
3.4257e-10
4.14374e-10
4.86056e-10
5.56216e-10
6.23898e-10
6.88521e-10
7.49796e-10
8.0765e-10
8.62158e-10
9.13498e-10
9.6191e-10
1.00767e-09
1.05107e-09
1.0924e-09
1.13194e-09
1.16995e-09
1.20668e-09
1.24235e-09
1.27714e-09
1.31124e-09
1.34477e-09
1.37787e-09
1.41061e-09
1.44308e-09
1.47533e-09
1.5074e-09
1.5393e-09
1.57105e-09
1.60262e-09
1.63401e-09
1.66518e-09
1.6961e-09
1.72672e-09
1.75698e-09
1.78682e-09
1.81619e-09
1.845e-09
1.87318e-09
1.90066e-09
1.92735e-09
1.95316e-09
1.97801e-09
2.00181e-09
2.02447e-09
2.04589e-09
2.066e-09
2.0847e-09
2.10191e-09
2.11754e-09
2.1315e-09
2.14374e-09
2.15416e-09
2.1627e-09
2.16929e-09
2.17389e-09
2.17643e-09
2.17687e-09
2.17518e-09
2.17108e-09
2.16452e-09
2.15646e-09
2.14618e-09
2.13383e-09
2.11875e-09
2.10142e-09
2.08187e-09
2.06011e-09
2.03618e-09
2.01011e-09
1.98193e-09
1.95171e-09
1.91949e-09
1.88533e-09
1.84932e-09
1.81153e-09
1.77204e-09
1.73095e-09
1.68836e-09
1.64438e-09
1.59912e-09
1.55271e-09
1.50526e-09
1.45692e-09
1.40781e-09
1.35808e-09
1.30786e-09
1.25731e-09
1.20657e-09
1.15578e-09
1.10508e-09
1.05462e-09
1.00454e-09
9.54951e-10
9.05993e-10
8.57777e-10
8.1041e-10
7.63989e-10
7.18598e-10
6.74312e-10
6.31189e-10
5.89277e-10
5.48608e-10
5.09199e-10
4.71053e-10
4.34159e-10
3.98491e-10
3.64008e-10
3.3066e-10
2.98386e-10
2.67119e-10
2.36797e-10
2.07372e-10
1.78827e-10
1.51202e-10
1.24626e-10
9.93565e-11
7.58097e-11
5.45682e-11
3.63248e-11
2.17384e-11
1.12028e-11
4.62065e-12
1.31495e-12
1.72738e-13
1.01096e-15
2.92086e-15
4.98172e-13
3.78687e-12
1.3334e-11
3.25499e-11
6.38751e-11
1.08215e-10
1.64859e-10
2.31828e-10
3.06373e-10
3.85582e-10
4.66796e-10
5.47832e-10
6.27063e-10
7.03382e-10
7.76118e-10
8.44942e-10
9.09776e-10
9.70717e-10
1.02798e-09
1.08185e-09
1.13264e-09
1.18071e-09
1.22639e-09
1.27e-09
1.31185e-09
1.35221e-09
1.39133e-09
1.42943e-09
1.4667e-09
1.50329e-09
1.53933e-09
1.57492e-09
1.61014e-09
1.64504e-09
1.67965e-09
1.714e-09
1.74808e-09
1.78187e-09
1.81535e-09
1.84848e-09
1.88121e-09
1.9135e-09
1.94526e-09
1.97645e-09
2.00697e-09
2.03676e-09
2.06573e-09
2.0938e-09
2.12087e-09
2.14686e-09
2.17168e-09
2.19523e-09
2.21744e-09
2.23821e-09
2.25745e-09
2.27508e-09
2.29102e-09
2.30519e-09
2.31752e-09
2.32794e-09
2.33639e-09
2.34281e-09
2.34715e-09
2.34936e-09
2.3494e-09
2.34724e-09
2.34285e-09
2.3358e-09
2.32665e-09
2.31574e-09
2.30246e-09
2.28715e-09
2.26928e-09
2.24895e-09
2.22641e-09
2.20168e-09
2.17479e-09
2.14578e-09
2.11469e-09
2.08157e-09
2.04647e-09
2.00947e-09
1.97062e-09
1.93002e-09
1.88774e-09
1.84387e-09
1.79852e-09
1.75178e-09
1.70376e-09
1.65459e-09
1.60439e-09
1.55328e-09
1.5014e-09
1.44888e-09
1.39587e-09
1.3425e-09
1.28893e-09
1.23531e-09
1.18176e-09
1.12844e-09
1.07549e-09
1.02304e-09
9.71212e-10
9.20136e-10
8.69921e-10
8.20666e-10
7.72462e-10
7.25387e-10
6.79504e-10
6.34863e-10
5.91498e-10
5.49429e-10
5.08661e-10
4.69179e-10
4.30958e-10
3.93956e-10
3.58118e-10
3.23379e-10
2.89671e-10
2.56929e-10
2.25104e-10
1.94184e-10
1.6422e-10
1.35362e-10
1.07901e-10
8.23037e-11
5.92142e-11
3.93938e-11
2.35597e-11
1.2134e-11
5.00238e-12
1.42319e-12
1.86936e-13
1.09404e-15
3.21478e-15
5.48531e-13
4.17397e-12
1.472e-11
3.60018e-11
7.07935e-11
1.20174e-10
1.834e-10
2.58281e-10
3.41719e-10
4.30408e-10
5.21313e-10
6.11944e-10
7.00443e-10
7.8555e-10
8.66509e-10
9.42953e-10
1.01481e-09
1.08219e-09
1.14536e-09
1.20465e-09
1.26043e-09
1.3131e-09
1.36304e-09
1.41062e-09
1.45619e-09
1.50006e-09
1.5425e-09
1.58376e-09
1.62403e-09
1.66349e-09
1.70228e-09
1.74049e-09
1.77822e-09
1.8155e-09
1.85238e-09
1.88886e-09
1.92493e-09
1.96057e-09
1.99575e-09
2.03043e-09
2.06454e-09
2.09802e-09
2.1308e-09
2.16281e-09
2.19396e-09
2.22418e-09
2.25336e-09
2.28143e-09
2.30829e-09
2.33386e-09
2.35805e-09
2.38076e-09
2.40191e-09
2.42142e-09
2.4392e-09
2.4552e-09
2.46932e-09
2.4815e-09
2.49169e-09
2.49983e-09
2.50587e-09
2.50975e-09
2.51146e-09
2.51094e-09
2.50819e-09
2.50316e-09
2.49582e-09
2.48568e-09
2.47389e-09
2.45998e-09
2.4437e-09
2.42533e-09
2.40474e-09
2.38149e-09
2.35608e-09
2.32852e-09
2.29886e-09
2.26713e-09
2.23336e-09
2.19762e-09
2.15994e-09
2.12041e-09
2.07908e-09
2.03602e-09
1.99132e-09
1.94507e-09
1.89734e-09
1.84826e-09
1.7979e-09
1.7464e-09
1.69386e-09
1.6404e-09
1.58617e-09
1.53128e-09
1.47587e-09
1.4201e-09
1.36409e-09
1.308e-09
1.25198e-09
1.19616e-09
1.14068e-09
1.08569e-09
1.03132e-09
9.77686e-10
9.24912e-10
8.73104e-10
8.22355e-10
7.72748e-10
7.24352e-10
6.77221e-10
6.31392e-10
5.86887e-10
5.43712e-10
5.01855e-10
4.61288e-10
4.21969e-10
3.83839e-10
3.46831e-10
3.10874e-10
2.759e-10
2.4186e-10
2.08743e-10
1.7661e-10
1.45627e-10
1.16116e-10
8.85867e-11
6.37419e-11
4.24085e-11
2.53634e-11
1.30634e-11
5.38589e-12
1.53245e-12
2.01309e-13
1.17823e-15
3.52344e-15
6.01427e-13
4.58075e-12
1.61768e-11
3.96297e-11
7.80604e-11
1.32722e-10
2.02823e-10
2.85942e-10
3.786e-10
4.77075e-10
5.77942e-10
6.7839e-10
7.7633e-10
8.70351e-10
9.59614e-10
1.04372e-09
1.1226e-09
1.19641e-09
1.26544e-09
1.33008e-09
1.39076e-09
1.44792e-09
1.50201e-09
1.55344e-09
1.60259e-09
1.6498e-09
1.69539e-09
1.73961e-09
1.78268e-09
1.82479e-09
1.86608e-09
1.90665e-09
1.94659e-09
1.98595e-09
2.02475e-09
2.063e-09