/*--------------------------------*- C++ -*----------------------------------*\
  =========                 |
  \\      /  F ield         | OpenFOAM: The Open Source CFD Toolbox
   \\    /   O peration     | Website:  https://openfoam.org
    \\  /    A nd           | Version:  12
     \\/     M anipulation  |
\*---------------------------------------------------------------------------*/
FoamFile
{
    format      ascii;
    class       surfaceScalarField;
    location    "9.5";
    object      phi;
}
// * * * * * * * * * * * * * * * * * * * * * * * * * * * * * * * * * * * * * //

dimensions      [0 3 -1 0 0 0 0];

internalField   nonuniform List<scalar> 
36180
(
3.24945e-11
-3.2529e-11
1.6433e-10
-1.31838e-10
3.67006e-10
-2.02678e-10
6.01754e-10
-2.34749e-10
8.38175e-10
-2.36423e-10
1.05447e-09
-2.16298e-10
1.23572e-09
-1.81246e-10
1.37219e-09
-1.36476e-10
1.45801e-09
-8.58219e-11
1.49005e-09
-3.20319e-11
1.46709e-09
2.29576e-11
1.38926e-09
7.78284e-11
1.25756e-09
1.31701e-10
1.07351e-09
1.84043e-10
8.38943e-10
2.34571e-10
5.55757e-10
2.83185e-10
2.25838e-10
3.29919e-10
-1.49056e-10
3.74893e-10
-5.67353e-10
4.18297e-10
-1.0277e-09
4.60348e-10
-1.52898e-09
5.01274e-10
-2.07027e-09
5.41294e-10
-2.65089e-09
5.80615e-10
-3.27031e-09
6.19424e-10
-3.92819e-09
6.57877e-10
-4.62428e-09
6.96096e-10
-5.35845e-09
7.34164e-10
-6.13058e-09
7.72128e-10
-6.94057e-09
8.09996e-10
-7.78831e-09
8.47738e-10
-8.6736e-09
8.8529e-10
-9.59616e-09
9.22551e-10
-1.05555e-08
9.59392e-10
-1.15512e-08
9.9565e-10
-1.25823e-08
1.03114e-09
-1.3648e-08
1.06564e-09
-1.47469e-08
1.09893e-09
-1.58776e-08
1.13074e-09
-1.70384e-08
1.1608e-09
-1.82273e-08
1.18882e-09
-1.94418e-08
1.2145e-09
-2.06793e-08
1.23753e-09
-2.19369e-08
1.25758e-09
-2.32112e-08
1.27433e-09
-2.44987e-08
1.28745e-09
-2.57953e-08
1.29661e-09
-2.70968e-08
1.30149e-09
-2.83985e-08
1.30175e-09
-2.96956e-08
1.29709e-09
-3.09828e-08
1.28722e-09
-3.22547e-08
1.27184e-09
-3.35054e-08
1.25071e-09
-3.47289e-08
1.22357e-09
-3.59192e-08
1.19022e-09
-3.70696e-08
1.15048e-09
-3.81739e-08
1.10422e-09
-3.92252e-08
1.05132e-09
-4.02169e-08
9.91741e-10
-4.11424e-08
9.25461e-10
-4.19949e-08
8.52523e-10
-4.27679e-08
7.73022e-10
-4.34551e-08
6.8711e-10
-4.405e-08
5.94997e-10
-4.4547e-08
4.96952e-10
-4.49403e-08
3.93295e-10
-4.52247e-08
2.84384e-10
-4.53953e-08
1.70646e-10
-4.54486e-08
5.3224e-11
-4.53801e-08
-6.84185e-11
-4.51873e-08
-1.92867e-10
-4.48676e-08
-3.19621e-10
-4.44197e-08
-4.47932e-10
-4.38427e-08
-5.77006e-10
-4.31367e-08
-7.06007e-10
-4.23026e-08
-8.34068e-10
-4.13423e-08
-9.60294e-10
-4.02586e-08
-1.08377e-09
-3.9055e-08
-1.20358e-09
-3.77362e-08
-1.31879e-09
-3.63077e-08
-1.4285e-09
-3.47759e-08
-1.5318e-09
-3.3148e-08
-1.62786e-09
-3.14322e-08
-1.71583e-09
-2.96372e-08
-1.79497e-09
-2.77727e-08
-1.86456e-09
-2.58487e-08
-1.92399e-09
-2.3876e-08
-1.97271e-09
-2.18657e-08
-2.01027e-09
-1.98294e-08
-2.0363e-09
-1.77788e-08
-2.05057e-09
-1.57259e-08
-2.05294e-09
-1.36825e-08
-2.04338e-09
-1.16605e-08
-2.02199e-09
-9.67157e-09
-1.98896e-09
-7.72696e-09
-1.94461e-09
-5.83758e-09
-1.88938e-09
-4.01379e-09
-1.8238e-09
-2.2653e-09
-1.74849e-09
-6.01123e-10
-1.66417e-09
9.70526e-10
-1.57165e-09
2.4423e-09
-1.47178e-09
3.80778e-09
-1.36548e-09
5.06147e-09
-1.25369e-09
6.19887e-09
-1.13741e-09
7.21653e-09
-1.01766e-09
8.11197e-09
-8.95439e-10
8.8837e-09
-7.71728e-10
9.53119e-09
-6.47496e-10
1.00549e-08
-5.23681e-10
1.04561e-08
-4.01178e-10
1.07369e-08
-2.8083e-10
1.09003e-08
-1.6343e-10
1.095e-08
-4.97177e-11
1.08904e-08
5.96492e-11
1.07264e-08
1.63991e-10
1.04636e-08
2.62795e-10
1.01081e-08
3.55468e-10
9.66666e-09
4.41462e-10
9.14643e-09
5.20228e-10
8.55525e-09
5.91182e-10
7.90158e-09
6.53673e-10
7.19463e-09
7.06946e-10
6.44454e-09
7.50091e-10
5.66255e-09
7.81992e-10
4.86128e-09
8.01267e-10
4.05508e-09
8.06202e-10
3.2604e-09
7.94684e-10
2.49624e-09
7.64152e-10
1.78464e-09
7.116e-10
1.15091e-09
6.33736e-10
6.23393e-10
5.27516e-10
2.3195e-10
3.91443e-10
3.15391e-12
2.28796e-10
-5.52504e-11
5.84042e-11
-5.52504e-11
1.32486e-10
-1.65015e-10
4.6346e-10
-4.62814e-10
9.21175e-10
-6.60394e-10
1.43283e-09
-7.46408e-10
1.9362e-09
-7.3979e-10
2.38289e-09
-6.62986e-10
2.73732e-09
-5.35685e-10
2.97465e-09
-3.73804e-10
3.07852e-09
-1.89693e-10
3.03914e-09
7.35105e-12
2.85155e-09
2.10548e-10
2.51436e-09
4.15015e-10
2.02865e-09
6.17414e-10
1.39712e-09
8.15575e-10
6.23453e-10
1.00823e-09
-2.88172e-10
1.19481e-09
-1.33348e-09
1.37523e-09
-2.50836e-09
1.54976e-09
-3.80896e-09
1.7189e-09
-5.23187e-09
1.88326e-09
-6.77413e-09
2.04353e-09
-8.43328e-09
2.20044e-09
-1.02073e-08
2.35465e-09
-1.20946e-08
2.50675e-09
-1.4094e-08
2.65724e-09
-1.62044e-08
2.80649e-09
-1.8425e-08
2.95474e-09
-2.07549e-08
3.1021e-09
-2.31935e-08
3.24855e-09
-2.57397e-08
3.39393e-09
-2.83924e-08
3.53795e-09
-3.115e-08
3.68018e-09
-3.40107e-08
3.82011e-09
-3.69722e-08
3.9571e-09
-4.00314e-08
4.09039e-09
-4.3185e-08
4.21917e-09
-4.64286e-08
4.34253e-09
-4.97573e-08
4.45947e-09
-5.31654e-08
4.56896e-09
-5.66465e-08
4.66989e-09
-6.01931e-08
4.76111e-09
-6.37971e-08
4.84147e-09
-6.74492e-08
4.90974e-09
-7.11396e-08
4.96472e-09
-7.48573e-08
5.00518e-09
-7.85907e-08
5.02992e-09
-8.23269e-08
5.03775e-09
-8.60527e-08
5.02751e-09
-8.97537e-08
4.99807e-09
-9.34148e-08
4.9484e-09
-9.70205e-08
4.8775e-09
-1.00554e-07
4.78447e-09
-1.03999e-07
4.66851e-09
-1.07338e-07
4.52894e-09
-1.10553e-07
4.36519e-09
-1.13625e-07
4.17685e-09
-1.16538e-07
3.96365e-09
-1.19271e-07
3.72549e-09
-1.21808e-07
3.46247e-09
-1.24131e-07
3.17485e-09
-1.26221e-07
2.8631e-09
-1.28062e-07
2.52791e-09
-1.29637e-07
2.17017e-09
-1.30931e-07
1.791e-09
-1.31929e-07
1.39173e-09
-1.32619e-07
9.73844e-10
-1.32987e-07
5.39012e-10
-1.33024e-07
9.02602e-11
-1.32721e-07
-3.71567e-10
-1.3207e-07
-8.43474e-10
-1.31067e-07
-1.32286e-09
-1.29708e-07
-1.80694e-09
-1.27992e-07
-2.29279e-09
-1.25921e-07
-2.77736e-09
-1.23498e-07
-3.25745e-09
-1.20728e-07
-3.72981e-09
-1.17621e-07
-4.19113e-09
-1.14186e-07
-4.63808e-09
-1.10438e-07
-5.06732e-09
-1.06391e-07
-5.47559e-09
-1.02063e-07
-5.85969e-09
-9.7474e-08
-6.21654e-09
-9.26466e-08
-6.54325e-09
-8.76045e-08
-6.83708e-09
-8.23735e-08
-7.09554e-09
-7.69811e-08
-7.3164e-09
-7.1456e-08
-7.49775e-09
-6.58283e-08
-7.63796e-09
-6.01288e-08
-7.73579e-09
-5.43891e-08
-7.79036e-09
-4.86409e-08
-7.80115e-09
-4.29161e-08
-7.76809e-09
-3.72466e-08
-7.69148e-09
-3.16636e-08
-7.57203e-09
-2.61973e-08
-7.41087e-09
-2.08772e-08
-7.20949e-09
-1.57312e-08
-6.96978e-09
-1.07858e-08
-6.69395e-09
-6.06539e-09
-6.38455e-09
-1.59264e-09
-6.0444e-09
2.61217e-09
-5.67658e-09
6.53106e-09
-5.28437e-09
1.01486e-08
-4.8712e-09
1.34518e-08
-4.44064e-09
1.64305e-08
-3.99632e-09
1.90769e-08
-3.54187e-09
2.13861e-08
-3.08093e-09
2.33557e-08
-2.61706e-09
2.49857e-08
-2.15373e-09
2.62788e-08
-1.6943e-09
2.72399e-08
-1.24194e-09
2.78762e-08
-7.9967e-10
2.81968e-08
-3.70331e-10
2.8213e-08
4.34258e-11
2.7938e-08
4.39035e-10
2.73865e-08
8.14283e-10
2.65751e-08
1.16683e-09
2.55222e-08
1.49441e-09
2.42476e-08
1.79479e-09
2.27732e-08
2.06558e-09
2.11227e-08
2.3042e-09
1.93219e-08
2.5077e-09
1.73993e-08
2.67266e-09
1.53863e-08
2.79504e-09
1.33176e-08
2.86998e-09
1.1232e-08
2.89174e-09
9.17321e-09
2.85352e-09
7.18984e-09
2.74752e-09
5.3362e-09
2.56524e-09
3.67168e-09
2.29826e-09
2.25887e-09
1.94032e-09
1.15881e-09
1.4915e-09
4.20471e-10
9.67136e-10
5.85161e-11
4.20359e-10
3.26563e-12
2.04784e-10
-3.69799e-10
6.64397e-10
-9.22426e-10
1.26345e-09
-1.25945e-09
1.90755e-09
-1.39051e-09
2.51771e-09
-1.34995e-09
3.03072e-09
-1.176e-09
3.39832e-09
-9.0328e-10
3.58534e-09
-5.60826e-10
3.56754e-09
-1.71899e-10
3.32945e-09
2.45447e-10
2.86242e-09
6.77576e-10
2.16294e-09
1.1145e-09
1.23119e-09
1.54916e-09
6.98974e-11
1.97686e-09
-1.31657e-09
2.3947e-09
-2.92291e-09
2.80115e-09
-4.74342e-09
3.19574e-09
-6.77241e-09
3.57875e-09
-9.00448e-09
3.95097e-09
-1.14347e-08
4.31351e-09
-1.40588e-08
4.66763e-09
-1.6873e-08
5.01464e-09
-1.98741e-08
5.35576e-09
-2.30595e-08
5.6921e-09
-2.64268e-08
6.02455e-09
-2.99741e-08
6.35376e-09
-3.36995e-08
6.68014e-09
-3.76012e-08
7.00381e-09
-4.16772e-08
7.3246e-09
-4.59254e-08
7.64209e-09
-5.0343e-08
7.95556e-09
-5.49269e-08
8.26405e-09
-5.96731e-08
8.56635e-09
-6.4577e-08
8.86101e-09
-6.9633e-08
9.14641e-09
-7.48346e-08
9.4207e-09
-8.01739e-08
9.68189e-09
-8.56423e-08
9.92782e-09
-9.12296e-08
1.01562e-08
-9.69244e-08
1.03647e-08
-1.02714e-07
1.05509e-08
-1.08585e-07
1.07121e-08
-1.14521e-07
1.08459e-08
-1.20506e-07
1.09496e-08
-1.26521e-07
1.10207e-08
-1.32548e-07
1.10567e-08
-1.38565e-07
1.1055e-08
-1.44551e-07
1.10133e-08
-1.50482e-07
1.09293e-08
-1.56335e-07
1.08008e-08
-1.62083e-07
1.06258e-08
-1.67701e-07
1.04027e-08
-1.73162e-07
1.01298e-08
-1.78439e-07
9.80577e-09
-1.83504e-07
9.42971e-09
-1.88328e-07
9.00088e-09
-1.92883e-07
8.5189e-09
-1.97141e-07
7.98379e-09
-2.01075e-07
7.39592e-09
-2.04656e-07
6.7561e-09
-2.07858e-07
6.06553e-09
-2.10656e-07
5.32586e-09
-2.13025e-07
4.53921e-09
-2.14943e-07
3.70813e-09
-2.16386e-07
2.83561e-09
-2.17338e-07
1.92509e-09
-2.17779e-07
9.8054e-10
-2.17696e-07
6.74421e-12
-2.17075e-07
-9.9215e-10
-2.15908e-07
-2.0107e-09
-2.14187e-07
-3.04336e-09
-2.1191e-07
-4.0842e-09
-2.09076e-07
-5.12702e-09
-2.05688e-07
-6.16538e-09
-2.01753e-07
-7.1926e-09
-1.97281e-07
-8.2019e-09
-1.92285e-07
-9.18637e-09
-1.86784e-07
-1.01391e-08
-1.80799e-07
-1.10532e-08
-1.74352e-07
-1.19219e-08
-1.67473e-07
-1.27387e-08
-1.60193e-07
-1.34971e-08
-1.52545e-07
-1.41913e-08
-1.44566e-07
-1.48157e-08
-1.36296e-07
-1.53651e-08
-1.27778e-07
-1.5835e-08
-1.19054e-07
-1.62214e-08
-1.10171e-07
-1.65211e-08
-1.01175e-07
-1.67314e-08
-9.21151e-08
-1.68506e-08
-8.30386e-08
-1.68776e-08
-7.39945e-08
-1.68122e-08
-6.5031e-08
-1.6655e-08
-5.61955e-08
-1.64075e-08
-4.75346e-08
-1.60718e-08
-3.90931e-08
-1.5651e-08
-3.09138e-08
-1.5149e-08
-2.30374e-08
-1.45703e-08
-1.55019e-08
-1.39201e-08
-8.34229e-09
-1.3204e-08
-1.59033e-09
-1.24285e-08
4.72566e-09
-1.16004e-08
1.0581e-08
-1.07266e-08
1.59549e-08
-9.81454e-09
2.08304e-08
-8.87181e-09
2.51945e-08
-7.906e-09
2.90383e-08
-6.92472e-09
3.23568e-08
-5.93549e-09
3.51487e-08
-4.94568e-09
3.74168e-08
-3.96241e-09
3.91674e-08
-2.99253e-09
4.04103e-08
-2.04259e-09
4.11588e-08
-1.11877e-09
4.14292e-08
-2.26965e-10
4.12409e-08
6.27272e-10
4.06165e-08
1.43868e-09
3.95812e-08
2.20213e-09
3.81631e-08
2.91253e-09
3.63931e-08
3.56478e-09
3.43052e-08
4.15352e-09
3.19364e-08
4.67302e-09
2.93272e-08
5.11691e-09
2.65219e-08
5.47795e-09
2.35691e-08
5.74777e-09
2.05224e-08
5.9167e-09
1.74406e-08
5.97352e-09
1.43887e-08
5.90551e-09
1.14375e-08
5.69868e-09
8.66418e-09
5.33856e-09
6.15037e-09
4.81206e-09
3.97948e-09
4.11122e-09
2.23072e-09
3.24026e-09
9.69098e-10
2.22876e-09
2.29517e-10
1.15994e-09
2.32783e-10
2.3838e-10
-6.08178e-10
7.52887e-10
-1.43693e-09
1.39653e-09
-1.90309e-09
2.05766e-09
-2.05164e-09
2.64652e-09
-1.93882e-09
3.09148e-09
-1.62096e-09
3.33706e-09
-1.14887e-09
3.34195e-09
-5.65715e-10
3.07683e-09
9.3222e-11
2.52228e-09
7.99998e-10
1.66675e-09
1.5331e-09
5.04781e-10
2.27646e-09
-9.64543e-10
3.01849e-09
-2.7389e-09
3.75122e-09
-4.81379e-09
4.46959e-09
-7.18343e-09
5.17079e-09
-9.8414e-09
5.8537e-09
-1.27811e-08
6.51846e-09
-1.59962e-08
7.16605e-09
-1.94807e-08
7.79802e-09
-2.32292e-08
8.41618e-09
-2.7237e-08
9.02242e-09
-3.14998e-08
9.61856e-09
-3.60139e-08
1.02062e-08
-4.0776e-08
1.07866e-08
-4.57828e-08
1.13606e-08
-5.10314e-08
1.19288e-08
-5.65187e-08
1.24911e-08
-6.22411e-08
1.3047e-08
-6.81949e-08
1.35958e-08
-7.43753e-08
1.4136e-08
-8.07772e-08
1.46659e-08
-8.73941e-08
1.51833e-08
-9.42187e-08
1.56856e-08
-1.01242e-07
1.61699e-08
-1.08454e-07
1.6633e-08
-1.15844e-07
1.70714e-08
-1.23398e-07
1.74815e-08
-1.31101e-07
1.78593e-08
-1.38937e-07
1.82007e-08
-1.46887e-07
1.85015e-08
-1.54933e-07
1.87574e-08
-1.63051e-07
1.89642e-08
-1.71219e-07
1.91173e-08
-1.79411e-07
1.92126e-08
-1.876e-07
1.92458e-08
-1.95758e-07
1.92128e-08
-2.03854e-07
1.91097e-08
-2.11858e-07
1.89328e-08
-2.19735e-07
1.86786e-08
-2.27454e-07
1.8344e-08
-2.34977e-07
1.79262e-08
-2.4227e-07
1.74229e-08
-2.49297e-07
1.68321e-08
-2.56019e-07
1.61524e-08
-2.62401e-07
1.5383e-08
-2.68406e-07
1.45236e-08
-2.73997e-07
1.35744e-08
-2.79137e-07
1.25366e-08
-2.83793e-07
1.14117e-08
-2.87929e-07
1.02021e-08
-2.91515e-07
8.91097e-09
-2.94518e-07
7.54213e-09
-2.9691e-07
6.10018e-09
-2.98664e-07
4.59046e-09
-2.99758e-07
3.01905e-09
-3.00171e-07
1.3928e-09
-2.99883e-07
-2.80622e-10
-2.98882e-07
-1.99324e-09
-2.97157e-07
-3.7362e-09
-2.947e-07
-5.50009e-09
-2.91509e-07
-7.27496e-09
-2.87586e-07
-9.05043e-09
-2.82935e-07
-1.08157e-08
-2.77568e-07
-1.25598e-08
-2.71499e-07
-1.42713e-08
-2.64746e-07
-1.5939e-08
-2.57334e-07
-1.75513e-08
-2.4929e-07
-1.9097e-08
-2.40647e-07
-2.0565e-08
-2.31441e-07
-2.19446e-08
-2.21713e-07
-2.32253e-08
-2.11507e-07
-2.43973e-08
-2.00871e-07
-2.54517e-08
-1.89856e-07
-2.63801e-08
-1.78516e-07
-2.71749e-08
-1.66907e-07
-2.78299e-08
-1.55089e-07
-2.83395e-08
-1.43121e-07
-2.86996e-08
-1.31064e-07
-2.89072e-08
-1.18982e-07
-2.89605e-08
-1.06935e-07
-2.88591e-08
-9.49857e-08
-2.8604e-08
-8.31958e-08
-2.81974e-08
-7.16246e-08
-2.7643e-08
-6.03301e-08
-2.69456e-08
-4.93678e-08
-2.61113e-08
-3.87905e-08
-2.51476e-08
-2.86478e-08
-2.40628e-08
-1.89855e-08
-2.28663e-08
-9.84572e-09
-2.15683e-08
-1.26601e-09
-2.01801e-08
6.72051e-09
-1.87131e-08
1.40855e-08
-1.71795e-08
2.08055e-08
-1.55918e-08
2.68622e-08
-1.39627e-08
3.22422e-08
-1.23048e-08
3.69374e-08
-1.06306e-08
4.09444e-08
-8.9527e-09
4.4265e-08
-7.28305e-09
4.69059e-08
-5.63335e-09
4.88781e-08
-4.01479e-09
5.01974e-08
-2.43807e-09
5.08839e-08
-9.13481e-10
5.09619e-08
5.49278e-10
5.04597e-08
1.94085e-09
4.94097e-08
3.25217e-09
4.78479e-08
4.47428e-09
4.58146e-08
5.59808e-09
4.33539e-08
6.61421e-09
4.05142e-08
7.51272e-09
3.73483e-08
8.28278e-09
3.3914e-08
8.91229e-09
3.02741e-08
9.38764e-09
2.64974e-08
9.69341e-09
2.26587e-08
9.81226e-09
1.88391e-08
9.72508e-09
1.51262e-08
9.41152e-09
1.16134e-08
8.85145e-09
8.39777e-09
8.02765e-09
5.57802e-09
6.93097e-09
3.24928e-09
5.569e-09
1.4973e-09
3.98073e-09
3.93393e-10
2.26385e-09
6.26175e-10
2.40424e-10
-8.48601e-10
7.43637e-10
-1.94015e-09
1.34596e-09
-2.50542e-09
1.92446e-09
-2.63014e-09
2.3826e-09
-2.39695e-09
2.64417e-09
-1.88253e-09
2.65013e-09
-1.15483e-09
2.35609e-09
-2.71679e-10
1.7301e-09
7.19215e-10
7.50497e-10
1.7796e-09
-5.96027e-10
2.87963e-09
-2.31622e-09
3.99665e-09
-4.41185e-09
5.11412e-09
-6.88107e-09
6.22044e-09
-9.71956e-09
7.30808e-09
-1.29214e-08
8.37264e-09
-1.64799e-08
9.41215e-09
-2.03879e-08
1.04265e-08
-2.46384e-08
1.14166e-08
-2.92249e-08
1.23845e-08
-3.41411e-08
1.33324e-08
-3.93814e-08
1.42628e-08
-4.49408e-08
1.51779e-08
-5.08143e-08
1.60797e-08
-5.69976e-08
1.69699e-08
-6.34864e-08
1.78494e-08
-7.02762e-08
1.87186e-08
-7.73623e-08
1.95772e-08
-8.47396e-08
2.04243e-08
-9.24021e-08
2.12584e-08
-1.00343e-07
2.20771e-08
-1.08555e-07
2.28776e-08
-1.17028e-07
2.36564e-08
-1.25752e-07
2.44096e-08
-1.34715e-07
2.51325e-08
-1.43902e-07
2.58204e-08
-1.53298e-07
2.64678e-08
-1.62886e-07
2.70691e-08
-1.72645e-07
2.76184e-08
-1.82554e-07
2.81094e-08
-1.92588e-07
2.8536e-08
-2.02723e-07
2.88916e-08
-2.12928e-07
2.91698e-08
-2.23175e-07
2.93642e-08
-2.33431e-07
2.94685e-08
-2.43662e-07
2.94764e-08
-2.53831e-07
2.93821e-08
-2.63901e-07
2.91799e-08
-2.73833e-07
2.88646e-08
-2.83585e-07
2.84312e-08
-2.93117e-07
2.78754e-08
-3.02384e-07
2.71934e-08
-3.11343e-07
2.63822e-08
-3.1995e-07
2.54392e-08
-3.28161e-07
2.43628e-08
-3.3593e-07
2.31522e-08
-3.43214e-07
2.18074e-08
-3.49969e-07
2.03294e-08
-3.56152e-07
1.87201e-08
-3.61723e-07
1.69824e-08
-3.66641e-07
1.51205e-08
-3.7087e-07
1.31394e-08
-3.74373e-07
1.10451e-08
-3.77117e-07
8.84495e-09
-3.79074e-07
6.54721e-09
-3.80216e-07
4.16123e-09
-3.80521e-07
1.6974e-09
-3.79969e-07
-8.32868e-10
-3.78545e-07
-3.41735e-09
-3.76238e-07
-6.04288e-09
-3.73043e-07
-8.69548e-09
-3.68957e-07
-1.13605e-08
-3.63985e-07
-1.40226e-08
-3.58135e-07
-1.66659e-08
-3.5142e-07
-1.92744e-08
-3.4386e-07
-2.18315e-08
-3.35478e-07
-2.43206e-08
-3.26304e-07
-2.67253e-08
-3.16372e-07
-2.90291e-08
-3.05722e-07
-3.12159e-08
-2.94396e-07
-3.32703e-08
-2.82444e-07
-3.51773e-08
-2.69918e-07
-3.69227e-08
-2.56877e-07
-3.84936e-08
-2.43379e-07
-3.98778e-08
-2.29489e-07
-4.10647e-08
-2.15274e-07
-4.2045e-08
-2.00803e-07
-4.28107e-08
-1.86146e-07
-4.3356e-08
-1.71377e-07
-4.36762e-08
-1.56569e-07
-4.3769e-08
-1.41794e-07
-4.36335e-08
-1.27127e-07
-4.32711e-08
-1.1264e-07
-4.26848e-08
-9.84032e-08
-4.18797e-08
-8.4486e-08
-4.08628e-08
-7.09547e-08
-3.96427e-08
-5.78724e-08
-3.82298e-08
-4.52989e-08
-3.66363e-08
-3.32896e-08
-3.48755e-08
-2.18956e-08
-3.29623e-08
-1.11631e-08
-3.09126e-08
-1.13289e-09
-2.87433e-08
8.15943e-09
-2.64718e-08
1.66841e-08
-2.41165e-08
2.44173e-08
-2.16959e-08
3.13409e-08
-1.92284e-08
3.74431e-08
-1.67328e-08
4.27179e-08
-1.42274e-08
4.71651e-08
-1.17303e-08
5.07905e-08
-9.25881e-09
5.36057e-08
-6.82999e-09
5.56277e-08
-4.46008e-09
5.68789e-08
-2.16463e-09
5.73868e-08
4.13163e-11
5.71844e-08
2.14328e-09
5.63093e-08
4.12728e-09
5.48041e-08
5.97945e-09
5.27165e-08
7.68572e-09
5.0099e-08
9.23173e-09
4.70092e-08
1.06024e-08
4.35103e-08
1.17817e-08
3.96709e-08
1.27518e-08
3.55654e-08
1.34931e-08
3.12748e-08
1.39841e-08
2.68861e-08
1.42009e-08
2.24933e-08
1.41179e-08
1.81964e-08
1.37084e-08
1.4101e-08
1.29469e-08
1.03168e-08
1.18118e-08
6.95599e-09
1.02918e-08
4.13067e-09
8.39432e-09
1.95158e-09
6.15982e-09
5.31161e-10
3.68427e-09
1.15734e-09
2.18203e-10
-1.0668e-09
6.54646e-10
-2.37659e-09
1.14098e-09
-2.99175e-09
1.54957e-09
-3.03873e-09
1.7811e-09
-2.62848e-09
1.75789e-09
-1.85932e-09
1.42002e-09
-8.16955e-10
7.22432e-10
4.25904e-10
-3.67472e-10
1.80912e-09
-1.87199e-09
3.28412e-09
-3.80502e-09
4.81266e-09
-6.17386e-09
6.36549e-09
-8.98068e-09
7.92093e-09
-1.22239e-08
9.46367e-09
-1.58994e-08
1.09835e-08
-2.00011e-08
1.24744e-08
-2.45223e-08
1.39334e-08
-2.94557e-08
1.53598e-08
-3.47938e-08
1.67548e-08
-4.05297e-08
1.81203e-08
-4.66565e-08
1.94592e-08
-5.31679e-08
2.07742e-08
-6.0058e-08
2.20679e-08
-6.7321e-08
2.33428e-08
-7.49514e-08
2.46003e-08
-8.29436e-08
2.58415e-08
-9.12916e-08
2.70665e-08
-9.99889e-08
2.82745e-08
-1.09029e-07
2.94639e-08
-1.18402e-07
3.06321e-08
-1.28101e-07
3.17757e-08
-1.38114e-07
3.28903e-08
-1.48428e-07
3.3971e-08
-1.59031e-07
3.50119e-08
-1.69905e-07
3.60067e-08
-1.81032e-07
3.69482e-08
-1.92394e-07
3.7829e-08
-2.03966e-07
3.86412e-08
-2.15724e-07
3.93763e-08
-2.2764e-07
4.00259e-08
-2.39685e-07
4.05812e-08
-2.51827e-07
4.10335e-08
-2.64031e-07
4.13737e-08
-2.7626e-07
4.15933e-08
-2.88476e-07
4.16837e-08
-3.00636e-07
4.16365e-08
-3.12698e-07
4.14439e-08
-3.24616e-07
4.10984e-08
-3.36344e-07
4.0593e-08
-3.47835e-07
3.99216e-08
-3.59038e-07
3.90785e-08
-3.69904e-07
3.80592e-08
-3.80381e-07
3.68597e-08
-3.9042e-07
3.54775e-08
-3.99968e-07
3.39107e-08
-4.08974e-07
3.21588e-08
-4.17389e-07
3.02227e-08
-4.25164e-07
2.81041e-08
-4.32251e-07
2.58065e-08
-4.38603e-07
2.33345e-08
-4.44177e-07
2.06943e-08
-4.4893e-07
1.78933e-08
-4.52826e-07
1.49405e-08
-4.55827e-07
1.18463e-08
-4.57903e-07
8.62253e-09
-4.59024e-07
5.28229e-09
-4.59166e-07
1.84013e-09
-4.58311e-07
-1.68814e-09
-4.56443e-07
-5.28557e-09
-4.53552e-07
-8.93407e-09
-4.49633e-07
-1.26145e-08
-4.44686e-07
-1.63069e-08
-4.38718e-07
-1.99905e-08
-4.3174e-07
-2.36439e-08
-4.23769e-07
-2.72453e-08
-4.14828e-07
-3.07725e-08
-4.04946e-07
-3.42032e-08
-3.94156e-07
-3.75153e-08
-3.82498e-07
-4.06869e-08
-3.70017e-07
-4.36965e-08
-3.56764e-07
-4.65234e-08
-3.42794e-07
-4.91476e-08
-3.28166e-07
-5.15504e-08
-3.12945e-07
-5.37143e-08
-2.972e-07
-5.56233e-08
-2.81002e-07
-5.7263e-08
-2.64426e-07
-5.8621e-08
-2.47549e-07
-5.96869e-08
-2.30453e-07
-6.04524e-08
-2.13218e-07
-6.09116e-08
-1.95926e-07
-6.10608e-08
-1.7866e-07
-6.0899e-08
-1.61504e-07
-6.04276e-08
-1.44538e-07
-5.96506e-08
-1.27843e-07
-5.85745e-08
-1.11498e-07
-5.72083e-08
-9.55769e-08
-5.55634e-08
-8.01532e-08
-5.36535e-08
-6.52951e-08
-5.14944e-08
-5.10666e-08
-4.9104e-08
-3.7527e-08
-4.65019e-08
-2.47303e-08
-4.37093e-08
-1.27248e-08
-4.07488e-08
-1.5528e-09
-3.76438e-08
8.74968e-09
-3.4419e-08
1.81531e-08
-3.10993e-08
2.66346e-08
-2.77099e-08
3.41781e-08
-2.42763e-08
4.07742e-08
-2.08235e-08
4.64203e-08
-1.73764e-08
5.11205e-08
-1.39591e-08
5.48857e-08
-1.05951e-08
5.77329e-08
-7.3073e-09
5.96858e-08
-4.11752e-09
6.07741e-08
-1.04703e-09
6.10337e-08
1.88372e-09
6.05062e-08
4.65477e-09
5.92392e-08
7.24645e-09
5.72861e-08
9.6388e-09
5.47062e-08
1.18116e-08
5.15646e-08
1.37441e-08
4.79324e-08
1.54139e-08
4.3887e-08
1.67971e-08
3.95124e-08
1.78678e-08
3.48987e-08
1.85977e-08
3.01431e-08
1.89565e-08
2.53491e-08
1.89118e-08
2.06269e-08
1.84307e-08
1.60921e-08
1.74817e-08
1.18657e-08
1.60382e-08
8.07312e-09
1.40844e-08
4.84429e-09
1.16232e-08
2.31593e-09
8.68818e-09
6.3928e-10
5.36092e-09
1.79662e-09
1.77372e-10
-1.24417e-09
5.01469e-10
-2.70069e-09
8.07922e-10
-3.29821e-09
9.70426e-10
-3.20124e-09
8.90786e-10
-2.54884e-09
4.92746e-10
-1.46128e-09
-2.82128e-10
-4.20821e-11
-1.47756e-09
1.62133e-09
-3.12509e-09
3.45665e-09
-5.24625e-09
5.40527e-09
-7.85444e-09
7.42085e-09
-1.09566e-08
9.46769e-09
-1.45549e-08
1.15192e-08
-1.86475e-08
1.35563e-08
-2.32303e-08
1.55663e-08
-2.82974e-08
1.75415e-08
-3.38418e-08
1.94777e-08
-3.9856e-08
2.1374e-08
-4.63325e-08
2.32313e-08
-5.32639e-08
2.50517e-08
-6.0643e-08
2.68383e-08
-6.84628e-08
2.8594e-08
-7.67167e-08
3.03218e-08
-8.5398e-08
3.2024e-08
-9.44999e-08
3.37023e-08
-1.04016e-07
3.53571e-08
-1.13937e-07
3.69883e-08
-1.24257e-07
3.85941e-08
-1.34965e-07
4.0172e-08
-1.46051e-07
4.17182e-08
-1.57503e-07
4.32276e-08
-1.69307e-07
4.46944e-08
-1.81447e-07
4.61114e-08
-1.93907e-07
4.7471e-08
-2.06664e-07
4.87643e-08
-2.19698e-07
4.99819e-08
-2.32983e-07
5.11138e-08
-2.46491e-07
5.21493e-08
-2.60192e-07
5.30777e-08
-2.74054e-07
5.38876e-08
-2.8804e-07
5.45676e-08
-3.02113e-07
5.51062e-08
-3.16231e-07
5.54921e-08
-3.30352e-07
5.5714e-08
-3.44429e-07
5.57609e-08
-3.58415e-07
5.56225e-08
-3.7226e-07
5.52887e-08
-3.85912e-07
5.47502e-08
-3.99317e-07
5.39986e-08
-4.12422e-07
5.30262e-08
-4.2517e-07
5.18266e-08
-4.37505e-07
5.03943e-08
-4.4937e-07
4.8725e-08
-4.60709e-07
4.6816e-08
-4.71464e-07
4.46658e-08
-4.8158e-07
4.22746e-08
-4.91001e-07
3.96441e-08
-4.99675e-07
3.67776e-08
-5.07549e-07
3.36804e-08
-5.14573e-07
3.03591e-08
-5.20701e-07
2.68225e-08
-5.25889e-07
2.3081e-08
-5.30095e-07
1.91469e-08
-5.33283e-07
1.50342e-08
-5.35419e-07
1.07587e-08
-5.36475e-07
6.33785e-09
-5.36426e-07
1.79082e-09
-5.35252e-07
-2.86173e-09
-5.3294e-07
-7.59766e-09
-5.2948e-07
-1.23935e-08
-5.2487e-07
-1.72246e-08
-5.19112e-07
-2.20653e-08
-5.12214e-07
-2.68888e-08
-5.0419e-07
-3.16678e-08
-4.95061e-07
-3.63745e-08
-4.84852e-07
-4.09807e-08
-4.73598e-07
-4.54581e-08
-4.61334e-07
-4.97786e-08
-4.48107e-07
-5.39144e-08
-4.33965e-07
-5.78384e-08
-4.18964e-07
-6.15243e-08
-4.03165e-07
-6.4947e-08
-3.86632e-07
-6.80827e-08
-3.69437e-07
-7.09093e-08
-3.51654e-07
-7.34065e-08
-3.33361e-07
-7.55561e-08
-3.1464e-07
-7.73424e-08
-2.95575e-07
-7.87519e-08
-2.76253e-07
-7.97742e-08
-2.56763e-07
-8.04014e-08
-2.37195e-07
-8.06288e-08
-2.17639e-07
-8.04547e-08
-1.98186e-07
-7.98807e-08
-1.78925e-07
-7.89114e-08
-1.59945e-07
-7.75548e-08
-1.41332e-07
-7.58218e-08
-1.23169e-07
-7.37265e-08
-1.05536e-07
-7.12859e-08
-8.8511e-08
-6.85198e-08
-7.21645e-08
-6.54505e-08
-5.65638e-08
-6.21027e-08
-4.177e-08
-5.85031e-08
-2.78386e-08
-5.46802e-08
-1.48184e-08
-5.0664e-08
-2.75167e-09
-4.64858e-08
8.32637e-09
-4.21773e-08
1.83877e-08
-3.77713e-08
2.74116e-08
-3.33002e-08
3.5385e-08
-2.87968e-08
4.2302e-08
-2.42934e-08
4.81644e-08
-1.98215e-08
5.29813e-08
-1.5412e-08
5.67692e-08
-1.10952e-08
5.95517e-08
-6.90002e-09
6.13594e-08
-2.85479e-09
6.22301e-08
1.01305e-09
6.22083e-08
4.67661e-09
6.13451e-08
8.10965e-09
5.96981e-08
1.12858e-08
5.73316e-08
1.41781e-08
5.43167e-08
1.6759e-08
5.07308e-08
1.89998e-08
4.66582e-08
2.08697e-08
4.21901e-08
2.23359e-08
3.74243e-08
2.33635e-08
3.24658e-08
2.3915e-08
2.74262e-08
2.39515e-08
2.24237e-08
2.34332e-08
1.75832e-08
2.23222e-08
1.30361e-08
2.05853e-08
8.92088e-09
1.81996e-08
5.38506e-09
1.5159e-08
2.58967e-09
1.14836e-08
7.19003e-10
7.23159e-09
2.51562e-09
1.22101e-10
-1.36627e-09
2.96463e-10
-2.87505e-09
3.68712e-10
-3.37046e-09
2.18814e-10
-3.05134e-09
-2.46633e-10
-2.0834e-09
-1.09971e-09
-6.082e-10
-2.3952e-09
1.25341e-09
-4.1737e-09
3.39983e-09
-6.46415e-09
5.7471e-09
-9.28602e-09
8.22715e-09
-1.26512e-08
1.0786e-08
-1.65655e-08
1.3382e-08
-2.10303e-08
1.59839e-08
-2.60433e-08
1.85694e-08
-3.16002e-08
2.11232e-08
-3.76946e-08
2.36359e-08
-4.43197e-08
2.61028e-08
-5.14678e-08
2.85221e-08
-5.91312e-08
3.08947e-08
-6.73022e-08
3.32228e-08
-7.59733e-08
3.55094e-08
-8.5137e-08
3.77577e-08
-9.47858e-08
3.99707e-08
-1.04912e-07
4.21505e-08
-1.15508e-07
4.42984e-08
-1.26566e-07
4.64144e-08
-1.38075e-07
4.84975e-08
-1.50026e-07
5.0545e-08
-1.62407e-07
5.25529e-08
-1.75204e-07
5.45159e-08
-1.88404e-07
5.64271e-08
-2.01988e-07
5.82785e-08
-2.15938e-07
6.0061e-08
-2.30231e-07
6.17642e-08
-2.44843e-07
6.33768e-08
-2.59748e-07
6.48867e-08
-2.74915e-07
6.62809e-08
-2.90312e-07
6.75462e-08
-3.05903e-07
6.86686e-08
-3.21649e-07
6.9634e-08
-3.3751e-07
7.04281e-08
-3.5344e-07
7.10366e-08
-3.69394e-07
7.14454e-08
-3.85321e-07
7.16408e-08
-4.01169e-07
7.16093e-08
-4.16885e-07
7.13383e-08
-4.32412e-07
7.08157e-08
-4.47692e-07
7.00307e-08
-4.62667e-07
6.89732e-08
-4.77275e-07
6.76345e-08
-4.91456e-07
6.60071e-08
-5.05147e-07
6.40852e-08
-5.18286e-07
6.18645e-08
-5.30812e-07
5.93422e-08
-5.42664e-07
5.65177e-08
-5.53782e-07
5.3392e-08
-5.64106e-07
4.99683e-08
-5.7358e-07
4.62518e-08
-5.82149e-07
4.22498e-08
-5.89762e-07
3.79717e-08
-5.96369e-07
3.34291e-08
-6.01924e-07
2.86359e-08
-6.06385e-07
2.36081e-08
-6.09714e-07
1.83636e-08
-6.11878e-07
1.29228e-08
-6.12848e-07
7.30773e-09
-6.126e-07
1.54255e-09
-6.11115e-07
-4.34681e-09
-6.0838e-07
-1.03328e-08
-6.04387e-07
-1.63861e-08
-5.99136e-07
-2.24764e-08
-5.92629e-07
-2.85717e-08
-5.84878e-07
-3.46394e-08
-5.759e-07
-4.0646e-08
-5.65718e-07
-4.65572e-08
-5.5436e-07
-5.23386e-08
-5.41862e-07
-5.79558e-08
-5.28266e-07
-6.33745e-08
-5.1362e-07
-6.85607e-08
-4.97977e-07
-7.34816e-08
-4.81396e-07
-7.81051e-08
-4.63942e-07
-8.24007e-08
-4.45685e-07
-8.63393e-08
-4.26701e-07
-8.9894e-08
-4.07067e-07
-9.30401e-08
-3.86868e-07
-9.57554e-08
-3.6619e-07
-9.80203e-08
-3.45123e-07
-9.98185e-08
-3.23761e-07
-1.01137e-07
-3.02197e-07
-1.01965e-07
-2.80527e-07
-1.02298e-07
-2.58849e-07
-1.02133e-07
-2.37259e-07
-1.0147e-07
-2.15854e-07
-1.00316e-07
-1.94729e-07
-9.868e-08
-1.73977e-07
-9.65738e-08
-1.53689e-07
-9.40147e-08
-1.33952e-07
-9.10229e-08
-1.1485e-07
-8.76219e-08
-9.64615e-08
-8.38388e-08
-7.8861e-08
-7.97032e-08
-6.21165e-08
-7.52476e-08
-4.62901e-08
-7.05066e-08
-3.14372e-08
-6.55169e-08
-1.76064e-08
-6.03166e-08
-4.83854e-09
-5.49452e-08
6.83286e-09
-4.94427e-08
1.73823e-08
-4.38496e-08
2.67921e-08
-3.82067e-08
3.5053e-08
-3.25542e-08
4.21636e-08
-2.6932e-08
4.81306e-08
-2.13791e-08
5.2969e-08
-1.59335e-08
5.67015e-08
-1.06325e-08
5.93587e-08
-5.51205e-09
6.0979e-08
-6.07262e-10
6.16083e-08
4.04733e-09
6.13004e-08
8.41759e-09
6.01161e-08
1.24701e-08
5.81233e-08
1.61709e-08
5.5397e-08
1.94853e-08
5.20198e-08
2.2377e-08
4.80814e-08
2.4808e-08
4.36786e-08
2.67387e-08
3.89155e-08
2.81266e-08
3.39032e-08
2.89273e-08
2.87601e-08
2.90946e-08
2.36117e-08
2.85816e-08
1.85912e-08
2.73427e-08
1.38397e-08
2.53368e-08
9.50829e-09
2.2531e-08
5.76059e-09
1.89067e-08
2.77876e-09
1.44654e-08
7.73225e-10
9.23713e-09
3.28884e-09
5.53936e-11
-1.42167e-09
4.91123e-11
-2.86876e-09
-1.59093e-10
-3.16225e-09
-6.79063e-10
-2.53137e-09
-1.59616e-09
-1.16631e-09
-2.97576e-09
7.71403e-10
-4.86695e-09
3.1446e-09
-7.30549e-09
5.83837e-09
-1.03163e-08
8.75794e-09
-1.39157e-08
1.18265e-08
-1.8113e-08
1.49833e-08
-2.29121e-08
1.81811e-08
-2.8313e-08
2.13848e-08
-3.43126e-08
2.45689e-08
-4.09056e-08
2.77162e-08
-4.80857e-08
3.0816e-08
-5.58455e-08
3.38626e-08
-6.41773e-08
3.68539e-08
-7.30731e-08
3.97905e-08
-8.25251e-08
4.26747e-08
-9.25253e-08
4.55096e-08
-1.03066e-07
4.82981e-08
-1.14138e-07
5.10431e-08
-1.25734e-07
5.37464e-08
-1.37845e-07
5.64087e-08
-1.50459e-07
5.90292e-08
-1.63567e-07
6.16056e-08
-1.77156e-07
6.4134e-08
-1.91212e-07
6.66087e-08
-2.05719e-07
6.90224e-08
-2.20658e-07
7.13663e-08
-2.36009e-07
7.36298e-08
-2.5175e-07
7.58013e-08
-2.67853e-07
7.78676e-08
-2.84291e-07
7.98146e-08
-3.01031e-07
8.16272e-08
-3.1804e-07
8.32894e-08
-3.35278e-07
8.47847e-08
-3.52706e-07
8.60962e-08
-3.70278e-07
8.72065e-08
-3.87949e-07
8.80985e-08
-4.05667e-07
8.87548e-08
-4.2338e-07
8.91588e-08
-4.41034e-07
8.92939e-08
-4.58569e-07
8.91444e-08
-4.75926e-07
8.86955e-08
-4.93044e-07
8.79334e-08
-5.09858e-07
8.68454e-08
-5.26305e-07
8.54203e-08
-5.42319e-07
8.36483e-08
-5.57834e-07
8.15216e-08
-5.72782e-07
7.9034e-08
-5.87099e-07
7.61813e-08
-6.00719e-07
7.29615e-08
-6.13576e-07
6.93749e-08
-6.25608e-07
6.54239e-08
-6.36753e-07
6.11134e-08
-6.46952e-07
5.64508e-08
-6.56148e-07
5.14461e-08
-6.64288e-07
4.61116e-08
-6.71321e-07
4.04624e-08
-6.77201e-07
3.45159e-08
-6.81885e-07
2.82923e-08
-6.85336e-07
2.18139e-08
-6.87518e-07
1.51056e-08
-6.88405e-07
8.19464e-09
-6.87973e-07
1.11036e-09
-6.86204e-07
-6.11586e-09
-6.83086e-07
-1.34507e-08
-6.78613e-07
-2.08591e-08
-6.72785e-07
-2.83045e-08
-6.65608e-07
-3.57489e-08
-6.57094e-07
-4.31534e-08
-6.47262e-07
-5.0478e-08
-6.36137e-07
-5.76822e-08
-6.2375e-07
-6.47252e-08
-6.1014e-07
-7.15661e-08
-5.9535e-07
-7.81644e-08
-5.79431e-07
-8.448e-08
-5.62439e-07
-9.0474e-08
-5.44435e-07
-9.61084e-08
-5.25489e-07
-1.01347e-07
-5.05672e-07
-1.06156e-07
-4.85064e-07
-1.10502e-07
-4.63747e-07
-1.14357e-07
-4.41807e-07
-1.17695e-07
-4.19337e-07
-1.20491e-07
-3.9643e-07
-1.22725e-07
-3.73184e-07
-1.24383e-07
-3.49698e-07
-1.25452e-07
-3.26073e-07
-1.25923e-07
-3.02411e-07
-1.25795e-07
-2.78815e-07
-1.25067e-07
-2.55387e-07
-1.23745e-07
-2.32228e-07
-1.21839e-07
-2.09438e-07
-1.19364e-07
-1.87114e-07
-1.16339e-07
-1.6535e-07
-1.12787e-07
-1.44237e-07
-1.08735e-07
-1.23859e-07
-1.04216e-07
-1.04299e-07
-9.92637e-08
-8.56302e-08
-9.39161e-08