/*--------------------------------*- C++ -*----------------------------------*\
  =========                 |
  \\      /  F ield         | OpenFOAM: The Open Source CFD Toolbox
   \\    /   O peration     | Website:  https://openfoam.org
    \\  /    A nd           | Version:  12
     \\/     M anipulation  |
\*---------------------------------------------------------------------------*/
FoamFile
{
    format      ascii;
    class       volScalarField;
    location    "9";
    object      p;
}
// * * * * * * * * * * * * * * * * * * * * * * * * * * * * * * * * * * * * * //

dimensions      [0 2 -2 0 0 0 0];

internalField   nonuniform List<scalar> 
5625
(
2.85183e-09
-1.83364e-05
-9.33317e-05
-0.000227738
-0.000405947
-0.000612983
-0.000836341
-0.00106556
-0.00129213
-0.00150931
-0.00171185
-0.00189571
-0.00205787
-0.0021961
-0.00230877
-0.00239472
-0.00245314
-0.00248349
-0.00248537
-0.00245856
-0.0024029
-0.00231831
-0.00220478
-0.00206235
-0.00189116
-0.00169142
-0.00146346
-0.00120777
-0.00092499
-0.000615984
-0.00028183
7.61312e-05
0.000456279
0.000856693
0.00127514
0.00170905
0.00215553
0.00261141
0.00307325
0.00353721
0.0039993
0.00445534
0.00490096
0.00533175
0.00574326
0.0061311
0.00649102
0.00681898
0.00711124
0.00736446
0.00757574
0.00774275
0.00786372
0.0079376
0.007964
0.00794334
0.00787676
0.00776624
0.0076145
0.00742509
0.00720226
0.00695101
0.00667702
0.0063866
0.00608665
0.00578463
0.00548848
0.0052066
0.00494772
0.00472076
0.00453452
0.00439711
0.00431541
0.00429182
0.00430698
1.81821e-05
-2.41284e-07
-6.71186e-05
-0.000185145
-0.00034114
-0.000522708
-0.000719408
-0.000922297
-0.00112387
-0.00131801
-0.00149981
-0.00166545
-0.00181194
-0.00193702
-0.002039
-0.00211663
-0.00216899
-0.00219541
-0.00219544
-0.00216873
-0.00211507
-0.00203432
-0.00192642
-0.0017914
-0.00162935
-0.00144049
-0.00122512
-0.00098373
-0.000716936
-0.000425569
-0.000110672
0.000226469
0.000584305
0.00096101
0.00135446
0.00176223
0.0021816
0.0026096
0.00304296
0.0034781
0.0039113
0.00433863
0.00475606
0.00515944
0.00554467
0.00590766
0.00624447
0.00655139
0.00682497
0.00706213
0.00726025
0.00741717
0.00753136
0.00760186
0.00762842
0.00761146
0.00755215
0.00745238
0.00731477
0.00714266
0.00694009
0.00671173
0.00646289
0.00619943
0.00592774
0.00565466
0.0053874
0.0051335
0.00490069
0.00469671
0.00452898
0.00440426
0.00432877
0.00430662
0.00432201
9.34408e-05
6.63589e-05
-1.07822e-06
-0.000109766
-0.000249332
-0.000410145
-0.00058387
-0.000763146
-0.000941613
-0.00111394
-0.00127574
-0.00142349
-0.00155441
-0.00166629
-0.00175747
-0.00182665
-0.00187285
-0.00189536
-0.00189363
-0.00186726
-0.00181597
-0.00173957
-0.00163796
-0.00151111
-0.0013591
-0.00118209
-0.000980394
-0.000754427
-0.000504787
-0.000232251
6.21959e-05
0.000377344
0.000711738
0.00106366
0.00143112
0.00181185
0.00220331
0.00260274
0.00300703
0.0034129
0.00381687
0.00421529
0.00460439
0.00498036
0.00533936
0.00567762
0.0059915
0.00627756
0.00653263
0.00675389
0.00693893
0.00708582
0.00719315
0.00726013
0.00728655
0.00727289
0.00722029
0.00713057
0.00700622
0.00685041
0.00666691
0.00646009
0.00623489
0.0059967
0.00575138
0.00550513
0.00526444
0.00503598
0.00482652
0.00464269
0.00449075
0.00437639
0.00430548
0.00428401
0.00429892
0.00022949
0.000184836
0.000106208
-3.69368e-06
-0.000137473
-0.000287794
-0.000447974
-0.000611996
-0.000774575
-0.000931194
-0.00107808
-0.00121212
-0.00133083
-0.00143221
-0.00151469
-0.00157705
-0.00161834
-0.00163783
-0.00163496
-0.00160931
-0.00156054
-0.00148845
-0.00139287
-0.00127375
-0.00113112
-0.000965095
-0.000775933
-0.000564007
-0.000329851
-7.41741e-05
0.000202119
0.000497908
0.000811837
0.00114231
0.00148746
0.00184517
0.00221306
0.00258852
0.00296865
0.00335036
0.00373037
0.00410525
0.00447146
0.00482537
0.00516339
0.00548197
0.00577766
0.00604723
0.0062877
0.00649642
0.00667112
0.00681001
0.00691179
0.00697571
0.00700164
0.00699006
0.00694207
0.00685943
0.00674454
0.00660037
0.00643052
0.00623911
0.00603073
0.00581043
0.0055836
0.00535594
0.00513334
0.0049218
0.00472734
0.00455581
0.00441274
0.00430321
0.00423294
0.00420854
0.00421894
0.000411877
0.000342867
0.000245056
0.000126309
-9.1674e-06
-0.000156198
-0.0003095
-0.000464247
-0.000616172
-0.000761578
-0.000897331
-0.00102082
-0.00112992
-0.0012229
-0.00129839
-0.00135528
-0.00139273
-0.00141004
-0.00140666
-0.00138219
-0.00133627
-0.00126865
-0.00117915
-0.00106767
-0.000934176
-0.000778746
-0.000601561
-0.000402928
-0.000183306
5.66839e-05
0.000316228
0.000594309
0.000889683
0.00120087
0.00152615
0.00186353
0.00221079
0.00256545
0.0029248
0.0032859
0.00364564
0.00400076
0.00434789
0.00468357
0.00500436
0.00530686
0.00558779
0.00584404
0.00607275
0.00627138
0.00643776
0.00657016
0.00666735
0.00672862
0.00675385
0.00674349
0.00669863
0.00662095
0.00651274
0.00637685
0.00621671
0.0060362
0.00583967
0.00563184
0.00541773
0.00520261
0.00499187
0.00479097
0.00460532
0.00444019
0.00430053
0.00419098
0.00411682
0.00408417
0.00408444
0.000626559
0.000528672
0.000406209
0.000273173
0.000130588
-1.84187e-05
-0.000169801
-0.000319813
-0.000465147
-0.000602906
-0.000730609
-0.000846172
-0.000947873
-0.00103431
-0.00110434
-0.00115705
-0.00119169
-0.00120767
-0.00120449
-0.00118174
-0.00113909
-0.00107626
-0.000993031
-0.000889259
-0.000764861
-0.000619845
-0.000454316
-0.000268501
-6.27661e-05
0.000162364
0.000406184
0.000667788
0.000946054
0.00123963
0.00154692
0.00186607
0.00219501
0.00253139
0.00287263
0.00321596
0.0035584
0.00389682
0.00422796
0.00454852
0.00485514
0.00514454
0.00541353
0.00565909
0.00587842
0.00606903
0.00622882
0.00635608
0.00644959
0.00650864
0.00653311
0.00652342
0.0064806
0.00640626
0.00630261
0.00617238
0.00601882
0.00584566
0.00565701
0.00545733
0.00525132
0.00504388
0.00484001
0.00464469
0.00446286
0.00429927
0.00415841
0.00404448
0.00396208
0.00391618
0.00390141
0.000861495
0.000731999
0.000581287
0.000430023
0.000276211
0.000121092
-3.23769e-05
-0.000181421
-0.00032362
-0.000456846
-0.000579262
-0.000689314
-0.000785715
-0.000867406
-0.000933518
-0.000983343
-0.00101629
-0.00103186
-0.00102964
-0.00100925
-0.000970365
-0.000912697
-0.000835999
-0.000740074
-0.000624781
-0.000490053
-0.000335912
-0.00016249
2.99495e-05
0.00024099
0.000470044
0.000716327
0.000978844
0.00125637
0.00154745
0.00185036
0.00216315
0.0024836
0.00280928
0.00313751
0.00346544
0.00379003
0.00410812
0.00441649
0.00471186
0.004991
0.00525076
0.00548816
0.00570043
0.00588509
0.00604003
0.00616353
0.00625436
0.00631179
0.00633563
0.00632627
0.00628467
0.00621238
0.00611151
0.00598468
0.00583503
0.00566611
0.00548184
0.00528648
0.00508446
0.00488039
0.00467892
0.00448468
0.00430219
0.00413579
0.00398955
0.00386729
0.00377281
0.0037096
0.00367614
0.00110608
0.000943564
0.000762399
0.000590168
0.000422078
0.000257658
9.89152e-05
-5.22432e-05
-0.000194216
-0.000325599
-0.000445173
-0.000551912
-0.000644967
-0.000723635
-0.00078734
-0.000835595
-0.000867982
-0.00088413
-0.000883697
-0.00086636
-0.00083181
-0.000779752
-0.000709909
-0.000622033
-0.000515917
-0.000391413
-0.000248451
-8.70608e-05
9.26074e-05
0.000290257
0.000505425
0.000737458
0.000985493
0.00124844
0.00152496
0.00181349
0.00211218
0.00241894
0.00273143
0.00304709
0.00336315
0.00367664
0.00398448
0.00428348
0.00457039
0.00484201
0.00509519
0.00532693
0.00553444
0.00571523
0.00586712
0.00598835
0.00607764
0.00613419
0.00615774
0.00614863
0.00610773
0.00603652
0.00593699
0.0058117
0.00566365
0.00549627
0.00531334
0.00511892
0.00491726
0.00471271
0.00450968
0.00431249
0.00412533
0.00395221
0.00379687
0.00366279
0.00355296
0.00346935
0.00341462
0.00135105
0.00115495
0.00094214
0.000747157
0.00056263
0.000386539
0.000220064
6.43354e-05
-7.97969e-05
-0.000211603
-0.000330455
-0.000435837
-0.000527329
-0.000604591
-0.000667337
-0.000715316
-0.000748291
-0.000766023
-0.000768261
-0.000754736
-0.00072516
-0.000679232
-0.000616643
-0.000537094
-0.000440306
-0.000326045
-0.00019414
-4.45079e-05
0.000122821
0.000307678
0.000509734
0.000728472
0.000963166
0.00121286
0.00147636
0.00175221
0.00203868
0.00233381
0.00263534
0.0029408
0.00324747
0.00355246
0.00385269
0.004145
0.00442615
0.00469291
0.00494208
0.00517063
0.00537571
0.00555473
0.00570545
0.00582603
0.00591507
0.00597169
0.00599554
0.00598686
0.00594644
0.00587565
0.00577642
0.00565118
0.00550285
0.00533476
0.00515055
0.00495416
0.00474967
0.00454128
0.00433317
0.00412946
0.00393409
0.0037508
0.00358309
0.00343416
0.00330627
0.0031999
0.00312217
0.00158822
0.00135858
0.00111363
0.000894828
0.000692412
0.000502953
0.000326898
0.000164681
1.64646e-05
-0.000117652
-0.000237597
-0.000343342
-0.000434885
-0.000512237
-0.000575405
-0.000624371
-0.000659079
-0.000679427
-0.000685256
-0.000676353
-0.000652453
-0.000613245
-0.000558388
-0.000487526
-0.000400303
-0.000296393
-0.000175515
-3.7469e-05
0.000117846
0.000290398
0.000479998
0.000686271
0.000908633
0.00114627
0.00139812
0.00166285
0.00193885
0.00222425
0.00251688
0.00281435
0.00311398
0.0034129
0.00370807
0.00399628
0.00427428
0.00453878
0.00478651
0.00501435
0.00521935
0.00539881
0.00555035
0.00567203
0.0057623
0.00582017
0.00584517
0.0058374
0.00579755
0.0057269
0.00562725
0.00550098
0.00535089
0.00518023
0.00499256
0.0047917
0.00458164
0.00436644
0.00415017
0.00393678
0.00373005
0.00353354
0.00335058
0.00318419
0.00303599
0.00290507
0.00280319
0.00181032
0.00154754
0.00127046
0.00102732
0.000806115
0.000602123
0.000415141
0.00024497
9.11366e-05
-4.68434e-05
-0.000169425
-0.000277038
-0.000370082
-0.000448908
-0.000513803
-0.000564979
-0.000602557
-0.000626567
-0.000636941
-0.00063352
-0.000616056
-0.000584229
-0.000537661
-0.00047593
-0.000398602
-0.000305247
-0.000195472
-6.89472e-05
7.45651e-05
0.000235177
0.000412847
0.000607351
0.000818252
0.00104488
0.0012863
0.00154131
0.00180843
0.00208585
0.00237152
0.00266307
0.00295787
0.00325308
0.00354561
0.00383225
0.00410966
0.00437448
0.00462334
0.004853
0.00506035
0.00524255
0.00539707
0.00552179
0.00561501
0.00567556
0.00570282
0.00569675
0.00565791
0.00558744
0.00548706
0.00535903
0.0052061
0.00503141
0.00483847
0.00463104
0.00441305
0.00418849
0.00396134
0.00373547
0.0035146
0.00330215
0.0031014
0.00291528
0.00274485
0.00258798
0.00246111
0.0020108
0.00171552
0.00140667
0.00113907
0.000898594
0.000679327
0.000480473
0.000301252
0.000140603
-2.50776e-06
-0.000129027
-0.000239821
-0.000335667
-0.00041724
-0.000485096
-0.000539663
-0.000581234
-0.000609962
-0.000625866
-0.000628832
-0.000618628
-0.000594916
-0.000557272
-0.00050521
-0.000438204
-0.000355717
-0.000257232
-0.000142284
-1.04904e-05
0.000138413
0.000304541
0.000487824
0.000687982
0.00090449
0.00113656
0.00138311
0.00164276
0.00191383
0.0021943
0.00248188
0.00277396
0.00306767
0.00335993
0.00364746
0.00392683
0.00419457
0.00444718
0.00468124
0.00489349
0.0050809
0.00524073
0.00537065
0.00546876
0.0055337
0.00556466
0.00556141
0.00552436
0.0054545
0.00535343
0.00522332
0.00506683
0.00488704
0.00468742
0.00447169
0.00424376
0.00400761
0.00376719
0.00352638
0.00328886
0.00305806
0.00283724
0.00262936
0.00243504
0.00225103
0.00209852
0.00218365
0.00185669
0.00151667
0.00122477
0.000964869
0.000729918
0.000518572
0.000329511
0.000161121
1.18552e-05
-0.000119697
-0.000234815
-0.000334631
-0.000420126
-0.000492109
-0.000551211
-0.000597884
-0.000632397
-0.000654844
-0.000665151
-0.00066309
-0.0006483
-0.000620307
-0.000578546
-0.000522396
-0.000451205
-0.000364323
-0.000261142
-0.000141124
-3.84634e-06
0.000150971
0.000323425
0.000513393
0.000720508
0.000944124
0.00118329
0.00143676
0.00170291
0.00197983
0.00226525
0.00255659
0.00285097
0.00314526
0.0034361
0.00371997
0.00399324
0.00425227
0.00449344
0.00471328
0.00490853
0.00507621
0.00521375
0.005319
0.00539036
0.00542677
0.00542782
0.0053937
0.00532526
0.00522394
0.00509181
0.00493142
0.00474584
0.00453849
0.00431309
0.00407356
0.0038239
0.00356814
0.00331019
0.00305378
0.00280243
0.00255947
0.00232797
0.00210824
0.00189601
0.00171723
0.0023233
0.00196559
0.00159517
0.00127937
0.00100013
0.000749346
0.000525144
0.000325697
0.000148868
-7.37618e-06
-0.000144885
-0.000265323
-0.000370163
-0.000460668
-0.000537884
-0.000602632
-0.000655508
-0.000696885
-0.00072692
-0.000745569
-0.000752602
-0.000747623
-0.000730098
-0.000699378
-0.000654737
-0.000595397
-0.000520569
-0.000429492
-0.000321465
-0.000195893
-5.23245e-05
0.000109511
0.000289663
0.000487928
0.000703812
0.000936508
0.00118487
0.00144741
0.00172225
0.0020072
0.00229967
0.00259678
0.00289533
0.00319189
0.00348279
0.00376427
0.00403248
0.00428358
0.00451387
0.0047198
0.00489812
0.00504597
0.00516091
0.00524104
0.00528505
0.00529226
0.00526263
0.0051968
0.00509608
0.00496238
0.00479818
0.00460649
0.00439072
0.00415461
0.00390214
0.00363738
0.00336446
0.0030874
0.00281009
0.00253616
0.00226915
0.00201229
0.00176568
0.00152411
0.00131837
0.00242452
0.00203709
0.00163717
0.00129802
0.000999742
0.00073317
0.00049595
0.000285766
9.99809e-05
-6.39013e-05
-0.000208146
-0.000334784
-0.000445603
-0.000542136
-0.000625644
-0.000697124
-0.000757301
-0.000806638
-0.000845343
-0.000873392
-0.000890539
-0.000896346
-0.000890208
-0.000871384
-0.000839032
-0.00079224
-0.00073007
-0.000651597
-0.000555948
-0.000442346
-0.000310156
-0.000158922
1.15879e-05
0.000201343
0.000410014
0.000636943
0.000881115
0.00114114
0.00141524
0.00170125
0.00199661
0.00229841
0.0026034
0.00290804
0.00320854
0.00350095
0.00378119
0.0040452
0.00428897
0.00450865
0.00470069
0.00486185
0.00498937
0.00508102
0.00513516
0.0051508
0.00512763
0.00506608
0.00496722
0.00483284
0.00466531
0.00446759
0.00424309
0.00399559
0.00372913
0.00344795
0.0031563
0.00285841
0.00255834
0.00225996
0.00196706
0.00168315
0.00140817
0.00113607
0.000902561
0.00248239
0.00206631
0.00163792
0.00127612
0.000959219
0.000677068
0.000426827
0.000205707
1.05922e-05
-0.000161457
-0.000313103
-0.000446724
-0.000564405
-0.000667925
-0.000758751
-0.000838034
-0.000906615
-0.000965031
-0.00101353
-0.0010521
-0.00108046
-0.00109812
-0.0011044
-0.00109845
-0.00107931
-0.00104592
-0.000997179
-0.000931992
-0.000849299
-0.000748134
-0.000627661
-0.000487229
-0.000326411
-0.000145049
5.67057e-05
0.000278357
0.000519033
0.000777461
0.00105195
0.0013404
0.00164027
0.00194863
0.00226217
0.00257725
0.00288991
0.00319602
0.00349127
0.00377131
0.0040318
0.00426857
0.00447766
0.00465548
0.00479887
0.00490519
0.00497242
0.00499922
0.00498497
0.00492979
0.00483455
0.00470082
0.00453089
0.00432764
0.00409447
0.00383524
0.0035541
0.00325545
0.00294375
0.00262347
0.00229894
0.00197433
0.00165377
0.00134111
0.00103622
0.000732242
0.000469944
0.00249222
0.00204865
0.00159288
0.00120922
0.000874252
0.00057685
0.000313705
8.15693e-05
-0.000123137
-0.000303783
-0.000463408
-0.00060472
-0.000730086
-0.000841517
-0.000940662
-0.00102881
-0.00110692
-0.00117557
-0.00123504
-0.00128531
-0.00132607
-0.00135676
-0.00137661
-0.00138466
-0.0013798
-0.00136083
-0.00132648
-0.00127545
-0.00120651
-0.00111847
-0.00101028
-0.000881097
-0.000730266
-0.000557428
-0.000362542
-0.000145923
9.1716e-05
0.000349238
0.00062506
0.000917143
0.00122299
0.00153965
0.00186377
0.00219158
0.00251899
0.00284164
0.00315497
0.00345431
0.00373499
0.00399243
0.00422228
0.00442047
0.0045834
0.00470798
0.00479176
0.00483296
0.00483058
0.00478441
0.00469502
0.00456379
0.00439285
0.00418499
0.00394364
0.00367271
0.00337651
0.00305962
0.00272677
0.00238274
0.00203219
0.00167966
0.00132968
0.000986539
0.000650084
0.000312674
2.03364e-05
0.00244952
0.00197969
0.00149773
0.00109309
0.000740698
0.000428467
0.00015263
-9.05104e-05
-0.000304987
-0.000494582
-0.000662699
-0.00081236
-0.000946196
-0.00106643
-0.00117489
-0.00127299
-0.00136175
-0.00144183
-0.00151351
-0.00157675
-0.00163119
-0.0016762
-0.0017109
-0.00173421
-0.00174488
-0.00174154
-0.00172273
-0.00168696
-0.00163279
-0.00155881
-0.00146374
-0.00134651
-0.00120623
-0.00104233
-0.000854538
-0.00064298
-0.000408183
-0.00015113
0.000126724
0.000423429
0.000736535
0.0010631
0.00139971
0.0017425
0.00208722
0.00242929
0.00276388
0.00308597
0.00339053
0.00367253
0.00392714
0.00414981
0.00433642
0.00448334
0.00458762
0.00464699
0.00466
0.00462602
0.0045453
0.00441895
0.0042489
0.00403787
0.00378926
0.00350706
0.00319575
0.00286015
0.0025053
0.00213632
0.0017583
0.00137619
0.000995038
0.000619621
0.000249808
-0.00012281
-0.000446699
0.00235006
0.00185524
0.00134835
0.000923704
0.000554593
0.000228028
-6.02166e-05
-0.000314285
-0.000538649
-0.000737492
-0.000914568
-0.0010732
-0.00121627
-0.0013462
-0.00146496
-0.0015741
-0.0016747
-0.00176745
-0.00185265
-0.0019302
-0.00199971
-0.00206045
-0.00211143
-0.00215143
-0.00217905
-0.00219273
-0.00219084
-0.00217167
-0.00213354
-0.00207481
-0.00199398
-0.0018897
-0.00176085
-0.00160659
-0.00142644
-0.00122027
-0.000988423
-0.000731687
-0.000451368
-0.000149302
0.000172134
0.000510019
0.000860901
0.00122083
0.0015854
0.00194979
0.00230889
0.00265735
0.00298968
0.0033004
0.00358415
0.00383582
0.0040507
0.00422458
0.00435389
0.00443579
0.00446831
0.00445033
0.0043817
0.0042632
0.00409653
0.00388427
0.00362981
0.00333722
0.00301114
0.00265666
0.00227919
0.00188426
0.00147742
0.00106416
0.000650049
0.000240464
-0.000164664
-0.000574526
-0.000931761
0.00218977
0.00167133
0.00114085
0.00069721
0.000312159
-2.81843e-05
-0.000328501
-0.00059337
-0.000827696
-0.00103605
-0.00122252
-0.00139073
-0.00154378
-0.00168429
-0.00181437
-0.00193567
-0.00204933
-0.00215606
-0.00225615
-0.00234947
-0.00243554
-0.00251354
-0.00258238
-0.00264067
-0.00268685
-0.00271919
-0.00273581
-0.00273482
-0.00271428
-0.0026723
-0.00260711
-0.0025171
-0.00240087
-0.00225732
-0.00208568
-0.00188558
-0.00165712
-0.00140088
-0.00111797
-0.000810092
-0.000479514
-0.000129113
0.00023765
0.000616746
0.00100362
0.00139324
0.00178019
0.00215873
0.00252295
0.00286684
0.00318447
0.0034701
0.00371834
0.00392433
0.00408379
0.00419324
0.00425005
0.00425256
0.00420012
0.0040931
0.00393293
0.003722
0.00346364
0.00316199
0.00282189
0.00244873
0.00204829
0.0016266
0.00118973
0.00074375
0.000294881
-0.000150863
-0.000593442
-0.00104285
-0.00143553
0.00196482
0.00142419
0.000871535
0.000409985
9.8224e-06
-0.000343699
-0.00065571
-0.00093122
-0.00117555
-0.00139366
-0.00158995
-0.00176833
-0.00193211
-0.0020841
-0.00222654
-0.00236115
-0.00248914
-0.00261122
-0.00272766
-0.00283829
-0.00294254
-0.0030395
-0.00312792
-0.00320628
-0.00327285
-0.00332567
-0.00336267
-0.00338171
-0.00338058
-0.00335715
-0.00330935
-0.00323527
-0.00313322
-0.00300179
-0.00283992
-0.00264695
-0.0024227
-0.00216749
-0.00188223
-0.00156841
-0.00122819
-0.000864339
-0.000480315
-8.01945e-05
0.000331336
0.000749036
0.00116718
0.00157966
0.00198006
0.00236184
0.00271843
0.0030434
0.00333063
0.00357445
0.00376983
0.00391252
0.00399915
0.00402738
0.00399597
0.00390481
0.00375495
0.00354856
0.00328886
0.00298005
0.00262716
0.00223588
0.00181244
0.00136339
0.000895407
0.000415207
-7.02606e-05
-0.000554263
-0.00103662
-0.00152817
-0.00195869
0.00167161
0.0011103
0.000536943
5.86293e-05
-0.000355772
-0.000721834
-0.00104513
-0.0013311
-0.00158547
-0.00181355
-0.00202009
-0.00220923
-0.00238451
-0.0025489
-0.00270477
-0.00285389
-0.00299753
-0.0031364
-0.00327074
-0.00340032
-0.0035245
-0.00364222
-0.00375213
-0.00385254
-0.0039415
-0.00401688
-0.00407637
-0.00411756
-0.004138
-0.00413524
-0.00410691
-0.00405079
-0.00396486
-0.00384737
-0.00369694
-0.00351257
-0.00329376
-0.00304054
-0.00275356
-0.00243408
-0.00208405
-0.00170616
-0.00130378
-0.000881004
-0.000442633
5.89783e-06
0.000458572
0.000908879
0.00134992
0.00177456
0.00217554
0.00254566
0.00287799
0.003166
0.00340375
0.0035861
0.00370885
0.00376884
0.00376413
0.00369401
0.00355908
0.00336118
0.00310339
0.00278993
0.00242599
0.00201761
0.00157147
0.00109472
0.000594695
7.88432e-05
-0.000445086
-0.00096955
-0.0014942
-0.00203078
-0.00250185
0.00130676
0.000726359
0.000133867
-0.000360015
-0.00078774
-0.00116568
-0.00149983
-0.00179606
-0.00206048
-0.00229878
-0.00251598
-0.00271648
-0.00290405
-0.00308179
-0.00325216
-0.00341705
-0.00357772
-0.00373489
-0.00388877
-0.00403905
-0.00418501
-0.00432547
-0.00445893
-0.00458353
-0.00469713
-0.00479738
-0.00488173
-0.0049475
-0.00499194
-0.00501231
-0.00500591
-0.00497017
-0.00490271
-0.00480141
-0.00466452
-0.00449067
-0.004279
-0.0040292
-0.00374158
-0.00341713
-0.00305759
-0.00266543
-0.00224393
-0.00179718
-0.00133002
-0.000848072
-0.000357622
0.000134423
0.00062066
0.00109332
0.00154442
0.00196594
0.00235002
0.00268916
0.00297642
0.00320565
0.00337164
0.00347031
0.00349886
0.00345587
0.00334135
0.00315673
0.00290487
0.00258996
0.00221733
0.00179337
0.00132525
0.00082075
0.000287951
-0.000264902
-0.000829163
-0.00139639
-0.00196604
-0.00255082
-0.00306547
0.000867194
0.000269362
-0.000340638
-0.000848842
-0.00128894
-0.00167806
-0.00202263
-0.00232891
-0.0026034
-0.00285213
-0.00308042
-0.00329292
-0.00349356
-0.00368561
-0.00387164
-0.00405357
-0.00423271
-0.00440976
-0.00458489
-0.00475773
-0.00492745
-0.00509275
-0.00525199
-0.00540312
-0.00554381
-0.00567147
-0.00578331
-0.00587636
-0.00594758
-0.0059939
-0.00601225
-0.0059997
-0.00595348
-0.00587108
-0.0057503
-0.00558939
-0.00538705
-0.00514258
-0.00485593
-0.00452772
-0.0041594
-0.00375321
-0.00331227
-0.00284058
-0.002343
-0.00182529
-0.00129397
-0.000756352
-0.000220335
0.000305659
0.000812874
0.0012924
0.00173537
0.00213321
0.00247785
0.00276197
0.00297922
0.00312442
0.00319378
0.00318498
0.00309732
0.0029317
0.00269067
0.00237829
0.00200003
0.0015626
0.00107369
0.000541747
-2.4333e-05
-0.000615413
-0.00122186
-0.00183425
-0.00245179
-0.00308822
-0.0036498
0.000350098
-0.00026342
-0.000889228
-0.00141046
-0.00186196
-0.00226154
-0.00261607
-0.00293218
-0.00321676
-0.00347615
-0.00371597
-0.00394109
-0.00415563
-0.00436298
-0.00456582
-0.00476612
-0.00496521
-0.00516379
-0.00536196
-0.0055593
-0.00575487
-0.00594725
-0.00613464
-0.00631481
-0.00648524
-0.00664309
-0.00678531
-0.00690864
-0.00700973
-0.00708515
-0.00713146
-0.00714534
-0.00712357
-0.00706322
-0.00696163
-0.00681658
-0.0066263
-0.00638964
-0.00610609
-0.00577588
-0.00540008
-0.00498063
-0.00452041
-0.00402326
-0.00349403
-0.00293853
-0.00236352
-0.00177664
-0.0011863
-0.00060159
-3.20688e-05
0.000512395
0.00102186
0.00148656
0.00189714
0.00224499
0.00252243
0.00272302
0.00284176
0.00287529
0.00282201
0.00268216
0.00245782
0.00215287
0.00177283
0.00132471
0.000816745
0.000258093
-0.000341479
-0.000971851
-0.0016223
-0.0022823
-0.00295079
-0.00364263
-0.00425478
-0.000247012
-0.000874401
-0.00151425
-0.00204718
-0.00250906
-0.00291838
-0.0032824
-0.00360812
-0.0039028
-0.00417309
-0.00442488
-0.00466325
-0.00489251
-0.00511617
-0.005337
-0.00555703
-0.0057776
-0.00599938
-0.00622246
-0.00644632
-0.00666992
-0.00689174
-0.00710979
-0.00732169
-0.00752469
-0.00771572
-0.00789145
-0.00804834
-0.00818269
-0.0082907
-0.00836856
-0.00841249
-0.00841884
-0.00838418
-0.00830536
-0.00817962
-0.00800469
-0.00777889
-0.00750118
-0.00717133
-0.00678996
-0.0063586
-0.00587983
-0.00535727
-0.00479564
-0.00420077
-0.00357958
-0.00294001
-0.00229096
-0.00164218
-0.00100406
-0.000387471
0.000196483
0.000736731
0.00122253
0.00164376
0.00199127
0.00225713
0.00243495
0.0025201
0.0025099
0.00240371
0.00220303
0.0019114
0.00153434
0.00107911
0.000554466
-2.96677e-05
-0.000662588
-0.0013331
-0.00202928
-0.00273938
-0.00346203
-0.00421329
-0.00487999
-0.000926278
-0.00156566
-0.00221773
-0.00276098
-0.00323221
-0.00365052
-0.00402355
-0.00435866
-0.00466344
-0.00494486
-0.00520906
-0.00546132
-0.00570612
-0.0059471
-0.00618712
-0.00642824
-0.00667183
-0.00691855
-0.00716842
-0.00742088
-0.00767478
-0.00792848
-0.00817982
-0.00842626
-0.00866483
-0.00889222
-0.00910482
-0.00929879
-0.00947008
-0.00961452
-0.00972786
-0.00980587
-0.00984444
-0.00983958
-0.00978761
-0.0096852
-0.00952949
-0.0093182
-0.00904972
-0.00872324
-0.00833885
-0.00789761
-0.00740168
-0.00685437
-0.00626019
-0.0056249
-0.0049555
-0.0042602
-0.00354833
-0.00283027
-0.00211726
-0.00142121
-0.000754465
-0.000129494
0.000441411
0.000946492
0.00137488
0.00171697
0.00196473
0.00211202
0.00215483
0.00209147
0.00192261
0.00165135
0.00128306
0.00082518
0.000286992
-0.000320799
-0.000986489
-0.00169771
-0.00244123
-0.00320393
-0.00398407
-0.00479902
-0.00552453
-0.00168948
-0.00233891
-0.00300132
-0.00355349
-0.00403302
-0.00445956
-0.0048411
-0.00518536
-0.00550025
-0.00579302
-0.00607005
-0.00633682
-0.00659798
-0.00685728
-0.00711766
-0.00738124
-0.00764939
-0.00792277
-0.00820137
-0.00848454
-0.00877105
-0.00905912
-0.00934648
-0.00963038
-0.00990765
-0.0101747
-0.0104278
-0.0106626
-0.0108747
-0.0110597
-0.0112128
-0.0113293
-0.0114046
-0.0114341
-0.0114136
-0.011339
-0.011207
-0.0110145
-0.0107593
-0.0104399
-0.0100558
-0.00960739
-0.00909641
-0.00852573
-0.00789954
-0.00722343
-0.00650439
-0.00575082
-0.00497241
-0.00418016
-0.00338611
-0.00260326
-0.00184522
-0.00112598
-0.000459501
0.000140629
0.00066164
0.00109198
0.00142172
0.00164295
0.00175007
0.00174004
0.00161252
0.00136992
0.00101734
0.000562313
1.45866e-05
-0.000614339
-0.00131169
-0.00206385
-0.0028561
-0.00367386
-0.00451494
-0.00539809
-0.00618696
-0.00253799
-0.00319549
-0.00386634
-0.00442599
-0.00491275
-0.00534674
-0.0057363
-0.00608946
-0.00641443
-0.00671875
-0.007009
-0.00729088
-0.00756917
-0.00784776
-0.00812965
-0.00841701
-0.00871125
-0.009013
-0.00932223
-0.00963822
-0.00995965
-0.0102846
-0.0106108
-0.0109351
-0.0112543
-0.0115646
-0.0118617
-0.0121413
-0.0123985
-0.0126284
-0.0128258
-0.0129855
-0.0131024
-0.0131713
-0.0131873
-0.0131457
-0.0130424
-0.0128736
-0.0126363
-0.0123284
-0.0119486
-0.0114966
-0.0109735
-0.0103816
-0.0097247
-0.00900813
-0.00823875
-0.007425
-0.00657691
-0.00570598
-0.00482505
-0.00394818
-0.00309031
-0.00226701
-0.00149405
-0.000787012
-0.000160795
0.000370855
0.000795836
0.00110414
0.00128827
0.00134353
0.0012683
0.00106407
0.000735434
0.000289924
-0.000262335
-0.000909051
-0.00163634
-0.00242921
-0.00327135
-0.00414653
-0.00505206
-0.00600814
-0.00686521
-0.00347279
-0.00413634
-0.00481368
-0.00537937
-0.00587228
-0.00631294
-0.00670999
-0.00707177
-0.00740679
-0.0077228
-0.00802664
-0.00832417
-0.00862033
-0.0089191
-0.00922358
-0.009536
-0.00985777
-0.0101896
-0.0105313
-0.0108821
-0.0112408
-0.0116052
-0.0119729
-0.0123407
-0.0127051
-0.013062
-0.0134071
-0.0137355
-0.014042
-0.0143214
-0.0145679
-0.0147759
-0.0149397
-0.0150533
-0.0151113
-0.0151082
-0.0150392
-0.0148996
-0.0146857
-0.0143944
-0.0140236
-0.0135723
-0.0130408
-0.0124308
-0.0117454
-0.0109896
-0.01017
-0.00929501
-0.0083748
-0.00742132
-0.00644816
-0.00547037
-0.00450426
-0.00356703
-0.00267638
-0.00185004
-0.00110527
-0.00045827
7.63732e-05
0.000486227
0.000761526
0.000895595
0.000885155
0.0007305
0.000435505
7.47546e-06
-0.00054317
-0.00120338
-0.00195813
-0.00279096
-0.00368382
-0.00461862
-0.00559213
-0.00662606
-0.00755643
-0.00449442
-0.00516199
-0.00584388
-0.00641415
-0.00691212
-0.00735864
-0.00776264
-0.00813275
-0.00847771
-0.00880553
-0.00912325
-0.0094369
-0.00975155
-0.0100713
-0.0103994
-0.010738
-0.0110887
-0.011452
-0.011828
-0.0122157
-0.0126138
-0.0130201
-0.013432
-0.0138463
-0.0142591
-0.0146663
-0.0150631
-0.0154444
-0.0158047
-0.0161382
-0.0164389
-0.0167004
-0.0169165
-0.0170806
-0.0171865
-0.0172279
-0.0171992
-0.017095
-0.0169104
-0.0166415
-0.0162853
-0.0158399
-0.0153047
-0.0146804
-0.0139697
-0.0131769
-0.0123082
-0.0113717
-0.0103779
-0.00933877
-0.00826868
-0.00718362
-0.00610119
-0.00504029
-0.00402063
-0.00306224
-0.00218495
-0.00140768
-0.000747839
-0.000220651
0.000161466
0.000389436
0.000457951
0.000365737
0.00011564
-0.000285483
-0.000827075
-0.0014954
-0.00227426
-0.00314565
-0.00408961
-0.00508605
-0.00613104
-0.00724789
-0.0082569
-0.00560298
-0.00627255
-0.00695704
-0.00753045
-0.00803238
-0.00848395
-0.00889434
-0.00927242
-0.00962718
-0.00996685
-0.0102986
-0.0106288
-0.0109624
-0.0113039
-0.0116564
-0.0120223
-0.012403
-0.0127993
-0.0132111
-0.0136376
-0.0140771
-0.0145277
-0.0149864
-0.0154499
-0.0159144
-0.0163752
-0.0168276
-0.0172659
-0.0176844
-0.0180769
-0.0184368
-0.0187572
-0.0190313
-0.0192518
-0.0194117
-0.0195041
-0.0195222
-0.0194598
-0.0193112
-0.0190712
-0.0187359
-0.0183024
-0.0177689
-0.0171354
-0.0164035
-0.0155768
-0.0146611
-0.0136642
-0.0125961
-0.0114694
-0.0102986
-0.00910061
-0.00789436
-0.00670041
-0.00554052
-0.00443719
-0.00341297
-0.0024898
-0.00168823
-0.00102668
-0.000520635
-0.000182043
-1.86932e-05
-3.38534e-05
-0.000226079
-0.000589259
-0.00111291
-0.00178272
-0.00258134
-0.00348912
-0.00448406
-0.00554383
-0.00666371
-0.00786868
-0.00896191
-0.00679812
-0.0074677
-0.00815287
-0.008728
-0.0092328
-0.00968859
-0.0101048
-0.0104904
-0.0108548
-0.0112062
-0.0115522
-0.011899
-0.0122521
-0.0126157
-0.0129933
-0.0133872
-0.0137991
-0.0142296
-0.0146786
-0.0151453
-0.0156283
-0.0161251
-0.0166331
-0.0171486
-0.0176677
-0.0181856
-0.0186971
-0.0191965
-0.0196776
-0.0201337
-0.0205579
-0.0209426
-0.0212804
-0.0215634
-0.0217838
-0.0219337
-0.0220056
-0.021992
-0.0218864
-0.0216824
-0.021375
-0.02096
-0.0204346
-0.0197977
-0.0190498
-0.0181937
-0.0172342
-0.0161789
-0.0150374
-0.0138221
-0.0125479
-0.0112324
-0.00989562
-0.00855985
-0.00724892
-0.00598784
-0.0048021
-0.00371688
-0.00275623
-0.00194213
-0.00129366
-0.000826118
-0.000550293
-0.000471949
-0.000591495
-0.000903947
-0.00139917
-0.00206243
-0.00287528
-0.00381639
-0.00486154
-0.00598595
-0.00718399
-0.00848237
-0.00966558
-0.00807904
-0.00874669
-0.00943069
-0.0100061
-0.0105127
-0.0109719
-0.0113932
-0.011786
-0.0121596
-0.0125226
-0.0128827
-0.0132462
-0.0136189
-0.014005
-0.0144081
-0.0148307
-0.0152744
-0.0157399
-0.0162273
-0.0167358
-0.0172636
-0.0178087
-0.018368
-0.018938
-0.0195144
-0.0200924
-0.0206665
-0.0212308
-0.0217787
-0.022303
-0.0227964
-0.0232509
-0.0236582
-0.0240098
-0.0242971
-0.0245114
-0.024644
-0.0246866
-0.0246314
-0.024471
-0.024199
-0.02381
-0.0232999
-0.0226664
-0.0219087
-0.0210285
-0.0200298
-0.0189195
-0.0177066
-0.0164031
-0.0150241
-0.0135877
-0.0121148
-0.0106293
-0.00915721
-0.007726
-0.00636423
-0.00510056
-0.00396285