/*--------------------------------*- C++ -*----------------------------------*\
  =========                 |
  \\      /  F ield         | OpenFOAM: The Open Source CFD Toolbox
   \\    /   O peration     | Website:  https://openfoam.org
    \\  /    A nd           | Version:  12
     \\/     M anipulation  |
\*---------------------------------------------------------------------------*/
FoamFile
{
    format      ascii;
    class       surfaceScalarField;
    location    "9";
    object      phi;
}
// * * * * * * * * * * * * * * * * * * * * * * * * * * * * * * * * * * * * * //

dimensions      [0 3 -1 0 0 0 0];

internalField   nonuniform List<scalar> 
11100
(
2.94403e-10
-2.94422e-10
7.43905e-10
-4.49506e-10
1.06644e-09
-3.22533e-10
1.10822e-09
-4.17819e-11
8.02352e-10
3.05868e-10
1.2993e-10
6.72422e-10
-9.00915e-10
1.03085e-09
-2.26721e-09
1.3663e-09
-3.93833e-09
1.67112e-09
-5.88034e-09
1.94202e-09
-8.05863e-09
2.17829e-09
-1.04394e-08
2.38073e-09
-1.29903e-08
2.55098e-09
-1.56815e-08
2.69111e-09
-1.84848e-08
2.8033e-09
-2.13745e-08
2.8897e-09
-2.43268e-08
2.9523e-09
-2.73196e-08
2.99283e-09
-3.03324e-08
3.01278e-09
-3.33457e-08
3.01332e-09
-3.6341e-08
2.99533e-09
-3.93005e-08
2.95945e-09
-4.22065e-08
2.90605e-09
-4.50418e-08
2.83531e-09
-4.77891e-08
2.74726e-09
-5.04309e-08
2.6418e-09
-5.29497e-08
2.51879e-09
-5.53278e-08
2.37807e-09
-5.75473e-08
2.2195e-09
-5.95903e-08
2.04305e-09
-6.14391e-08
1.84882e-09
-6.30762e-08
1.63708e-09
-6.44845e-08
1.4083e-09
-6.56477e-08
1.16321e-09
-6.65505e-08
9.0281e-10
-6.71789e-08
6.28359e-10
-6.75204e-08
3.41498e-10
-6.7565e-08
4.46045e-11
-6.73041e-08
-2.60949e-10
-6.67321e-08
-5.71962e-10
-6.58464e-08
-8.85718e-10
-6.46473e-08
-1.19908e-09
-6.31386e-08
-1.50868e-09
-6.13277e-08
-1.81094e-09
-5.92255e-08
-2.10216e-09
-5.68469e-08
-2.37856e-09
-5.42106e-08
-2.63634e-09
-5.13389e-08
-2.87174e-09
-4.82577e-08
-3.08118e-09
-4.49965e-08
-3.26123e-09
-4.15876e-08
-3.40881e-09
-3.80665e-08
-3.52115e-09
-3.44706e-08
-3.59593e-09
-3.08392e-08
-3.63134e-09
-2.72131e-08
-3.6261e-09
-2.36336e-08
-3.57953e-09
-2.0142e-08
-3.49158e-09
-1.67792e-08
-3.36286e-09
-1.35845e-08
-3.19462e-09
-1.05957e-08
-2.9888e-09
-7.84773e-09
-2.74799e-09
-5.37228e-09
-2.47545e-09
-3.19718e-09
-2.1751e-09
-1.34564e-09
-1.85154e-09
1.64541e-10
-1.51018e-09
1.32184e-09
-1.1573e-09
2.12216e-09
-8.00319e-10
2.57046e-09
-4.483e-10
2.68311e-09
-1.1265e-10
2.49142e-09
1.91687e-10
2.04709e-09
4.44332e-10
1.43021e-09
6.16881e-10
7.61344e-10
6.68868e-10
2.16951e-10
5.44393e-10
2.16951e-10
4.52816e-10
-7.47219e-10
1.00995e-09
-1.00663e-09
1.15554e-09
-4.68127e-10
5.9724e-10
5.16515e-10
-8.15889e-10
1.71899e-09
-3.14016e-09
2.99668e-09
-6.37059e-09
4.26128e-09
-1.0464e-08
5.45966e-09
-1.53544e-08
6.56154e-09
-2.09637e-08
7.55137e-09
-2.72084e-08
8.423e-09
-3.40039e-08
9.17619e-09
-4.12672e-08
9.81433e-09
-4.8919e-08
1.03428e-08
-5.68838e-08
1.07681e-08
-6.50907e-08
1.10967e-08
-7.34734e-08
1.13349e-08
-8.19691e-08
1.14886e-08
-9.05189e-08
1.15626e-08
-9.90665e-08
1.1561e-08
-1.07558e-07
1.14869e-08
-1.15941e-07
1.13427e-08
-1.24165e-07
1.11298e-08
-1.32179e-07
1.08491e-08
-1.39933e-07
1.0501e-08
-1.47376e-07
1.00855e-08
-1.5446e-07
9.60226e-09
-1.61133e-07
9.05122e-09
-1.67346e-07
8.4323e-09
-1.73048e-07
7.74581e-09
-1.78192e-07
6.99254e-09
-1.82729e-07
6.17395e-09
-1.86613e-07
5.29227e-09
-1.898e-07
4.35061e-09
-1.92251e-07
3.3531e-09
-1.93927e-07
2.30482e-09
-1.94798e-07
1.21214e-09
-1.94836e-07
8.32107e-11
-1.94023e-07
-1.07447e-09
-1.92344e-07
-2.2507e-09
-1.89795e-07
-3.43475e-09
-1.86379e-07
-4.61495e-09
-1.82109e-07
-5.77882e-09
-1.77007e-07
-6.91325e-09
-1.71104e-07
-8.00466e-09
-1.64444e-07
-9.0392e-09
-1.57077e-07
-1.00031e-08
-1.49066e-07
-1.08827e-08
-1.40482e-07
-1.16649e-08
-1.31406e-07
-1.23376e-08
-1.21925e-07
-1.28895e-08
-1.12136e-07
-1.33106e-08
-1.02139e-07
-1.35929e-08
-9.20405e-08
-1.37296e-08
-8.19502e-08
-1.37165e-08
-7.19786e-08
-1.35511e-08
-6.22368e-08
-1.32334e-08
-5.28339e-08
-1.27658e-08
-4.38753e-08
-1.21532e-08
-3.54612e-08
-1.14029e-08
-2.76845e-08
-1.05247e-08
-2.06291e-08
-9.53086e-09
-1.43678e-08
-8.43637e-09
-8.96056e-09
-7.25879e-09
-4.45208e-09
-6.01866e-09
-8.69504e-10
-4.73988e-09
1.78074e-09
-3.45057e-09
3.51673e-09
-2.18428e-09
4.38616e-09
-9.82079e-10
4.4733e-09
1.04543e-10
3.90821e-09
1.00942e-09
2.87866e-09
1.64643e-09
1.64382e-09
1.90372e-09
5.42942e-10
1.64527e-09
7.59893e-10
3.3029e-10
-1.07748e-09
4.78852e-10
-1.15518e-09
-1.12052e-10
1.22774e-10
-1.77682e-09
2.18126e-09
-4.69988e-09
4.64203e-09
-8.95678e-09
7.25356e-09
-1.45461e-08
9.85062e-09
-2.14144e-08
1.23279e-08
-2.94744e-08
1.46216e-08
-3.86187e-08
1.66957e-08
-4.8729e-08
1.85333e-08
-5.96827e-08
2.01298e-08
-7.13573e-08
2.14889e-08
-8.36333e-08
2.26189e-08
-9.63958e-08
2.35306e-08
-1.09535e-07
2.4236e-08
-1.22947e-07
2.47469e-08
-1.36533e-07
2.50743e-08
-1.50198e-07
2.52276e-08
-1.63852e-07
2.52151e-08
-1.77408e-07
2.5043e-08
-1.90782e-07
2.47162e-08
-2.0389e-07
2.42379e-08
-2.16651e-07
2.36102e-08
-2.28984e-07
2.28343e-08
-2.40809e-07
2.19105e-08
-2.52046e-07
2.08391e-08
-2.62615e-07
1.96201e-08
-2.72437e-07
1.82543e-08
-2.81434e-07
1.67429e-08
-2.8953e-07
1.50884e-08
-2.96651e-07
1.32945e-08
-3.02725e-07
1.13667e-08
-3.07687e-07
9.31227e-09
-3.11474e-07
7.14058e-09
-3.14033e-07
4.86321e-09
-3.15315e-07
2.49417e-09
-3.15281e-07
4.9989e-11
-3.13905e-07
-2.45117e-09
-3.11167e-07
-4.98833e-09
-3.07063e-07
-7.53851e-09
-3.01601e-07
-1.00769e-08
-2.94803e-07
-1.2577e-08
-2.86705e-07
-1.50111e-08
-2.77359e-07
-1.73506e-08
-2.66832e-07
-1.95665e-08
-2.55205e-07
-2.16299e-08
-2.42576e-07
-2.35124e-08
-2.29054e-07
-2.51866e-08
-2.14764e-07
-2.66272e-08
-1.99843e-07
-2.78107e-08
-1.84437e-07
-2.87167e-08
-1.68702e-07
-2.93281e-08
-1.528e-07
-2.96314e-08
-1.36899e-07
-2.96175e-08
-1.21168e-07
-2.92818e-08
-1.05777e-07
-2.86244e-08
-9.08923e-08
-2.76507e-08
-7.66745e-08
-2.6371e-08
-6.32762e-08
-2.48012e-08
-5.08387e-08
-2.29623e-08
-3.94888e-08
-2.08807e-08
-2.93365e-08
-1.85886e-08
-2.04715e-08
-1.61238e-08
-1.29598e-08
-1.35303e-08
-6.84031e-09
-1.08594e-08
-2.12018e-09
-8.17069e-09
1.22987e-09
-5.53434e-09
3.28202e-09
-3.03423e-09
4.15883e-09
-7.72266e-10
4.04245e-09
1.1258e-09
3.18508e-09
2.5038e-09
1.91959e-09
3.1692e-09
6.71468e-10
2.89339e-09
1.43136e-09
4.95695e-11
-1.12701e-09
-5.17817e-10
-5.87769e-10
-2.2055e-09
1.81045e-09
-5.32967e-09
5.30541e-09
-1.00681e-08
9.38041e-09
-1.64928e-08
1.36783e-08
-2.45967e-08
1.79544e-08
-3.43149e-08
2.20462e-08
-4.55435e-08
2.58502e-08
-5.8153e-08
2.93052e-08
-7.19988e-08
3.23791e-08
-8.69291e-08
3.50601e-08
-1.0279e-07
3.735e-08
-1.1943e-07
3.92587e-08
-1.367e-07
4.08011e-08
-1.54459e-07
4.19946e-08
-1.72569e-07
4.28566e-08
-1.90898e-07
4.34038e-08
-2.09322e-07
4.36511e-08
-2.27718e-07
4.36111e-08
-2.45969e-07
4.32941e-08
-2.63961e-07
4.27078e-08
-2.81581e-07
4.1858e-08
-2.98719e-07
4.07483e-08
-3.15266e-07
3.93811e-08
-3.31113e-07
3.77578e-08
-3.46153e-07
3.58794e-08
-3.6028e-07
3.37472e-08
-3.73389e-07
3.1363e-08
-3.85376e-07
2.87301e-08
-3.96141e-07
2.58536e-08
-4.05588e-07
2.27409e-08
-4.13623e-07
1.94021e-08
-4.20161e-07
1.58507e-08
-4.25124e-07
1.21033e-08
-4.28441e-07
8.18035e-09
-4.30053e-07
4.10612e-09
-4.29912e-07
-9.12135e-11
-4.27983e-07
-4.37994e-09
-4.24247e-07
-8.72451e-09
-4.187e-07
-1.3086e-08
-4.11354e-07
-1.74224e-08
-4.02242e-07
-2.16892e-08
-3.91413e-07
-2.58399e-08
-3.78937e-07
-2.98266e-08
-3.64903e-07
-3.36009e-08
-3.49418e-07
-3.71143e-08
-3.32611e-07
-4.03197e-08
-3.14626e-07
-4.31718e-08
-2.95625e-07
-4.56281e-08
-2.75786e-07
-4.765e-08
-2.55299e-07
-4.92037e-08
-2.34366e-07
-5.02607e-08
-2.13199e-07
-5.07989e-08
-1.92013e-07
-5.08033e-08
-1.71028e-07
-5.02664e-08
-1.50464e-07
-4.91889e-08
-1.30534e-07
-4.75798e-08
-1.11448e-07
-4.5457e-08
-9.34026e-08
-4.2847e-08
-7.6579e-08
-3.97859e-08
-6.11413e-08
-3.63184e-08
-4.72309e-08
-3.24991e-08
-3.49627e-08
-2.83919e-08
-2.44215e-08
-2.40716e-08
-1.56566e-08
-1.96243e-08
-8.67778e-09
-1.51495e-08
-3.44921e-09
-1.07629e-08
1.16489e-10
-6.59993e-09
2.16544e-09
-2.82121e-09
2.9102e-09
3.81032e-10
2.63849e-09
2.77552e-09
1.72267e-09
4.08501e-09
6.36112e-10
3.97995e-09
2.06747e-09
-3.08936e-10
-8.18024e-10
-1.77319e-09
8.76504e-10
-4.78957e-09
4.82682e-09
-9.6151e-09
1.01309e-08
-1.63919e-08
1.61571e-08
-2.51685e-08
2.24549e-08
-3.59197e-08
2.87057e-08
-4.85644e-08
3.46908e-08
-6.29808e-08
4.02667e-08
-7.902e-08
4.53443e-08
-9.65154e-08
4.98745e-08
-1.15291e-07
5.38361e-08
-1.35169e-07
5.72271e-08
-1.55968e-07
6.00581e-08
-1.77514e-07
6.23472e-08
-1.99636e-07
6.41165e-08
-2.22168e-07
6.53891e-08
-2.44952e-07
6.61874e-08
-2.67832e-07
6.65316e-08
-2.90661e-07
6.64393e-08
-3.13291e-07
6.59249e-08
-3.35583e-07
6.49996e-08
-3.57397e-07
6.36717e-08
-3.78596e-07
6.19471e-08
-3.99044e-07
5.98298e-08
-4.18609e-07
5.73228e-08
-4.37158e-07
5.44284e-08
-4.54561e-07
5.11495e-08
-4.70688e-07
4.74903e-08
-4.85415e-07
4.34569e-08
-4.98619e-07
3.90582e-08
-5.10185e-07
3.43066e-08
-5.20001e-07
2.92185e-08
-5.27966e-07
2.3815e-08
-5.33985e-07
1.81221e-08
-5.37976e-07
1.21715e-08
-5.3987e-07
6.00005e-09
-5.39611e-07
-3.49638e-10
-5.37162e-07
-6.82957e-09
-5.325e-07
-1.33865e-08
-5.25623e-07
-1.99622e-08
-5.16552e-07
-2.64942e-08
-5.05324e-07
-3.29165e-08
-4.92004e-07
-3.91602e-08
-4.76676e-07
-4.51544e-08
-4.5945e-07
-5.08277e-08
-4.40455e-07
-5.61089e-08
-4.19846e-07
-6.09285e-08
-3.97798e-07
-6.522e-08
-3.74505e-07
-6.8921e-08
-3.5018e-07
-7.1975e-08
-3.25052e-07
-7.43321e-08
-2.99361e-07
-7.59508e-08
-2.73361e-07
-7.67988e-08
-2.47311e-07
-7.68541e-08
-2.21471e-07
-7.61058e-08
-1.96105e-07
-7.4555e-08
-1.7147e-07
-7.22155e-08
-1.47813e-07
-6.91137e-08
-1.2537e-07
-6.52895e-08
-1.0436e-07
-6.07962e-08
-8.49777e-08
-5.57008e-08
-6.73926e-08
-5.00841e-08
-5.1743e-08
-4.40415e-08
-3.81309e-08
-3.76837e-08
-2.66174e-08
-3.11378e-08
-1.72176e-08
-2.45493e-08
-9.89508e-09
-1.80854e-08
-4.55593e-09
-1.19391e-08
-1.04297e-09
-6.33418e-09
8.70867e-10
-1.5328e-09
1.48939e-09
2.15699e-09
1.20165e-09
4.37276e-09
4.9701e-10
4.68459e-09
2.56448e-09
-7.02686e-10
-1.15279e-10
-3.16286e-09
3.33671e-09
-7.6489e-09
9.31286e-09
-1.43341e-08
1.68161e-08
-2.33038e-08
2.51268e-08
-3.4567e-08
3.37181e-08
-4.8069e-08
4.22077e-08
-6.37051e-08
5.03269e-08
-8.13327e-08
5.78943e-08
-1.00783e-07
6.47943e-08
-1.21868e-07
7.09601e-08
-1.44392e-07
7.63604e-08
-1.68154e-07
8.09888e-08
-1.92952e-07
8.48555e-08
-2.18585e-07
8.79811e-08
-2.44861e-07
9.0392e-08
-2.71588e-07
9.21164e-08
-2.98583e-07
9.31822e-08
-3.25667e-07
9.36151e-08
-3.52665e-07
9.34375e-08
-3.79408e-07
9.2668e-08
-4.0573e-07
9.13214e-08
-4.31467e-07
8.9409e-08
-4.56459e-07
8.69392e-08
-4.80547e-07
8.3918e-08
-5.03575e-07
8.03504e-08
-5.25387e-07
7.62407e-08
-5.45832e-07
7.15942e-08
-5.6476e-07
6.64181e-08
-5.82025e-07
6.07224e-08
-5.97488e-07
5.45209e-08
-6.11014e-07
4.78322e-08
-6.22476e-07
4.06806e-08
-6.31757e-07
3.30965e-08
-6.38752e-07
2.51173e-08
-6.43368e-07
1.67874e-08
-6.45527e-07
8.15884e-09
-6.45168e-07
-7.09005e-10
-6.42248e-07
-9.74941e-09
-6.36746e-07
-1.88887e-08
-6.28661e-07
-2.80467e-08
-6.18018e-07
-3.71375e-08
-6.04864e-07
-4.60705e-08
-5.89273e-07
-5.47515e-08
-5.71343e-07
-6.30838e-08
-5.51201e-07
-7.09697e-08
-5.28998e-07
-7.83123e-08
-5.04909e-07
-8.50171e-08
-4.79136e-07
-9.09934e-08
-4.519e-07
-9.61564e-08
-4.23446e-07
-1.00429e-07
-3.94034e-07
-1.03744e-07
-3.6394e-07
-1.06045e-07
-3.33452e-07
-1.07287e-07
-3.02866e-07
-1.0744e-07
-2.72482e-07
-1.0649e-07
-2.42598e-07
-1.04439e-07
-2.13509e-07
-1.01305e-07
-1.85499e-07
-9.71234e-08
-1.58839e-07
-9.19501e-08
-1.33777e-07
-8.58576e-08
-1.1054e-07
-7.89377e-08
-8.93234e-08
-7.13011e-08
-7.02866e-08
-6.30783e-08
-5.35503e-08
-5.44201e-08
-3.91891e-08
-4.5499e-08
-2.72273e-08
-3.65111e-08
-1.76332e-08
-2.76795e-08
-1.03145e-08
-1.92578e-08
-5.11282e-09
-1.15359e-08
-1.79873e-09
-4.84689e-09
-6.67423e-11
4.25001e-10
4.71229e-10
3.83479e-09
2.9586e-10
4.85995e-09
2.86034e-09
-1.10865e-09
9.93434e-10
-4.61217e-09
6.84026e-09
-1.06456e-08
1.53462e-08
-1.92856e-08
2.54561e-08
-3.05474e-08
3.63885e-08
-4.43878e-08
4.75584e-08
-6.07131e-08
5.8533e-08
-7.9388e-08
6.90018e-08
-1.00245e-07
7.8751e-08
-1.23092e-07
8.76415e-08
-1.47722e-07
9.55905e-08
-1.73919e-07
1.02557e-07
-2.01461e-07
1.08531e-07
-2.30126e-07
1.1352e-07
-2.59694e-07
1.1755e-07
-2.8995e-07
1.20648e-07
-3.20682e-07
1.22849e-07
-3.51686e-07
1.24186e-07
-3.82759e-07
1.24689e-07
-4.13707e-07
1.24385e-07
-4.44337e-07
1.23298e-07
-4.74462e-07
1.21446e-07
-5.03896e-07
1.18844e-07
-5.32458e-07
1.15501e-07
-5.59968e-07
1.11428e-07
-5.86248e-07
1.0663e-07
-6.11124e-07
1.01116e-07
-6.34423e-07
9.48937e-08
-6.55978e-07
8.79734e-08
-6.75626e-07
8.03704e-08
-6.9321e-07
7.21043e-08
-7.08579e-07
6.32014e-08
-7.21593e-07
5.36948e-08
-7.32123e-07
4.36261e-08
-7.40051e-07
3.30452e-08
-7.45275e-07
2.20117e-08
-7.4771e-07
1.05943e-08
-7.4729e-07
-1.12878e-09
-7.4397e-07
-1.30698e-08
-7.37726e-07
-2.51325e-08
-7.28561e-07
-3.72123e-08
-7.16501e-07
-4.91975e-08
-7.01601e-07
-6.09703e-08
-6.83944e-07
-7.24086e-08
-6.6364e-07
-8.33872e-08
-6.4083e-07
-9.37799e-08
-6.15681e-07
-1.03461e-07
-5.88389e-07
-1.12309e-07
-5.59176e-07
-1.20206e-07
-5.28289e-07
-1.27043e-07
-4.95998e-07
-1.32721e-07
-4.62591e-07
-1.37151e-07
-4.28375e-07
-1.40261e-07
-3.93669e-07
-1.41993e-07
-3.58801e-07
-1.42308e-07
-3.24104e-07
-1.41187e-07
-2.8991e-07
-1.38632e-07
-2.56549e-07
-1.34666e-07
-2.24337e-07
-1.29336e-07
-1.93575e-07
-1.22712e-07
-1.64544e-07
-1.14889e-07
-1.37497e-07
-1.05984e-07
-1.12655e-07
-9.61425e-08
-9.02023e-08
-8.55314e-08
-7.02773e-08
-7.43451e-08
-5.29714e-08
-6.28049e-08
-3.83219e-08
-5.11607e-08
-2.63074e-08
-3.96939e-08
-1.68438e-08
-2.87214e-08
-9.77956e-09
-1.86001e-08
-4.89254e-09
-9.73391e-09
-1.88648e-09
-2.58106e-09
-3.87609e-10
2.33592e-09
5.98804e-11
4.41246e-09
2.92022e-09
-1.51448e-09
2.50799e-09
-6.07691e-09
1.14027e-08
-1.36924e-08
2.29617e-08
-2.43363e-08
3.61e-08
-3.79454e-08
4.99975e-08
-5.44161e-08
6.40291e-08
-7.36082e-08
7.7725e-08
-9.53495e-08
9.07431e-08
-1.19443e-07
1.02844e-07
-1.45672e-07
1.1387e-07
-1.73807e-07
1.23726e-07
-2.03613e-07
1.32362e-07
-2.34848e-07
1.39765e-07
-2.67272e-07
1.45945e-07
-3.00647e-07
1.50925e-07
-3.34739e-07
1.5474e-07
-3.69318e-07
1.57428e-07
-4.0416e-07
1.59027e-07
-4.39044e-07
1.59573e-07
-4.73756e-07
1.59097e-07
-5.08085e-07
1.57627e-07
-5.41823e-07
1.55184e-07
-5.74767e-07
1.51787e-07
-6.06715e-07
1.47449e-07
-6.37468e-07
1.42181e-07
-6.66831e-07
1.35993e-07
-6.94611e-07
1.28896e-07
-7.20619e-07
1.20901e-07
-7.4467e-07
1.12024e-07
-7.66585e-07
1.02285e-07
-7.86192e-07
9.17113e-08
-8.03327e-07
8.03367e-08
-8.17837e-07
6.8205e-08
-8.29581e-07
5.537e-08
-8.38432e-07
4.1896e-08
-8.44279e-07
2.78586e-08
-8.4703e-07
1.33452e-08
-8.46613e-07
-1.54527e-09
-8.42981e-07
-1.67026e-08
-8.36107e-07
-3.20058e-08
-8.25996e-07
-4.73239e-08
-8.12676e-07
-6.25172e-08
-7.96207e-07
-7.7439e-08
-7.76679e-07
-9.19367e-08
-7.54212e-07
-1.05854e-07
-7.28957e-07
-1.19035e-07
-7.01095e-07
-1.31323e-07
-6.7084e-07
-1.42565e-07
-6.3843e-07
-1.52616e-07
-6.04134e-07
-1.61339e-07
-5.68244e-07
-1.68611e-07
-5.31074e-07
-1.74322e-07
-4.92955e-07
-1.78379e-07
-4.54236e-07
-1.80712e-07
-4.15275e-07
-1.8127e-07
-3.76433e-07
-1.80029e-07
-3.38076e-07
-1.76989e-07
-3.00561e-07
-1.7218e-07
-2.64238e-07
-1.65659e-07
-2.29439e-07
-1.57511e-07
-1.96473e-07
-1.47855e-07
-1.65622e-07
-1.36836e-07
-1.37133e-07
-1.24632e-07
-1.11213e-07
-1.11451e-07
-8.80236e-08
-9.75343e-08
-6.76754e-08
-8.31531e-08
-5.02227e-08
-6.86134e-08
-3.56594e-08
-5.42572e-08
-2.39153e-08
-4.04655e-08
-1.48526e-08
-2.76629e-08
-8.26369e-09
-1.63228e-08
-3.86978e-09
-6.97497e-09
-1.32038e-09
-2.13477e-10
-1.93697e-10
3.28578e-09
2.72653e-09
-1.91371e-09
4.42179e-09
-7.53133e-09
1.70204e-08
-1.67349e-08
3.21653e-08
-2.93984e-08
4.87634e-08
-4.53764e-08
6.59754e-08
-6.44997e-08
8.31524e-08
-8.65761e-08
9.98013e-08
-1.11392e-07
1.15559e-07
-1.38716e-07
1.30169e-07
-1.68305e-07
1.43459e-07
-1.99906e-07
1.55327e-07
-2.33262e-07
1.65719e-07
-2.68114e-07
1.74618e-07
-3.04205e-07
1.82035e-07
-3.41278e-07
1.87998e-07
-3.79084e-07
1.92546e-07
-4.17375e-07
1.9572e-07
-4.55912e-07
1.97564e-07
-4.94456e-07
1.98118e-07
-5.32778e-07
1.97419e-07
-5.70648e-07
1.95497e-07
-6.07843e-07
1.92379e-07
-6.44142e-07
1.88086e-07
-6.79326e-07
1.82633e-07
-7.1318e-07
1.76035e-07
-7.45493e-07
1.68306e-07
-7.76055e-07
1.59458e-07
-8.04661e-07
1.49508e-07
-8.31113e-07
1.38476e-07
-8.55217e-07
1.26389e-07
-8.76787e-07
1.13281e-07
-8.95647e-07
9.91966e-08
-9.11632e-07
8.41898e-08
-9.2459e-07
6.83279e-08
-9.34384e-07
5.16904e-08
-9.40896e-07
3.43708e-08
-9.44027e-07
1.64762e-08
-9.437e-07
-1.87266e-09
-9.39861e-07
-2.05412e-08
-9.32485e-07
-3.93822e-08
-9.21572e-07
-5.82368e-08
-9.07154e-07
-7.69355e-08
-8.89292e-07
-9.53006e-08
-8.68081e-07
-1.13147e-07
-8.43648e-07
-1.30287e-07
-8.16153e-07
-1.4653e-07
-7.85789e-07
-1.61687e-07
-7.5278e-07
-1.75574e-07
-7.17382e-07
-1.88014e-07
-6.7988e-07
-1.98841e-07
-6.40586e-07
-2.07905e-07
-5.99836e-07
-2.15072e-07
-5.57985e-07
-2.2023e-07
-5.15407e-07
-2.2329e-07
-4.72485e-07
-2.24191e-07
-4.29613e-07
-2.22902e-07
-3.87182e-07
-2.1942e-07
-3.45581e-07
-2.1378e-07
-3.05191e-07
-2.06049e-07
-2.66373e-07
-1.9633e-07
-2.29466e-07
-1.84761e-07
-1.94782e-07
-1.7152e-07
-1.62594e-07
-1.56819e-07
-1.33137e-07
-1.40908e-07
-1.06596e-07
-1.24075e-07
-8.31048e-08
-1.06644e-07
-6.27386e-08
-8.89796e-08
-4.55113e-08
-7.14844e-08
-3.13718e-08
-5.4605e-08
-2.02013e-08
-3.88333e-08
-1.18127e-08
-2.47114e-08
-5.95036e-09
-1.28373e-08
-2.29228e-09
-3.87155e-09
-4.54493e-10
1.44799e-09
2.27203e-09
-2.30311e-09
6.72499e-09
-8.96061e-09
2.36779e-08
-1.97394e-08
4.29441e-08
-3.44145e-08
6.34385e-08
-5.27574e-08
8.43182e-08
-7.45308e-08
1.04926e-07
-9.94866e-08
1.24757e-07
-1.27366e-07
1.43438e-07
-1.57902e-07
1.60705e-07
-1.90821e-07
1.76378e-07
-2.25844e-07
1.90351e-07
-2.62694e-07
2.02569e-07
-3.01093e-07
2.13016e-07
-3.40766e-07
2.21708e-07
-3.81442e-07
2.28674e-07
-4.22855e-07
2.33958e-07
-4.64744e-07
2.37609e-07
-5.06853e-07
2.39673e-07
-5.48931e-07
2.40196e-07
-5.90732e-07
2.3922e-07
-6.32013e-07
2.36779e-07
-6.72536e-07
2.32902e-07
-7.12064e-07
2.27614e-07
-7.50366e-07
2.20934e-07
-7.8721e-07
2.1288e-07
-8.2237e-07
2.03467e-07
-8.55625e-07
1.92712e-07
-8.86754e-07
1.80638e-07
-9.15545e-07
1.67268e-07
-9.41793e-07
1.52637e-07
-9.65298e-07
1.36787e-07
-9.85873e-07
1.19772e-07
-1.00334e-06
1.01659e-07
-1.01754e-06
8.25292e-08
-1.02833e-06
6.24781e-08
-1.03558e-06
4.16175e-08
-1.03918e-06
2.00755e-08
-1.03905e-06
-2.00391e-09
-1.03513e-06
-2.4461e-08
-1.02739e-06
-4.71211e-08
-1.01583e-06
-6.97959e-08
-1.00048e-06
-9.22848e-08
-9.81402e-07
-1.14377e-07
-9.58694e-07
-1.35855e-07
-9.32486e-07
-1.56495e-07
-9.02944e-07
-1.76072e-07
-8.70268e-07
-1.94363e-07
-8.34694e-07
-2.11148e-07
-7.96489e-07
-2.26218e-07
-7.55954e-07
-2.39377e-07
-7.13417e-07
-2.50442e-07
-6.69232e-07
-2.59257e-07
-6.23777e-07
-2.65684e-07
-5.77449e-07
-2.69618e-07
-5.30658e-07
-2.70983e-07
-4.83822e-07
-2.69738e-07
-4.37363e-07
-2.65879e-07
-3.91701e-07
-2.59443e-07
-3.47244e-07
-2.50506e-07
-3.04386e-07
-2.39187e-07
-2.63498e-07
-2.25649e-07
-2.2492e-07
-2.10098e-07
-1.88958e-07
-1.92781e-07
-1.55874e-07
-1.73993e-07
-1.25881e-07
-1.54068e-07
-9.91398e-08
-1.33386e-07
-7.57501e-08
-1.12369e-07
-5.57505e-08
-9.14841e-08
-3.9113e-08
-7.12425e-08
-2.57429e-08
-5.22035e-08
-1.54772e-08
-3.4977e-08
-8.08749e-09
-2.02271e-08
-3.28271e-09
-8.67634e-09
-7.16737e-10
-1.11798e-09
1.5553e-09
-2.68117e-09
9.40626e-09
-1.03563e-08
3.13531e-08
-2.2685e-08
5.52728e-08
-3.93468e-08
8.01003e-08
-6.00315e-08
1.05003e-07
-8.44324e-08
1.29327e-07
-1.12244e-07
1.52569e-07
-1.4316e-07
1.74355e-07
-1.76875e-07
1.9442e-07
-2.13083e-07
2.12586e-07
-2.5148e-07
2.28748e-07
-2.91766e-07
2.42854e-07
-3.33643e-07
2.54893e-07
-3.7682e-07
2.64885e-07
-4.21011e-07
2.72865e-07
-4.65937e-07
2.78884e-07
-5.11322e-07
2.82994e-07
-5.56898e-07
2.85249e-07
-6.02401e-07
2.85699e-07
-6.47573e-07
2.84391e-07
-6.92157e-07
2.81363e-07
-7.35902e-07
2.76647e-07
-7.7856e-07
2.70272e-07
-8.19886e-07
2.62259e-07
-8.59636e-07
2.5263e-07
-8.97571e-07
2.41402e-07
-9.33456e-07
2.28598e-07
-9.67061e-07
2.14242e-07
-9.9816e-07
1.98367e-07
-1.02654e-06
1.81012e-07
-1.05198e-06
1.62229e-07
-1.07429e-06
1.42082e-07
-1.09328e-06
1.20651e-07
-1.10878e-06
9.80309e-08
-1.12064e-06
7.43343e-08
-1.12871e-06
4.96924e-08
-1.13289e-06
2.42544e-08
-1.13308e-06
-1.81161e-09
-1.12923e-06
-2.83198e-08
-1.12128e-06
-5.5067e-08
-1.10924e-06
-8.18344e-08
-1.09314e-06
-1.08389e-07
-1.07303e-06
-1.34487e-07
-1.04901e-06
-1.59874e-07
-1.02121e-06
-1.84291e-07
-9.89807e-07
-2.07477e-07
-9.55001e-07
-2.29169e-07
-9.17034e-07
-2.49115e-07
-8.76185e-07
-2.67067e-07
-8.32765e-07
-2.82796e-07
-7.87118e-07
-2.9609e-07
-7.39614e-07
-3.0676e-07
-6.90652e-07
-3.14646e-07
-6.40649e-07
-3.1962e-07
-5.90041e-07
-3.21591e-07
-5.39273e-07
-3.20506e-07
-4.88795e-07
-3.16357e-07
-4.39056e-07
-3.09182e-07
-3.90498e-07
-2.99064e-07
-3.43546e-07
-2.86139e-07
-2.98604e-07
-2.70591e-07
-2.56046e-07
-2.52656e-07
-2.1621e-07
-2.32617e-07
-1.7939e-07
-2.10813e-07
-1.45831e-07
-1.87627e-07
-1.15723e-07
-1.63494e-07
-8.91963e-08
-1.38896e-07
-6.63168e-08
-1.14364e-07
-4.70845e-08
-9.04747e-08
-3.14316e-08
-6.78564e-08
-1.92232e-08
-4.71855e-08
-1.02595e-08
-2.91908e-08
-4.28119e-09
-1.46546e-08
-9.77742e-10
-4.42143e-09
5.77553e-10
-3.04724e-09
1.24536e-08
-1.17136e-08
4.00196e-08
-2.55583e-08
6.91174e-08
-4.41701e-08
9.8712e-08
-6.71586e-08
1.27991e-07
-9.41488e-08
1.56317e-07
-1.24777e-07
1.83197e-07
-1.58688e-07
2.08266e-07
-1.95537e-07
2.31268e-07
-2.34984e-07
2.52033e-07
-2.76698e-07
2.70462e-07
-3.20356e-07
2.86512e-07
-3.65642e-07
3.00179e-07
-4.12248e-07
3.1149e-07
-4.59873e-07
3.2049e-07
-5.08224e-07
3.27235e-07
-5.57015e-07
3.31784e-07
-6.05965e-07
3.34199e-07
-6.54799e-07
3.34534e-07
-7.03248e-07
3.3284e-07
-7.51045e-07
3.2916e-07
-7.97927e-07
3.2353e-07
-8.43636e-07
3.15981e-07
-8.87915e-07
3.06538e-07
-9.30509e-07
2.95224e-07
-9.7117e-07
2.82063e-07
-1.00965e-06
2.67078e-07
-1.04571e-06
2.503e-07
-1.07911e-06
2.31767e-07
-1.10962e-06
2.11525e-07
-1.13703e-06
1.89636e-07
-1.16112e-06
1.66173e-07
-1.1817e-06
1.4123e-07
-1.19858e-06
1.14915e-07
-1.21161e-06
8.73587e-08
-1.22063e-06
5.87117e-08
-1.22552e-06
2.91451e-08
-1.22618e-06
-1.14893e-09
-1.22254e-06
-3.19577e-08
-1.21456e-06
-6.3049e-08
-1.20222e-06
-9.41728e-08
-1.18555e-06
-1.25063e-07
-1.16459e-06
-1.5544e-07
-1.13945e-06
-1.85014e-07
-1.11026e-06
-2.13488e-07
-1.07717e-06
-2.4056e-07
-1.04041e-06
-2.65932e-07
-1.00022e-06
-2.8931e-07
-9.56872e-07
-3.10411e-07
-9.107e-07
-3.28968e-07
-8.62056e-07
-3.44734e-07
-8.11328e-07
-3.57489e-07
-7.5893e-07
-3.67045e-07
-7.05301e-07
-3.73249e-07
-6.50901e-07
-3.75991e-07
-5.96201e-07
-3.75206e-07
-5.41681e-07
-3.70877e-07
-4.87821e-07
-3.63041e-07
-4.35097e-07
-3.51789e-07
-3.83967e-07
-3.37269e-07
-3.34872e-07
-3.19687e-07
-2.88221e-07
-2.99306e-07
-2.44389e-07
-2.7645e-07
-2.03705e-07
-2.51497e-07
-1.6645e-07
-2.24882e-07
-1.32848e-07
-1.97096e-07
-1.03063e-07
-1.68681e-07
-7.71925e-08
-1.40234e-07
-5.52677e-08
-1.124e-07
-3.72512e-08
-8.58729e-08
-2.3038e-08
-6.13987e-08
-1.24586e-08
-3.97702e-08
-5.28446e-09
-2.18288e-08
-1.23689e-09
-8.46899e-09
-6.5934e-10
-3.40106e-09
1.58548e-08
-1.30297e-08
4.96482e-08
-2.83508e-08
8.44385e-08
-4.88668e-08
1.19228e-07
-7.41102e-08
1.53235e-07
-1.03638e-07
1.85845e-07
-1.3703e-07
2.16588e-07
-1.73882e-07
2.45118e-07
-2.13807e-07
2.71194e-07
-2.56433e-07
2.94659e-07
-3.01401e-07
3.1543e-07
-3.48364e-07
3.33475e-07
-3.96986e-07
3.48802e-07
-4.46944e-07
3.61448e-07
-4.97923e-07
3.71469e-07
-5.49618e-07
3.78929e-07
-6.0173e-07
3.83897e-07
-6.5397e-07
3.86439e-07
-7.06053e-07
3.86617e-07
-7.57699e-07
3.84486e-07
-8.08633e-07
3.80094e-07
-8.58583e-07
3.7348e-07
-9.0728e-07
3.64678e-07
-9.54459e-07
3.53717e-07
-9.99856e-07
3.40622e-07
-1.04321e-06
3.25419e-07
-1.08427e-06
3.08138e-07
-1.12278e-06
2.88812e-07
-1.1585e-06
2.67484e-07
-1.19119e-06
2.4421e-07
-1.22061e-06
2.19058e-07
-1.24655e-06
1.92113e-07
-1.2688e-06
1.63481e-07
-1.28717e-06
1.33284e-07
-1.30148e-06
1.01672e-07
-1.31158e-06
6.88123e-08
-1.31734e-06
3.48993e-08
-1.31863e-06
1.49398e-10
-1.31539e-06
-3.51979e-08
-1.30756e-06
-7.0881e-08
-1.29512e-06
-1.06618e-07
-1.27807e-06
-1.42109e-07
-1.25647e-06
-1.77038e-07
-1.23041e-06
-2.11078e-07
-1.20001e-06
-2.43892e-07
-1.16543e-06
-2.75138e-07
-1.12688e-06
-3.04478e-07
-1.08462e-06
-3.31576e-07
-1.03892e-06
-3.56108e-07
-9.9012e-07
-3.77768e-07
-9.38583e-07
-3.96271e-07
-8.84708e-07
-4.11364e-07
-8.28927e-07
-4.22825e-07
-7.71702e-07
-4.30475e-07
-7.13512e-07
-4.34181e-07
-6.54858e-07
-4.3386e-07
-5.9625e-07
-4.29485e-07
-5.382e-07
-4.21091e-07
-4.81219e-07
-4.08771e-07
-4.25803e-07
-3.92685e-07
-3.72431e-07
-3.73059e-07
-3.21551e-07
-3.50185e-07
-2.73579e-07
-3.24422e-07
-2.28885e-07
-2.96191e-07
-1.87788e-07
-2.65979e-07
-1.50551e-07
-2.34333e-07
-1.17374e-07
-2.01858e-07
-8.83928e-08
-1.69216e-07
-6.36719e-08
-1.3712e-07
-4.32072e-08
-1.06338e-07
-2.69255e-08
-7.76804e-08
-1.46875e-08
-5.20081e-08
-6.29424e-09
-3.02221e-08
-1.49501e-09
-1.32682e-08
-2.15435e-09
-3.74248e-09
1.95974e-08
-1.43024e-08
6.02082e-08
-3.10561e-08
1.01192e-07
-5.34239e-08
1.41596e-07
-8.08641e-08
1.80675e-07
-1.12869e-07
2.1785e-07
-1.4896e-07
2.5268e-07
-1.88687e-07
2.84845e-07
-2.31621e-07
3.14127e-07
-2.77356e-07
3.40394e-07
-3.25504e-07
3.63579e-07
-3.75697e-07
3.83667e-07
-4.2758e-07
4.00684e-07
-4.80811e-07
4.1468e-07
-5.35065e-07
4.25723e-07
-5.90023e-07
4.33887e-07
-6.45377e-07
4.39252e-07
-7.00829e-07
4.41891e-07
-7.56085e-07
4.41872e-07
-8.10857e-07
4.39258e-07
-8.64863e-07
4.34099e-07
-9.17822e-07
4.26439e-07
-9.69459e-07
4.16315e-07
-1.0195e-06
4.03758e-07
-1.06767e-06
3.88796e-07
-1.11371e-06
3.71459e-07
-1.15735e-06
3.51778e-07
-1.19834e-06
3.29793e-07
-1.23641e-06
3.05553e-07
-1.27131e-06
2.79117e-07
-1.30282e-06
2.50564e-07
-1.33069e-06
2.19989e-07
-1.35472e-06
1.87509e-07
-1.3747e-06
1.53263e-07
-1.39044e-06
1.17413e-07
-1.40178e-06
8.01498e-08
-1.40857e-06
4.16871e-08
-1.41068e-06
2.26594e-09
-1.40804e-06
-3.78472e-08
-1.40056e-06
-7.83614e-08
-1.38821e-06
-1.18963e-07
-1.371e-06
-1.59317e-07
-1.34897e-06
-1.99071e-07
-1.32219e-06
-2.37859e-07
-1.29078e-06
-2.75303e-07
-1.2549e-06
-3.11021e-07
-1.21474e-06
-3.44629e-07
-1.17057e-06
-3.75749e-07
-1.12266e-06
-4.04014e-07
-1.07136e-06
-4.29075e-07
-1.01702e-06
-4.50606e-07
-9.60072e-07
-4.68314e-07
-9.00953e-07
-4.81943e-07
-8.40146e-07
-4.91282e-07
-7.78156e-07
-4.96171e-07
-7.1551e-07
-4.96506e-07
-6.52748e-07
-4.92247e-07
-5.90419e-07
-4.8342e-07
-5.29069e-07
-4.7012e-07
-4.69237e-07
-4.52517e-07
-4.11442e-07
-4.30854e-07
-3.56178e-07
-4.05449e-07
-3.03903e-07
-3.76697e-07
-2.55032e-07
-3.45062e-07
-2.09928e-07
-3.11083e-07
-1.68898e-07
-2.75363e-07
-1.32184e-07
-2.38572e-07
-9.99595e-08
-2.0144e-07
-7.23288e-08
-1.64751e-07
-4.93228e-08
-1.29344e-07
-3.09015e-08
-9.61018e-08
-1.69563e-08
-6.59533e-08
-7.31588e-09
-3.98625e-08
-1.75385e-09
-1.88303e-08
-3.9082e-09
-4.07135e-09
2.36689e-08
-1.55303e-08
7.16672e-08
-3.36693e-08
1.19331e-07
-5.78308e-08
1.65757e-07
-8.74024e-08
2.10246e-07
-1.21813e-07
2.5226e-07
-1.6053e-07
2.91397e-07
-2.03055e-07
3.2737e-07
-2.4892e-07
3.59992e-07
-2.97684e-07
3.89159e-07
-3.48933e-07
4.14828e-07
-4.02275e-07
4.37009e-07
-4.57336e-07
4.55745e-07
-5.13759e-07
4.71104e-07
-5.71205e-07
4.83169e-07
-6.29346e-07
4.92028e-07
-6.87864e-07
4.9777e-07
-7.46453e-07
5.00479e-07
-8.04811e-07
5.00231e-07
-8.62645e-07
4.97092e-07
-9.19664e-07
4.91119e-07
-9.75585e-07
4.82359e-07
-1.03012e-06
4.70853e-07
-1.083e-06
4.56634e-07
-1.13393e-06
4.39732e-07
-1.18266e-06
4.20181e-07
-1.22889e-06
3.98015e-07
-1.27238e-06
3.73277e-07
-1.31285e-06
3.46021e-07
-1.35004e-06
3.16313e-07
-1.38372e-06
2.8424e-07
-1.41363e-06
2.49905e-07
-1.43956e-06
2.13437e-07
-1.46129e-06
1.74989e-07
-1.47861e-06
1.34739e-07
-1.49136e-06
9.28959e-08
-1.49937e-06
4.96944e-08
-1.5025e-06
5.39924e-09
-1.50065e-06
-3.96967e-08
-1.49374e-06
-8.52733e-08
-1.48172e-06
-1.30985e-07
-1.46457e-06
-1.76462e-07
-1.44233e-06
-2.21315e-07
-1.41505e-06
-2.65138e-07
-1.38284e-06
-3.07511e-07
-1.34585e-06
-3.48008e-07
-1.30428e-06
-3.862e-07
-1.25837e-06
-4.21663e-07
-1.2084e-06
-4.53984e-07
-1.15471e-06
-4.82767e-07
-1.09767e-06
-5.07641e-07
-1.03772e-06
-5.28271e-07
-9.75299e-07
-5.44359e-07
-9.10921e-07
-5.5566e-07
-8.4511e-07
-5.61981e-07
-7.78422e-07
-5.63195e-07
-7.11429e-07
-5.5924e-07
-6.44716e-07
-5.50133e-07
-5.78871e-07
-5.35965e-07
-5.14475e-07
-5.16913e-07
-4.52094e-07
-4.93235e-07
-3.92269e-07
-4.65274e-07
-3.35508e-07
-4.33458e-07
-2.82275e-07
-3.98295e-07
-2.32982e-07
-3.60375e-07
-1.87984e-07
-3.20361e-07
-1.47569e-07
-2.78988e-07
-1.11955e-07
-2.37054e-07
-8.12866e-08
-1.95419e-07
-5.56339e-08
-1.54996e-07
-3.49911e-08
-1.16745e-07
-1.92807e-08
-8.16638e-08
-8.35733e-09
-5.07859e-08
-2.01581e-09
-2.51718e-08
-5.924e-09
-4.38745e-09
2.80565e-08
-1.67116e-08
8.39915e-08
-3.61857e-08
1.38805e-07
-6.20781e-08
1.91649e-07
-9.37091e-08
2.41877e-07
-1.30448e-07
2.88999e-07
-1.71708e-07
3.32657e-07
-2.16945e-07
3.72607e-07
-2.65653e-07
4.087e-07
-3.17358e-07
4.40864e-07
-3.71619e-07
4.69089e-07
-4.28021e-07
4.9341e-07
-4.86171e-07
5.13895e-07
-5.45699e-07
5.30632e-07
-6.06253e-07
5.43722e-07
-6.67494e-07
5.53269e-07
-7.29097e-07
5.59373e-07
-7.90747e-07
5.6213e-07
-8.52139e-07
5.61623e-07
-9.12973e-07
5.57925e-07
-9.72953e-07
5.51099e-07
-1.03179e-06
5.41196e-07
-1.0892e-06
5.28259e-07
-1.14489e-06
5.12324e-07
-1.19858e-06
4.93425e-07
-1.24999e-06
4.71595e-07
-1.29885e-06
4.46873e-07
-1.34488e-06
4.19305e-07
-1.38781e-06
3.88948e-07
-1.42737e-06
3.55876e-07
-1.46331e-06
3.20181e-07
-1.49538e-06
2.81975e-07
-1.52334e-06
2.41398e-07
-1.54697e-06
1.98614e-07
-1.56605e-06
1.53819e-07
-1.58039e-06
1.07236e-07
-1.58981e-06
5.91213e-08
-1.59418e-06
9.76213e-09
-1.59335e-06
-4.0523e-08
-1.58724e-06
-9.13854e-08
-1.57577e-06
-1.42448e-07
-1.55893e-06
-1.93306e-07
-1.53671e-06
-2.43533e-07
-1.50917e-06
-2.92681e-07
-1.47639e-06
-3.40289e-07
-1.43851e-06
-3.85885e-07