/*--------------------------------*- C++ -*----------------------------------*\
  =========                 |
  \\      /  F ield         | OpenFOAM: The Open Source CFD Toolbox
   \\    /   O peration     | Website:  https://openfoam.org
    \\  /    A nd           | Version:  12
     \\/     M anipulation  |
\*---------------------------------------------------------------------------*/
FoamFile
{
    format      ascii;
    class       surfaceScalarField;
    location    "1.4";
    object      phi;
}
// * * * * * * * * * * * * * * * * * * * * * * * * * * * * * * * * * * * * * //

dimensions      [0 3 -1 0 0 0 0];

internalField   nonuniform List<scalar> 
760
(
1.04787e-09
-1.04761e-09
3.9087e-09
-2.86066e-09
7.90571e-09
-3.99708e-09
1.23252e-08
-4.41959e-09
1.66167e-08
-4.29166e-09
2.04065e-08
-3.78993e-09
2.34712e-08
-3.06481e-09
2.56978e-08
-2.22672e-09
2.70419e-08
-1.34428e-09
2.74925e-08
-4.5063e-10
2.70479e-08
4.44448e-10
2.57087e-08
1.33923e-09
2.34848e-08
2.22369e-09
2.04206e-08
3.06422e-09
1.66288e-08
3.79165e-09
1.23338e-08
4.29503e-09
7.91029e-09
4.42353e-09
3.90999e-09
4.00045e-09
1.04765e-09
2.86257e-09
1.04794e-09
2.67841e-09
-3.72601e-09
8.6017e-09
-8.78389e-09
1.61206e-08
-1.1516e-08
2.39901e-08
-1.2289e-08
3.133e-08
-1.16316e-08
3.75985e-08
-1.00583e-08
4.25237e-08
-7.98997e-09
4.60183e-08
-5.72115e-09
4.80927e-08
-3.41859e-09
4.87843e-08
-1.14207e-09
4.81097e-08
1.11906e-09
4.60495e-08
3.39961e-09
4.25639e-08
5.70934e-09
3.76412e-08
7.98703e-09
3.13689e-08
1.0064e-08
2.40203e-08
1.16439e-08
1.61399e-08
1.23042e-08
8.61075e-09
1.153e-08
2.68059e-09
8.79305e-09
3.7288e-09
3.17904e-09
-6.90511e-09
9.57939e-09
-1.51841e-08
1.69363e-08
-1.88728e-08
2.38169e-08
-1.91694e-08
2.94547e-08
-1.72692e-08
3.35949e-08
-1.41982e-08
3.63319e-08
-1.07267e-08
3.79466e-08
-7.33549e-09
3.87602e-08
-4.23193e-09
3.90143e-08
-1.39581e-09
3.87958e-08
1.33782e-09
3.80121e-08
4.18368e-09
3.64168e-08
7.30486e-09
3.36869e-08
1.07173e-08
2.95404e-08
1.42108e-08
2.38855e-08
1.72992e-08
1.69819e-08
1.92082e-08
9.60216e-09
1.89101e-08
3.18521e-09
1.52103e-08
6.91412e-09
2.58792e-09
-9.49302e-09
6.55533e-09
-1.91514e-08
9.42082e-09
-2.17382e-08
1.00105e-08
-1.97589e-08
8.17903e-09
-1.54376e-08
4.50296e-09
-1.05219e-08
-2.51009e-11
-6.19848e-09
-4.28311e-09
-3.0773e-09
-7.27712e-09
-1.23774e-09
-8.33e-09
-3.42736e-10
-7.20578e-09
2.1378e-10
-4.15096e-09
1.12906e-09
1.48529e-10
3.00556e-09
4.69167e-09
6.17438e-09
8.35685e-09
1.05458e-08
1.01552e-08
1.55009e-08
9.51896e-09
1.98445e-08
6.60545e-09
2.18236e-08
2.60185e-09
1.92138e-08
9.5159e-09
5.69069e-10
-1.00621e-08
-2.04718e-09
-1.65352e-08
-1.00705e-08
-1.3715e-08
-2.37094e-08
-6.12011e-09
-4.167e-08
2.52277e-09
-6.16942e-08
9.50216e-09
-8.10853e-08
1.31924e-08
-9.71871e-08
1.30242e-08
-1.0779e-07
9.36515e-09
-1.11445e-07
3.31205e-09
-1.07654e-07
-3.57766e-09
-9.69343e-08
-9.59108e-09
-8.07519e-08
-1.31772e-08
-6.13265e-08
-1.32513e-08
-4.13183e-08
-9.46279e-09
-2.34184e-08
-2.3996e-09
-9.86934e-09
6.29475e-09
-1.94203e-09
1.38955e-08
5.99117e-10
1.66721e-08
1.01148e-08
-3.81604e-09
-6.24595e-09
-1.97254e-08
-6.26013e-10
-4.8858e-08
1.54174e-08
-8.92947e-08
3.43162e-08
-1.36986e-07
5.02136e-08
-1.86667e-07
5.91828e-08
-2.32705e-07
5.92301e-08
-2.69861e-07
5.01796e-08
-2.93921e-07
3.3424e-08
-3.02168e-07
1.15585e-08
-2.93676e-07
-1.20705e-08
-2.69404e-07
-3.38638e-08
-2.32096e-07
-5.04853e-08
-1.85988e-07
-5.93603e-08
-1.36327e-07
-5.91244e-08
-8.87395e-08
-4.99881e-08
-4.84658e-08
-3.39801e-08
-1.95146e-08
-1.50569e-08
-3.75369e-09
9.10308e-10
6.36085e-09
-1.21688e-08
5.92287e-09
-5.22724e-08
3.94774e-08
-1.18804e-07
8.19484e-08
-2.05773e-07
1.21285e-07
-3.04299e-07
1.4874e-07
-4.04086e-07
1.58969e-07
-4.94739e-07
1.49883e-07
-5.6692e-07
1.2236e-07
-6.13273e-07
7.9777e-08
-6.29118e-07
2.74033e-08
-6.12865e-07
-2.83242e-08
-5.66153e-07
-8.05766e-08
-4.93708e-07
-1.22931e-07
-4.02919e-07
-1.50149e-07
-3.03147e-07
-1.58897e-07
-2.04782e-07
-1.48355e-07
-1.18086e-07
-1.20676e-07
-5.18755e-08
-8.12683e-08
-1.20457e-08
-3.89201e-08
-5.68499e-09
-2.69394e-08
3.28622e-08
-1.08385e-07
1.20923e-07
-2.37433e-07
2.10996e-07
-4.00892e-07
2.84744e-07
-5.81876e-07
3.29723e-07
-7.62083e-07
3.39176e-07
-9.23767e-07
3.11567e-07
-1.05138e-06
2.49975e-07
-1.1329e-06
1.6129e-07
-1.16072e-06
5.52294e-08
-1.13229e-06
-5.67557e-08
-1.05023e-06
-1.62634e-07
-9.22196e-07
-2.50968e-07
-7.6027e-07
-3.12075e-07
-5.8004e-07
-3.39126e-07
-3.99267e-07
-3.29128e-07
-2.36218e-07
-2.83725e-07
-1.07688e-07
-2.09798e-07
-2.67136e-08
-1.19894e-07
-3.23986e-08
-5.16514e-08
8.45134e-08
-2.00293e-07
2.69564e-07
-4.2901e-07
4.39714e-07
-7.12536e-07
5.68271e-07
-1.02131e-06
6.38498e-07
-1.32486e-06
6.42729e-07
-1.5946e-06
5.81308e-07
-1.80605e-06
4.61428e-07
-1.94056e-06
2.95795e-07
-1.98646e-06
1.01134e-07
-1.93982e-06
-1.03399e-07
-1.80462e-06
-2.97828e-07
-1.59259e-06
-4.63001e-07
-1.32245e-06
-5.82213e-07
-1.01877e-06
-6.42811e-07
-7.10181e-07
-6.37711e-07
-4.27166e-07
-5.66738e-07
-1.99183e-07
-4.3778e-07
-5.12713e-08
-2.67805e-07
-8.36697e-08
-9.11116e-08
1.75625e-07
-3.44265e-07
5.22717e-07
-7.25118e-07
8.20567e-07
-1.18903e-06
1.03219e-06
-1.68721e-06
1.13668e-06
-2.17152e-06
1.12703e-06
-2.59817e-06
1.00796e-06
-2.93056e-06
7.93815e-07
-3.14122e-06
5.06462e-07
-3.21319e-06
1.73097e-07
-3.14069e-06
-1.75898e-07
-2.92945e-06
-5.09068e-07
-2.59645e-06
-7.95996e-07
-2.16923e-06
-1.00943e-06
-1.68453e-06
-1.12751e-06
-1.1863e-06
-1.13595e-06
-7.22777e-07
-1.03026e-06
-3.42736e-07
-8.17819e-07
-9.05428e-08
-5.19998e-07
-1.74212e-07
-1.51553e-07
3.27178e-07
-5.60617e-07
9.31782e-07
-1.16389e-06
1.42384e-06
-1.88681e-06
1.75511e-06
-2.65259e-06
1.90246e-06
-3.38871e-06
1.86315e-06
-4.03147e-06
1.65072e-06
-4.52901e-06
1.29136e-06
-4.84323e-06
8.20673e-07
-4.95081e-06
2.80677e-07
-4.84383e-06
-2.82878e-07
-4.52992e-06
-8.22969e-07
-4.03222e-06
-1.2937e-06
-3.38883e-06
-1.65282e-06
-2.65181e-06
-1.86453e-06
-1.88521e-06
-1.90254e-06
-1.16195e-06
-1.75352e-06
-5.59034e-07
-1.42073e-06
-1.50853e-07
-9.28179e-07
-3.25065e-07
-2.40638e-07
5.67816e-07
-8.72814e-07
1.56396e-06
-1.78666e-06
2.33768e-06
-2.86291e-06
2.83136e-06
-3.98586e-06
3.0254e-06
-5.05153e-06
2.92883e-06
-5.97247e-06
2.57165e-06
-6.67998e-06
1.99888e-06
-7.12498e-06
1.26567e-06
-7.27792e-06
4.33622e-07
-7.12871e-06
-4.32091e-07
-6.68662e-06
-1.26506e-06
-5.98054e-06
-1.99978e-06
-5.05934e-06
-2.57402e-06
-3.99192e-06
-2.93195e-06
-2.86642e-06
-3.02804e-06
-1.78774e-06
-2.8322e-06
-8.72442e-07
-2.33603e-06
-2.40121e-07
-1.5605e-06
-5.65186e-07
-3.67379e-07
9.35195e-07
-1.30524e-06
2.50181e-06
-2.63032e-06
3.66277e-06
-4.15852e-06
4.35956e-06
-5.72303e-06
4.58991e-06
-7.18336e-06
4.38916e-06
-8.42833e-06
3.81662e-06
-9.37525e-06
2.9458e-06
-9.96759e-06
1.85801e-06
-1.01723e-05
6.38336e-07
-9.97797e-06
-6.26433e-07
-9.39418e-06
-1.84885e-06
-8.45252e-06
-2.94144e-06
-7.20875e-06
-3.81779e-06
-5.7456e-06
-4.39509e-06
-4.17531e-06
-4.59833e-06
-2.64016e-06
-4.36735e-06
-1.30911e-06
-3.66708e-06
-3.67916e-07
-2.5017e-06
-9.33102e-07
-5.42348e-07
1.47754e-06
-1.87943e-06
3.83889e-06
-3.71274e-06
5.49608e-06
-5.76697e-06
6.4138e-06
-7.8142e-06
6.63713e-06
-9.6799e-06
6.25486e-06
-1.1239e-05
5.37569e-06
-1.24072e-05
4.11402e-06
-1.31319e-05
2.58268e-06
-1.33841e-05
8.90579e-07
-1.31537e-05
-8.56812e-07
-1.24476e-05
-2.55496e-06
-1.12919e-05
-4.09712e-06
-9.73768e-06
-5.37205e-06
-7.86849e-06
-6.26429e-06
-5.81059e-06
-6.65623e-06
-3.74151e-06
-6.43644e-06
-1.89335e-06
-5.51524e-06
-5.45772e-07
-3.84927e-06
-1.47887e-06
-7.7971e-07
2.25725e-06
-2.60872e-06
5.6679e-06
-5.00518e-06
7.89254e-06
-7.57233e-06
8.98095e-06
-1.00233e-05
9.08806e-06
-1.21714e-05
8.403e-06
-1.39078e-05
7.11204e-06
-1.51761e-05
5.38233e-06
-1.5951e-05
3.35763e-06
-1.6223e-05
1.16254e-06
-1.59883e-05
-1.09147e-06
-1.52462e-05
-3.29706e-06
-1.4002e-05
-5.34132e-06
-1.22773e-05
-7.0968e-06
-1.01266e-05
-8.41491e-06
-7.65969e-06
-9.12317e-06
-5.06688e-06
-9.02925e-06
-2.6415e-06
-7.94063e-06
-7.89137e-07
-5.70164e-06
-2.26801e-06
-1.10169e-06
3.35894e-06
-3.48333e-06
8.04954e-06
-6.36853e-06
1.07777e-05
-9.21994e-06
1.18324e-05
-1.17339e-05
1.16021e-05
-1.3777e-05
1.0446e-05
-1.53198e-05
8.65489e-06
-1.63861e-05
6.44865e-06
-1.70154e-05
3.98693e-06
-1.72386e-05
1.38568e-06
-1.70654e-05
-1.26465e-06
-1.64811e-05
-3.8814e-06
-1.54499e-05
-6.37246e-06
-1.39282e-05
-8.61854e-06
-1.18887e-05
-1.04544e-05
-9.35877e-06
-1.16531e-05
-6.47333e-06
-1.19147e-05
-3.54357e-06
-1.08704e-05
-1.12096e-06
-8.12424e-06
-3.38897e-06
-1.52445e-06
4.88339e-06
-4.388e-06
1.09131e-05
-7.35023e-06
1.374e-05
-9.78914e-06
1.42713e-05
-1.15361e-05
1.33491e-05
-1.26536e-05
1.15635e-05
-1.32936e-05
9.29484e-06
-1.3619e-05
6.77414e-06
-1.37652e-05
4.13307e-06
-1.38189e-05
1.43937e-06
-1.38096e-05
-1.27397e-06
-1.37061e-05
-3.98483e-06
-1.34187e-05
-6.65983e-06
-1.28077e-05
-9.22962e-06
-1.17034e-05
-1.15587e-05
-9.94917e-06
-1.34073e-05
-7.48128e-06
-1.43826e-05
-4.47089e-06
-1.38808e-05
-1.55345e-06
-1.10417e-05
-4.94242e-06
-1.99001e-06
6.87339e-06
-4.75715e-06
1.36802e-05
-6.47115e-06
1.5454e-05
-6.87492e-06
1.4675e-05
-6.3082e-06
1.27823e-05
-5.20671e-06
1.0462e-05
-3.95709e-06
8.04522e-06
-2.85888e-06
5.67593e-06
-2.11849e-06
3.39268e-06
-1.85601e-06
1.17689e-06
-2.1126e-06
-1.01738e-06
-2.85289e-06
-3.24454e-06
-3.9607e-06
-5.55202e-06
-5.23026e-06
-7.96006e-06
-6.35772e-06
-1.04312e-05
-6.94613e-06
-1.28189e-05
-6.54792e-06
-1.47808e-05
-4.81716e-06
-1.56115e-05
-2.01751e-06
-1.38413e-05
-6.95992e-06
-2.72173e-06
9.59512e-06
-2.2527e-06
1.32112e-05
1.18062e-06
1.20207e-05
5.89466e-06
9.961e-06
1.08159e-05
7.86112e-06
1.5322e-05
5.95593e-06
1.90574e-05
4.30981e-06
2.18281e-05
2.90519e-06
2.35363e-05
1.68447e-06
2.41375e-05
5.75673e-07
2.36166e-05
-4.96496e-07
2.19793e-05
-1.60722e-06
1.92619e-05
-2.83458e-06
1.55532e-05
-4.25136e-06
1.10406e-05
-5.91863e-06
6.07861e-06
-7.85694e-06
1.29916e-06
-1.00013e-05
-2.20373e-06
-1.21087e-05
-2.71841e-06
-1.33267e-05
-9.67833e-06
9.59512e-06
2.28063e-05
3.4827e-05
4.4788e-05
5.26491e-05
5.8605e-05
6.29149e-05
6.582e-05
6.75045e-05
6.80802e-05
6.75837e-05
6.59765e-05
6.31419e-05
5.88905e-05
5.29719e-05
4.5115e-05
3.51137e-05
2.3005e-05
9.67833e-06
)
;

boundaryField
{
    movingWall
    {
        type            calculated;
        value           uniform 0;
    }
    fixedWalls
    {
        type            calculated;
        value           uniform 0;
    }
    frontAndBack
    {
        type            empty;
    }
}


// ************************************************************************* //
