/*--------------------------------*- C++ -*----------------------------------*\
  =========                 |
  \\      /  F ield         | OpenFOAM: The Open Source CFD Toolbox
   \\    /   O peration     | Website:  https://openfoam.org
    \\  /    A nd           | Version:  12
     \\/     M anipulation  |
\*---------------------------------------------------------------------------*/
FoamFile
{
    format      ascii;
    class       volScalarField;
    location    "10";
    object      k;
}
// * * * * * * * * * * * * * * * * * * * * * * * * * * * * * * * * * * * * * //

dimensions      [0 2 -2 0 0 0 0];

internalField   nonuniform List<scalar> 
5625
(
1.3636e-15
1.02999e-14
2.18346e-14
3.56059e-14
5.1122e-14
6.80115e-14
8.60035e-14
1.0489e-13
1.24499e-13
1.44684e-13
1.65313e-13
1.86263e-13
2.07422e-13
2.28682e-13
2.49939e-13
2.71096e-13
2.92057e-13
3.12731e-13
3.3303e-13
3.5287e-13
3.72167e-13
3.90844e-13
4.08826e-13
4.26041e-13
4.42421e-13
4.57902e-13
4.72423e-13
4.85927e-13
4.98362e-13
5.09679e-13
5.19834e-13
5.28788e-13
5.36505e-13
5.42954e-13
5.4811e-13
5.51951e-13
5.54461e-13
5.55629e-13
5.5545e-13
5.5392e-13
5.51043e-13
5.46826e-13
5.41283e-13
5.34433e-13
5.263e-13
5.16911e-13
5.06301e-13
4.94507e-13
4.81572e-13
4.67545e-13
4.52478e-13
4.36429e-13
4.19458e-13
4.01633e-13
3.83023e-13
3.63703e-13
3.43753e-13
3.23255e-13
3.02297e-13
2.8097e-13
2.5937e-13
2.37597e-13
2.15755e-13
1.93954e-13
1.72311e-13
1.50949e-13
1.29999e-13
1.09606e-13
8.99294e-14
7.11556e-14
5.35095e-14
3.72815e-14
2.28673e-14
1.07884e-14
1.42824e-15
9.21876e-15
8.20571e-14
1.8704e-13
3.12622e-13
4.53381e-13
6.06063e-13
7.6839e-13
9.3859e-13
1.11519e-12
1.29689e-12
1.48253e-12
1.67103e-12
1.86137e-12
2.05259e-12
2.24378e-12
2.43406e-12
2.62256e-12
2.80847e-12
2.99101e-12
3.16941e-12
3.34294e-12
3.51088e-12
3.67258e-12
3.82738e-12
3.97467e-12
4.11388e-12
4.24446e-12
4.3659e-12
4.47772e-12
4.5795e-12
4.67084e-12
4.75137e-12
4.82078e-12
4.8788e-12
4.92519e-12
4.95976e-12
4.98237e-12
4.99289e-12
4.99129e-12
4.97755e-12
4.95168e-12
4.91377e-12
4.86394e-12
4.80236e-12
4.72923e-12
4.64482e-12
4.54942e-12
4.44338e-12
4.32708e-12
4.20096e-12
4.06549e-12
3.92118e-12
3.76858e-12
3.60829e-12
3.44095e-12
3.26722e-12
3.08781e-12
2.90347e-12
2.71498e-12
2.52316e-12
2.32887e-12
2.13301e-12
1.93652e-12
1.74037e-12
1.5456e-12
1.35332e-12
1.1647e-12
9.80997e-13
8.03634e-13
6.34214e-13
4.74653e-13
3.27401e-13
1.95927e-13
8.59662e-14
9.65793e-15
2.04907e-14
1.83763e-13
4.21607e-13
7.08105e-13
1.03053e-12
1.38106e-12
1.75418e-12
2.14565e-12
2.55197e-12
2.9701e-12
3.39731e-12
3.83112e-12
4.26917e-12
4.70925e-12
5.14925e-12
5.58713e-12
6.02095e-12
6.44881e-12
6.8689e-12
7.27946e-12
7.67882e-12
8.06535e-12
8.4375e-12
8.7938e-12
9.13283e-12
9.45327e-12
9.75386e-12
1.00334e-11
1.02909e-11
1.05252e-11
1.07356e-11
1.09211e-11
1.1081e-11
1.12147e-11
1.13216e-11
1.14014e-11
1.14536e-11
1.1478e-11
1.14746e-11
1.14432e-11
1.13839e-11
1.12969e-11
1.11824e-11
1.10409e-11
1.08728e-11
1.06787e-11
1.04593e-11
1.02154e-11
9.94789e-12
9.65772e-12
9.346e-12
9.0139e-12
8.66271e-12
8.29378e-12
7.90858e-12
7.50865e-12
7.09562e-12
6.67122e-12
6.23723e-12
5.79556e-12
5.34817e-12
4.89714e-12
4.44462e-12
3.99289e-12
3.54434e-12
3.10151e-12
2.66713e-12
2.24416e-12
1.83592e-12
1.4462e-12
1.07962e-12
7.42082e-13
4.41937e-13
1.92648e-13
2.14815e-14
3.38671e-14
3.04226e-13
6.9945e-13
1.17717e-12
1.7163e-12
2.30363e-12
2.92972e-12
3.58726e-12
4.2702e-12
4.97332e-12
5.69196e-12
6.42184e-12
7.159e-12
7.89966e-12
8.64024e-12
9.37733e-12
1.01076e-11
1.08279e-11
1.15352e-11
1.22264e-11
1.28989e-11
1.35498e-11
1.41765e-11
1.47765e-11
1.53475e-11
1.58873e-11
1.63937e-11
1.68647e-11
1.72985e-11
1.76935e-11
1.8048e-11
1.83608e-11
1.86305e-11
1.88561e-11
1.90367e-11
1.91715e-11
1.92599e-11
1.93016e-11
1.92963e-11
1.92441e-11
1.91447e-11
1.89987e-11
1.88065e-11
1.85687e-11
1.82861e-11
1.79596e-11
1.75906e-11
1.71801e-11
1.67299e-11
1.62415e-11
1.57167e-11
1.51576e-11
1.45662e-11
1.39449e-11
1.32962e-11
1.26226e-11
1.19269e-11
1.1212e-11
1.04809e-11
9.73681e-12
8.98312e-12
8.2233e-12
7.461e-12
6.70008e-12
5.94461e-12
5.19892e-12
4.46768e-12
3.75597e-12
3.06951e-12
2.41487e-12
1.79998e-12
1.23497e-12
7.3396e-13
3.19275e-13
3.55428e-14
4.87218e-14
4.37928e-13
1.00778e-12
1.69783e-12
2.47794e-12
3.32906e-12
4.23745e-12
5.19238e-12
6.18494e-12
7.20741e-12
8.25291e-12
9.31514e-12
1.03882e-11
1.14667e-11
1.25452e-11
1.36188e-11
1.46826e-11
1.5732e-11
1.67625e-11
1.77698e-11
1.87498e-11
1.96984e-11
2.0612e-11
2.14868e-11
2.23193e-11
2.31064e-11
2.38449e-11
2.4532e-11
2.5165e-11
2.57413e-11
2.62589e-11
2.67155e-11
2.71095e-11
2.74393e-11
2.77034e-11
2.79009e-11
2.80309e-11
2.80927e-11
2.8086e-11
2.8011e-11
2.78672e-11
2.76553e-11
2.73761e-11
2.70303e-11
2.66192e-11
2.61442e-11
2.56069e-11
2.50092e-11
2.43534e-11
2.36419e-11
2.28773e-11
2.20624e-11
2.12005e-11
2.02949e-11
1.93492e-11
1.83671e-11
1.73528e-11
1.63104e-11
1.52444e-11
1.41595e-11
1.30605e-11
1.19527e-11
1.08414e-11
9.7323e-12
8.63137e-12
7.54503e-12
6.48016e-12
5.44433e-12
4.44596e-12
3.49478e-12
2.60244e-12
1.78373e-12
1.059e-12
4.60245e-13
5.12051e-14
6.46488e-14
5.81249e-13
1.33824e-12
2.25586e-12
3.29437e-12
4.42858e-12
5.64023e-12
6.91497e-12
8.24083e-12
9.60741e-12
1.10054e-11
1.24263e-11
1.38622e-11
1.53056e-11
1.67495e-11
1.81871e-11
1.96118e-11
2.10175e-11
2.23981e-11
2.37478e-11
2.50611e-11
2.63326e-11
2.75572e-11
2.873e-11
2.98464e-11
3.0902e-11
3.18926e-11
3.28145e-11
3.3664e-11
3.44377e-11
3.51327e-11
3.57462e-11
3.62758e-11
3.67193e-11
3.70751e-11
3.73415e-11
3.75174e-11
3.7602e-11
3.75948e-11
3.74959e-11
3.73048e-11
3.70225e-11
3.66497e-11
3.61877e-11
3.56379e-11
3.50024e-11
3.42832e-11
3.34831e-11
3.26048e-11
3.16516e-11
3.06271e-11
2.95351e-11
2.83799e-11
2.71659e-11
2.5898e-11
2.45814e-11
2.32213e-11
2.18236e-11
2.03942e-11
1.89395e-11
1.74661e-11
1.59809e-11
1.44913e-11
1.30049e-11
1.15298e-11
1.00747e-11
8.64908e-12
7.26303e-12
5.92799e-12
4.65706e-12
3.46585e-12
2.37406e-12
1.40867e-12
6.11918e-13
6.80603e-14
8.13419e-14
7.31448e-13
1.68451e-12
2.84056e-12
4.14985e-12
5.5808e-12
7.11051e-12
8.72087e-12
1.03967e-11
1.21249e-11
1.38936e-11
1.56919e-11
1.75098e-11
1.93378e-11
2.11668e-11
2.29882e-11
2.47938e-11
2.65755e-11
2.83258e-11
3.00372e-11
3.17027e-11
3.33155e-11
3.48691e-11
3.63573e-11
3.77741e-11
3.91141e-11
4.0372e-11
4.15428e-11
4.26219e-11
4.36052e-11
4.44888e-11
4.52691e-11
4.59432e-11
4.65082e-11
4.69619e-11
4.73024e-11
4.75281e-11
4.7638e-11
4.76314e-11
4.75085e-11
4.72686e-11
4.69128e-11
4.64422e-11
4.58582e-11
4.51627e-11
4.43582e-11
4.34475e-11
4.24337e-11
4.13206e-11
4.01122e-11
3.88131e-11
3.74282e-11
3.59628e-11
3.44226e-11
3.28139e-11
3.11432e-11
2.94172e-11
2.76435e-11
2.58295e-11
2.39835e-11
2.21139e-11
2.02295e-11
1.83398e-11
1.64545e-11
1.45841e-11
1.27397e-11
1.09333e-11
9.1779e-12
7.48802e-12
5.88028e-12
4.37443e-12
2.99526e-12
1.77664e-12
7.71546e-13
8.58015e-14
9.85518e-14
8.86284e-13
2.04145e-12
3.44323e-12
5.03158e-12
6.76841e-12
8.62604e-12
1.05825e-11
1.26195e-11
1.4721e-11
1.68725e-11
1.90608e-11
2.12736e-11
2.34993e-11
2.57268e-11
2.79456e-11
3.01456e-11
3.2317e-11
3.44505e-11
3.6537e-11
3.8568e-11
4.0535e-11
4.24303e-11
4.42461e-11
4.59753e-11
4.76111e-11
4.9147e-11
5.0577e-11
5.18955e-11
5.30974e-11
5.41778e-11
5.51326e-11
5.59578e-11
5.66503e-11
5.72071e-11
5.76258e-11
5.79046e-11
5.80422e-11
5.80376e-11
5.78913e-11
5.7602e-11
5.71712e-11
5.66001e-11
5.58906e-11
5.50449e-11
5.40659e-11
5.2957e-11
5.17221e-11
5.03657e-11
4.88928e-11
4.73088e-11
4.56199e-11
4.38324e-11
4.19536e-11
3.99908e-11
3.7952e-11
3.58459e-11
3.36813e-11
3.14677e-11
2.9215e-11
2.69336e-11
2.46345e-11
2.23292e-11
2.00298e-11
1.77491e-11
1.55008e-11
1.32994e-11
1.11611e-11
9.10354e-12
7.14691e-12
5.31522e-12
3.63849e-12
2.15768e-12
9.36855e-13
1.04175e-13
1.16066e-13
1.04385e-12
2.40467e-12
4.05645e-12
5.92871e-12
7.97673e-12
1.0168e-11
1.24767e-11
1.48813e-11
1.73628e-11
1.99042e-11
2.24899e-11
2.51052e-11
2.77364e-11
3.03704e-11
3.29947e-11
3.55972e-11
3.81665e-11
4.06915e-11
4.31614e-11
4.5566e-11
4.78955e-11
5.01404e-11
5.22917e-11
5.43408e-11
5.62798e-11
5.81008e-11
5.97968e-11
6.13612e-11
6.27877e-11
6.40707e-11
6.52052e-11
6.61865e-11
6.70108e-11
6.76745e-11
6.81748e-11
6.85095e-11
6.86769e-11
6.8676e-11
6.85072e-11
6.81689e-11
6.76628e-11
6.69903e-11
6.61535e-11
6.51552e-11
6.39987e-11
6.26879e-11
6.12275e-11
5.96228e-11
5.78796e-11
5.60045e-11
5.40046e-11
5.18876e-11
4.9662e-11
4.73366e-11
4.4921e-11
4.24254e-11
3.98604e-11
3.72373e-11
3.45679e-11
3.18647e-11
2.91408e-11
2.64099e-11
2.36864e-11
2.09857e-11
1.8324e-11
1.57186e-11
1.31886e-11
1.0755e-11
8.44172e-12
6.27693e-12
4.29603e-12
2.54721e-12
1.10586e-12
1.22961e-13
1.33701e-13
1.2025e-12
2.77034e-12
4.67379e-12
6.83181e-12
9.19303e-12
1.17201e-11
1.43834e-11
1.7158e-11
2.00221e-11
2.29561e-11
2.59419e-11
2.89626e-11
3.20024e-11
3.50461e-11
3.80792e-11
4.10878e-11
4.40586e-11
4.69786e-11
4.98356e-11
5.26176e-11
5.53132e-11
5.79115e-11
6.0402e-11
6.27749e-11
6.50207e-11
6.71306e-11
6.90962e-11
7.09099e-11
7.25645e-11
7.40534e-11
7.53708e-11
7.65112e-11
7.74701e-11
7.82433e-11
7.88277e-11
7.92204e-11
7.94196e-11
7.94239e-11
7.9234e-11
7.88477e-11
7.82669e-11
7.74933e-11
7.65293e-11
7.53779e-11
7.4043e-11
7.25291e-11
7.08416e-11
6.89865e-11
6.69706e-11
6.48015e-11
6.24875e-11
6.00374e-11
5.74612e-11
5.47691e-11
5.19722e-11
4.90824e-11
4.6112e-11
4.30744e-11
3.99832e-11
3.6853e-11
3.36991e-11
3.05373e-11
2.73847e-11
2.42589e-11
2.11789e-11
1.81649e-11
1.52388e-11
1.24249e-11
9.75092e-12
7.24934e-12
4.96091e-12
2.9411e-12
1.27676e-12
1.41957e-13
1.51295e-13
1.36077e-12
3.13514e-12
5.28961e-12
7.73262e-12
1.04062e-11
1.32681e-11
1.62849e-11
1.94284e-11
2.2674e-11
2.59995e-11
2.93843e-11
3.28095e-11
3.62569e-11
3.97093e-11
4.31503e-11
4.65642e-11
4.99357e-11
5.32503e-11
5.64938e-11
5.96528e-11
6.27143e-11
6.56659e-11
6.84957e-11
7.11924e-11
7.37454e-11
7.61446e-11
7.83804e-11
8.04442e-11
8.23277e-11
8.40235e-11
8.55248e-11
8.68254e-11
8.79202e-11
8.88044e-11
8.94741e-11
8.99264e-11
9.01588e-11
9.01699e-11
8.99603e-11
8.95275e-11
8.88736e-11
8.80003e-11
8.69103e-11
8.56071e-11
8.40949e-11
8.23789e-11
8.04651e-11
7.83603e-11
7.60722e-11
7.36095e-11
7.09815e-11
6.81985e-11
6.52715e-11
6.22123e-11
5.90338e-11
5.57493e-11
5.23731e-11
4.89202e-11
4.54065e-11
4.18485e-11
3.82637e-11
3.46705e-11
3.10879e-11
2.75364e-11
2.40375e-11
2.06141e-11
1.72914e-11
1.40968e-11
1.10617e-11
8.22292e-12
5.6266e-12
3.33548e-12
1.44787e-12
1.60978e-13
1.68709e-13
1.51742e-12
3.49617e-12
5.89902e-12
8.624e-12
1.16065e-11
1.47996e-11
1.8166e-11
2.16743e-11
2.52971e-11
2.90096e-11
3.2789e-11
3.6614e-11
4.04643e-11
4.43208e-11
4.81652e-11
5.19798e-11
5.57475e-11
5.94522e-11
6.30781e-11
6.66101e-11
7.00336e-11
7.33348e-11
7.65004e-11
7.95178e-11
8.2375e-11
8.50608e-11
8.75646e-11
8.98763e-11
9.19871e-11
9.38883e-11
9.55725e-11
9.70327e-11
9.82629e-11
9.92579e-11
1.00013e-10
1.00526e-10
1.00792e-10
1.00812e-10
1.00584e-10
1.00106e-10
9.93811e-11
9.84104e-11
9.71969e-11
9.57444e-11
9.40578e-11
9.21425e-11
9.00054e-11
8.76541e-11
8.50971e-11
8.2344e-11
7.94054e-11
7.62927e-11
7.30183e-11
6.95955e-11
6.60387e-11
6.23629e-11
5.85842e-11
5.47195e-11
5.07866e-11
4.68043e-11
4.27921e-11
3.87707e-11
3.47616e-11
3.07877e-11
2.68731e-11
2.30438e-11
1.93275e-11
1.57552e-11
1.23619e-11
9.18868e-12
6.28694e-12
3.7267e-12
1.61762e-12
1.79847e-13
1.85823e-13
1.67136e-12
3.85095e-12
6.49785e-12
9.49981e-12
1.27858e-11
1.6304e-11
2.00136e-11
2.388e-11
2.7873e-11
3.19653e-11
3.61317e-11
4.03488e-11
4.45942e-11
4.8847e-11
5.30868e-11
5.72941e-11
6.14503e-11
6.55374e-11
6.95379e-11
7.34354e-11
7.72137e-11
8.08575e-11
8.43522e-11
8.76839e-11
9.08393e-11
9.38061e-11
9.65725e-11
9.91276e-11
1.01461e-10
1.03564e-10
1.05428e-10
1.07045e-10
1.08409e-10
1.09513e-10
1.10353e-10
1.10925e-10
1.11226e-10
1.11254e-10
1.11009e-10
1.10489e-10
1.09695e-10
1.08629e-10
1.07296e-10
1.05698e-10
1.03841e-10
1.01731e-10
9.93756e-11
9.6783e-11
9.39627e-11
9.09252e-11
8.76821e-11
8.42461e-11
8.06309e-11
7.68513e-11
7.29231e-11
6.88631e-11
6.4689e-11
6.04198e-11
5.6075e-11
5.16756e-11
4.72434e-11
4.28011e-11
3.83727e-11
3.39836e-11
2.96605e-11
2.5432e-11
2.13289e-11
1.73854e-11
1.364e-11
1.0138e-11
6.93602e-12
4.11125e-12
1.78447e-12
1.98394e-13
2.02538e-13
1.82172e-12
4.19745e-12
7.08264e-12
1.0355e-11
1.39371e-11
1.77727e-11
2.1817e-11
2.60326e-11
3.03864e-11
3.48487e-11
3.93921e-11
4.3991e-11
4.86211e-11
5.32594e-11
5.78838e-11
6.2473e-11
6.70068e-11
7.14654e-11
7.58299e-11
8.00822e-11
8.42049e-11
8.81812e-11
9.19952e-11
9.56317e-11
9.90763e-11
1.02316e-10
1.05337e-10
1.08127e-10
1.10677e-10
1.12975e-10
1.15013e-10
1.16782e-10
1.18275e-10
1.19486e-10
1.20408e-10
1.21038e-10
1.21372e-10
1.21409e-10
1.21148e-10
1.20586e-10
1.19726e-10
1.18569e-10
1.17119e-10
1.1538e-10
1.13358e-10
1.1106e-10
1.08493e-10
1.05666e-10
1.0259e-10
9.92768e-11
9.5738e-11
9.1988e-11
8.80417e-11
8.39152e-11
7.96258e-11
7.51921e-11
7.06334e-11
6.59704e-11
6.12248e-11
5.64194e-11
5.15782e-11
4.67261e-11
4.18894e-11
3.7096e-11
3.2375e-11
2.77577e-11
2.3278e-11
1.89729e-11
1.48845e-11
1.10624e-11
7.5681e-12
4.48573e-12
1.94696e-12
2.16455e-13
2.18779e-13
1.9678e-12
4.53406e-12
7.65068e-12
1.11856e-11
1.50551e-11
1.91986e-11
2.35676e-11
2.81216e-11
3.28251e-11
3.76457e-11
4.2554e-11
4.75223e-11
5.25242e-11
5.7535e-11
6.25307e-11
6.74885e-11
7.23862e-11
7.72028e-11
8.19177e-11
8.65115e-11
9.09652e-11
9.52609e-11
9.93814e-11
1.0331e-10
1.07032e-10
1.10532e-10
1.13797e-10
1.16813e-10
1.1957e-10
1.22055e-10
1.24259e-10
1.26173e-10
1.27789e-10
1.291e-10
1.301e-10
1.30785e-10
1.3115e-10
1.31194e-10
1.30917e-10
1.30315e-10
1.2939e-10
1.28145e-10
1.26583e-10
1.24709e-10
1.22528e-10
1.20048e-10
1.17278e-10
1.14226e-10
1.10905e-10
1.07325e-10
1.03502e-10
9.94501e-11
9.5185e-11
9.07246e-11
8.60876e-11
8.12939e-11
7.63647e-11
7.13224e-11
6.61905e-11
6.09938e-11
5.57582e-11
5.0511e-11
4.52807e-11
4.00973e-11
3.49927e-11
3.00005e-11
2.51575e-11
2.05037e-11
1.60847e-11
1.19538e-11
8.1776e-12
4.84682e-12
2.10363e-12
2.33871e-13
2.34489e-13
2.1091e-12
4.85965e-12
8.20006e-12
1.19887e-11
1.61361e-11
2.05768e-11
2.52593e-11
3.01398e-11
3.51803e-11
4.03461e-11
4.56056e-11
5.09289e-11
5.62881e-11
6.16563e-11
6.7008e-11
7.23187e-11
7.75646e-11
8.27231e-11
8.77724e-11
9.26915e-11
9.74603e-11
1.0206e-10
1.06471e-10
1.10677e-10
1.14661e-10
1.18408e-10
1.21902e-10
1.25131e-10
1.28082e-10
1.30742e-10
1.33101e-10
1.3515e-10
1.36881e-10
1.38285e-10
1.39357e-10
1.40092e-10
1.40485e-10
1.40534e-10
1.4024e-10
1.39598e-10
1.3861e-10
1.37279e-10
1.35609e-10
1.33605e-10
1.31273e-10
1.2862e-10
1.25655e-10
1.22388e-10
1.18833e-10
1.15e-10
1.10906e-10
1.06566e-10
1.01998e-10
9.7219e-11
9.22506e-11
8.71139e-11
8.18316e-11
7.64277e-11
7.09275e-11
6.53576e-11
5.97461e-11
5.4122e-11
4.85162e-11
4.29608e-11
3.74901e-11
3.21403e-11
2.69506e-11
2.19642e-11
1.72296e-11
1.28042e-11
8.75902e-12
5.19128e-12
2.25309e-12
2.50484e-13
2.49639e-13
2.24536e-12
5.17357e-12
8.72967e-12
1.27629e-11
1.71777e-11
2.19046e-11
2.68884e-11
3.20826e-11
3.74466e-11
4.29434e-11
4.85392e-11
5.42023e-11
5.99026e-11
6.56118e-11
7.13025e-11
7.69485e-11
8.25248e-11
8.80072e-11
9.33725e-11
9.85986e-11
1.03664e-10
1.08548e-10
1.13232e-10
1.17697e-10
1.21926e-10
1.25902e-10
1.2961e-10
1.33035e-10
1.36164e-10
1.38985e-10
1.41486e-10
1.43658e-10
1.45492e-10
1.4698e-10
1.48115e-10
1.48892e-10
1.49307e-10
1.49357e-10
1.49043e-10
1.4836e-10
1.4731e-10
1.45896e-10
1.44123e-10
1.41994e-10
1.39517e-10
1.36699e-10
1.3355e-10
1.30081e-10
1.26304e-10
1.22233e-10
1.17883e-10
1.13272e-10
1.08417e-10
1.03339e-10
9.80584e-11
9.25987e-11
8.69838e-11
8.12392e-11
7.53921e-11
6.94707e-11
6.35048e-11
5.75257e-11
5.15659e-11
4.56599e-11
3.98441e-11
3.41571e-11
2.86407e-11
2.33407e-11
1.83087e-11
1.36056e-11
9.30697e-12
5.51588e-12
2.39393e-12
2.6614e-13
2.64221e-13
2.37651e-12
5.4757e-12
9.2393e-12
1.35076e-11
1.81794e-11
2.31811e-11
2.8454e-11
3.39488e-11
3.96223e-11
4.54354e-11
5.13521e-11
5.73386e-11
6.33632e-11
6.93957e-11
7.5407e-11
8.13696e-11
8.72569e-11
9.30433e-11
9.87044e-11
1.04217e-10
1.09558e-10
1.14706e-10
1.19642e-10
1.24345e-10
1.28797e-10
1.32982e-10
1.36883e-10
1.40485e-10
1.43775e-10
1.46739e-10
1.49366e-10
1.51645e-10
1.53568e-10
1.55127e-10
1.56314e-10
1.57124e-10
1.57553e-10
1.57598e-10
1.5726e-10
1.56533e-10
1.55421e-10
1.53926e-10
1.52051e-10
1.49804e-10
1.47189e-10
1.44216e-10
1.40893e-10
1.37234e-10
1.3325e-10
1.28956e-10
1.24368e-10
1.19504e-10
1.14383e-10
1.09026e-10
1.03456e-10
9.76957e-11
9.17717e-11
8.57108e-11
7.95414e-11
7.32934e-11
6.69983e-11
6.06891e-11
5.44004e-11
4.81685e-11
4.2032e-11
3.60316e-11
3.02114e-11
2.46199e-11
1.93115e-11
1.43503e-11
9.81611e-12
5.8175e-12
2.52478e-12
2.80686e-13
2.78256e-13
2.50272e-12
5.76642e-12
9.7296e-12
1.42239e-11
1.91426e-11
2.44078e-11
2.99578e-11
3.57402e-11
4.17095e-11
4.78241e-11
5.4046e-11
6.03395e-11
6.6671e-11
7.30085e-11
7.93215e-11
8.55808e-11
9.17583e-11
9.78274e-11
1.03762e-10
1.09538e-10
1.15132e-10
1.20521e-10
1.25685e-10
1.30602e-10
1.35255e-10
1.39625e-10
1.43697e-10
1.47453e-10
1.50881e-10
1.53967e-10
1.567e-10
1.59069e-10
1.61064e-10
1.62677e-10
1.63902e-10
1.64733e-10
1.65165e-10
1.65196e-10
1.64828e-10
1.64054e-10
1.62877e-10
1.613e-10
1.59328e-10
1.56966e-10
1.5422e-10
1.511e-10
1.47616e-10
1.4378e-10
1.39604e-10
1.35104e-10
1.30297e-10
1.25201e-10
1.19836e-10
1.14224e-10
1.08388e-10
1.02353e-10
9.61469e-11
8.97968e-11
8.33329e-11
7.67865e-11
7.01906e-11
6.35799e-11
5.69906e-11
5.04609e-11
4.40312e-11
3.77444e-11
3.16467e-11
2.57887e-11
2.02277e-11
1.50307e-11
1.02812e-11
6.093e-12
2.64431e-12
2.93972e-13
2.9179e-13
2.62442e-12
6.0467e-12
1.02022e-11
1.49141e-11
2.00702e-11
2.55886e-11
3.14043e-11
3.74622e-11
4.37139e-11
5.01159e-11
5.66278e-11
6.3212e-11
6.9833e-11
7.64571e-11
8.30523e-11
8.95877e-11
9.6034e-11
1.02363e-10
1.08548e-10
1.14564e-10
1.20385e-10
1.25989e-10
1.31355e-10
1.3646e-10
1.41287e-10
1.45816e-10
1.50031e-10
1.53917e-10
1.57458e-10
1.60642e-10
1.63457e-10
1.65892e-10
1.67938e-10
1.69587e-10
1.70833e-10
1.71669e-10
1.72092e-10
1.72098e-10
1.71691e-10
1.70862e-10
1.69616e-10
1.67957e-10
1.65888e-10
1.63415e-10
1.60545e-10
1.57288e-10
1.53653e-10
1.49654e-10
1.45302e-10
1.40615e-10
1.35608e-10
1.30303e-10
1.24717e-10
1.18876e-10
1.12802e-10
1.06521e-10
1.00062e-10
9.34525e-11
8.6725e-11
7.99116e-11
7.30466e-11
6.61661e-11
5.93079e-11
5.25118e-11
4.58198e-11
3.92767e-11
3.29305e-11
2.68341e-11
2.10471e-11
1.56391e-11
1.06971e-11
6.33934e-12
2.75118e-12
3.0585e-13
3.04894e-13
2.74225e-12
6.31802e-12
1.06595e-11
1.55817e-11
2.09671e-11
2.67297e-11
3.28011e-11
3.91233e-11
4.56455e-11
5.23216e-11
5.91091e-11
6.59685e-11
7.28622e-11
7.97548e-11
8.66126e-11
9.34033e-11
1.00096e-10
1.06662e-10
1.13072e-10
1.19302e-10
1.25324e-10
1.31115e-10
1.36654e-10
1.41919e-10
1.46889e-10
1.51548e-10
1.55877e-10
1.59862e-10
1.63488e-10
1.66741e-10
1.69611e-10
1.72087e-10
1.7416e-10
1.75822e-10
1.77067e-10
1.77889e-10
1.78286e-10
1.78254e-10
1.77795e-10
1.76903e-10
1.75583e-10
1.73838e-10
1.71672e-10
1.69091e-10
1.66102e-10
1.62716e-10
1.58942e-10
1.54793e-10
1.50282e-10
1.45427e-10
1.40243e-10
1.34751e-10
1.28972e-10
1.22928e-10
1.16645e-10
1.10149e-10
1.03469e-10
9.66342e-11
8.9677e-11
8.26311e-11
7.55319e-11
6.84166e-11
6.13243e-11
5.42963e-11
4.7376e-11
4.06098e-11
3.40474e-11
2.77436e-11
2.17598e-11
1.61683e-11
1.10588e-11
6.55354e-12
2.84409e-12
3.16178e-13
3.17667e-13
2.8571e-12
6.58244e-12
1.11051e-11
1.62319e-11
2.184e-11
2.78394e-11
3.41582e-11
4.07355e-11
4.75177e-11
5.44564e-11
6.15067e-11
6.86268e-11
7.57773e-11
8.2921e-11
9.00223e-11
9.70475e-11
1.03965e-10
1.10743e-10
1.17353e-10
1.23769e-10
1.29963e-10
1.35912e-10
1.41593e-10
1.46985e-10
1.52067e-10
1.56822e-10
1.61232e-10
1.65283e-10
1.68961e-10
1.72252e-10
1.75145e-10
1.77632e-10
1.79703e-10
1.81351e-10
1.82571e-10
1.83358e-10
1.83707e-10
1.8362e-10
1.83095e-10
1.82128e-10
1.80725e-10
1.78888e-10
1.76623e-10
1.73936e-10
1.70833e-10
1.67325e-10
1.63423e-10
1.59138e-10
1.54486e-10
1.49482e-10
1.44144e-10
1.38491e-10
1.32545e-10
1.26329e-10
1.19869e-10
1.13191e-10
1.06324e-10
9.92994e-11
9.21493e-11
8.49084e-11
7.76129e-11
7.03009e-11
6.30127e-11
5.57904e-11
4.86789e-11
4.17258e-11
3.49823e-11
2.85047e-11
2.23562e-11
1.6611e-11
1.13614e-11
6.73271e-12
2.9218e-12
3.24815e-13
3.30236e-13
2.97011e-12
6.84256e-12
1.15433e-11
1.6871e-11
2.26975e-11
2.89285e-11
3.54887e-11
4.2314e-11
4.93481e-11
5.65398e-11
6.38418e-11
7.121e-11
7.86029e-11
8.59813e-11
9.33078e-11
1.00547e-10
1.07666e-10
1.14632e-10
1.21416e-10
1.27989e-10
1.34326e-10
1.404e-10
1.4619e-10
1.51674e-10
1.56833e-10
1.61647e-10
1.66102e-10
1.70182e-10
1.73874e-10
1.77167e-10
1.80049e-10
1.82512e-10
1.84549e-10
1.86153e-10
1.87318e-10
1.88042e-10
1.88322e-10
1.88158e-10
1.87549e-10
1.86494e-10
1.84996e-10
1.8306e-10
1.80692e-10
1.77897e-10
1.74683e-10
1.71061e-10
1.6704e-10
1.62634e-10
1.57857e-10
1.52725e-10
1.47256e-10
1.41468e-10
1.35385e-10
1.29028e-10
1.22424e-10
1.15599e-10
1.08583e-10
1.01407e-10
9.41041e-11
8.67086e-11
7.92576e-11
7.179e-11
6.43467e-11
5.6971e-11
4.97083e-11
4.26075e-11
3.57208e-11
2.91058e-11
2.28272e-11
1.69605e-11
1.16002e-11
6.87408e-12
2.98311e-12
3.31629e-13
3.4275e-13
3.08261e-12
7.10147e-12
1.19792e-11
1.75066e-11
2.35496e-11
3.00098e-11
3.68081e-11
4.38772e-11
5.11576e-11
5.85953e-11
6.61403e-11
7.3746e-11
8.13687e-11
8.89669e-11
9.65015e-11
1.03935e-10
1.11234e-10
1.18363e-10
1.25293e-10
1.31995e-10
1.38441e-10
1.44608e-10
1.50471e-10
1.5601e-10
1.61205e-10
1.6604e-10
1.70498e-10
1.74567e-10
1.78233e-10
1.81487e-10
1.84318e-10
1.86719e-10
1.88685e-10
1.90209e-10
1.91288e-10
1.91919e-10
1.92101e-10
1.91837e-10
1.91122e-10
1.8996e-10
1.88355e-10
1.8631e-10
1.83832e-10
1.80927e-10
1.77605e-10
1.73873e-10
1.69744e-10
1.6523e-10
1.60345e-10
1.55106e-10
1.49529e-10
1.43634e-10
1.37443e-10
1.30979e-10
1.24266e-10
1.17332e-10
1.10207e-10
1.0292e-10
9.55055e-11
8.79983e-11
8.04355e-11
7.28562e-11
6.53018e-11
5.7816e-11
5.04451e-11
4.32385e-11
3.62493e-11
2.95358e-11
2.31639e-11
1.72104e-11
1.17708e-11
6.97505e-12
3.02688e-12
3.36493e-13
3.55382e-13
3.19618e-12
7.36277e-12
1.24191e-11
1.81475e-11
2.44083e-11
3.10983e-11
3.81347e-11
4.54464e-11
5.29706e-11
6.06501e-11
6.84322e-11
7.62674e-11
8.41093e-11
9.19142e-11
9.96409e-11
1.0725e-10
1.14706e-10
1.21975e-10
1.29023e-10
1.35823e-10
1.42346e-10
1.48568e-10
1.54465e-10
1.60019e-10
1.6521e-10
1.70021e-10
1.74439e-10
1.78451e-10
1.82047e-10
1.85216e-10
1.87953e-10
1.9025e-10
1.92103e-10
1.93508e-10
1.94464e-10
1.94969e-10
1.95022e-10
1.94629e-10
1.93785e-10
1.92495e-10
1.90765e-10
1.88599e-10
1.86003e-10
1.82985e-10
1.79553e-10
1.75717e-10
1.71488e-10
1.66879e-10
1.61903e-10
1.56577e-10
1.50917e-10
1.44943e-10
1.38676e-10
1.32138e-10
1.25353e-10
1.1835e-10
1.11156e-10
1.03802e-10
9.63204e-11
8.87471e-11
8.11186e-11
7.34741e-11
6.58551e-11
5.83054e-11
5.08717e-11
4.36037e-11
3.6555e-11
2.97845e-11
2.33585e-11
1.73546e-11
1.18692e-11
7.03324e-12
3.0521e-12
3.39294e-13
3.68328e-13
3.31255e-12
7.63049e-12
1.28697e-11
1.88036e-11
2.52866e-11
3.22107e-11
3.94885e-11
4.70452e-11
5.48142e-11
6.2735e-11
7.07512e-11
7.88105e-11
8.68635e-11
9.4864e-11
1.02768e-10
1.10536e-10
1.18128e-10
1.2551e-10
1.32649e-10
1.39514e-10
1.46079e-10
1.52318e-10
1.5821e-10
1.63735e-10
1.68875e-10
1.73616e-10
1.77946e-10
1.81852e-10
1.85328e-10
1.88365e-10
1.90959e-10
1.93105e-10
1.948e-10
1.96044e-10
1.96835e-10
1.97175e-10
1.97066e-10
1.96512e-10
1.95511e-10
1.94071e-10
1.92197e-10
1.89895e-10
1.87171e-10
1.84033e-10
1.80491e-10
1.76554e-10
1.72233e-10
1.67541e-10
1.62491e-10
1.57099e-10
1.51381e-10
1.45356e-10
1.39044e-10
1.32468e-10
1.2565e-10
1.18617e-10
1.11397e-10
1.04021e-10
9.65194e-11
8.89275e-11
8.12817e-11
7.36208e-11
6.59861e-11
5.84211e-11
5.09724e-11
4.36898e-11
3.66269e-11
2.98428e-11
2.34039e-11
1.7388e-11
1.18919e-11
7.04657e-12
3.05784e-12
3.39932e-13
3.81799e-13
3.43365e-12
7.90903e-12
1.33382e-11
1.94856e-11
2.6199e-11
3.3365e-11
4.08916e-11
4.86996e-11
5.67183e-11
6.48829e-11
7.31337e-11
8.14147e-11
8.96734e-11
9.78604e-11
1.0593e-10
1.13838e-10
1.21546e-10
1.29017e-10
1.36216e-10
1.43114e-10
1.49683e-10
1.55899e-10
1.61741e-10
1.67191e-10
1.72232e-10
1.76852e-10
1.81041e-10
1.84789e-10
1.88092e-10
1.90943e-10
1.93342e-10
1.95285e-10
1.96774e-10
1.97809e-10
1.98392e-10
1.98527e-10
1.98218e-10
1.97468e-10
1.96281e-10
1.94666e-10
1.92626e-10
1.90171e-10
1.87307e-10
1.84043e-10
1.80389e-10
1.76355e-10
1.71951e-10
1.67189e-10
1.62083e-10
1.56647e-10
1.50897e-10
1.44851e-10
1.38529e-10
1.3195e-10
1.25138e-10
1.18119e-10
1.10917e-10
1.03564e-10
9.60899e-11
8.8528e-11
8.09143e-11
7.32867e-11
6.56859e-11
5.8155e-11
5.07399e-11
4.34902e-11
3.64593e-11
2.97058e-11
2.32961e-11
1.73076e-11
1.18366e-11
7.01367e-12
3.04352e-12
3.38337e-13
3.96021e-13
3.5615e-12
8.20305e-12
1.38327e-11
2.02051e-11
2.71608e-11
3.45807e-11
4.23676e-11
5.04372e-11
5.87142e-11
6.71293e-11
7.56186e-11
8.4122e-11
9.25832e-11
1.0095e-10
1.09173e-10
1.17206e-10
1.25009e-10
1.32542e-10
1.39772e-10
1.46668e-10
1.53202e-10
1.59352e-10
1.65097e-10
1.7042e-10
1.7531e-10
1.79754e-10
1.83745e-10
1.87278e-10
1.9035e-10
1.92959e-10
1.95106e-10
1.96793e-10
1.98022e-10
1.98797e-10
1.99125e-10
1.99011e-10
1.98462e-10
1.97482e-10
1.96079e-10
1.94261e-10
1.92036e-10
1.89412e-10
1.86397e-10
1.83001e-10
1.79232e-10
1.75101e-10
1.70619e-10
1.65798e-10
1.6065e-10
1.55189e-10
1.49431e-10
1.43392e-10
1.3709e-10
1.30545e-10
1.23778e-10
1.16813e-10
1.09676e-10
1.02393e-10
9.49953e-11
8.75144e-11
7.99846e-11
7.2443e-11
6.4929e-11
5.74846e-11
5.01551e-11
4.2989e-11
3.6039e-11
2.93633e-11
2.30273e-11
1.71077e-11
1.16997e-11
6.93247e-12
3.00824e-12
3.34414e-13
4.1123e-13
3.69823e-12
8.51746e-12
1.43614e-11
2.09739e-11
2.81879e-11
3.5878e-11
4.39408e-11
5.22865e-11
6.08346e-11
6.95106e-11
7.82456e-11
8.6975e-11
9.56383e-11
1.04179e-10
1.12545e-10
1.20689e-10
1.28565e-10
1.36135e-10
1.43363e-10
1.50219e-10
1.56676e-10
1.62712e-10
1.68309e-10
1.73452e-10
1.78132e-10
1.82341e-10
1.86074e-10
1.8933e-10
1.9211e-10
1.94416e-10
1.96251e-10
1.97622e-10
1.98536e-10
1.99002e-10
1.99026e-10
1.98617e-10
1.97785e-10
1.96538e-10
1.94885e-10
1.92837e-10
1.90401e-10
1.87588e-10
1.84406e-10
1.80867e-10
1.76978e-10
1.72752e-10
1.68199e-10
1.6333e-10
1.58156e-10
1.52692e-10
1.46951e-10
1.40949e-10
1.34701e-10
1.28227e-10
1.21547e-10
1.14681e-10
1.07654e-10
1.00491e-10
9.32204e-11
8.58726e-11
7.84803e-11
7.10785e-11
6.37052e-11
5.64012e-11
4.92102e-11
4.21796e-11
3.53609e-11
2.88111e-11
2.25944e-11
1.67861e-11
1.14797e-11
6.80202e-12
2.95161e-12
3.28117e-13
4.27667e-13
3.846e-12
8.85721e-12
1.49326e-11
2.18042e-11
2.92967e-11
3.72772e-11
4.56359e-11
5.42765e-11
6.31124e-11
7.20634e-11
8.10547e-11
9.00165e-11
9.88834e-11
1.07595e-10
1.16094e-10
1.24331e-10
1.32259e-10
1.39836e-10
1.47028e-10
1.53803e-10
1.60136e-10
1.66008e-10
1.71401e-10
1.76305e-10
1.80714e-10
1.84623e-10
1.88032e-10
1.90945e-10
1.93367e-10
1.95304e-10
1.96765e-10
1.97762e-10
1.98304e-10
1.98404e-10
1.98074e-10
1.97325e-10
1.96168e-10
1.94617e-10
1.92681e-10
1.90374e-10
1.87705e-10
1.84685e-10
1.81326e-10
1.77636e-10
1.73627e-10
1.69309e-10
1.64692e-10
1.59787e-10
1.54606e-10
1.4916e-10
1.43462e-10
1.37526e-10
1.31367e-10
1.25002e-10
1.18448e-10
1.11725e-10
1.04854e-10
9.78595e-11
9.07669e-11
8.36043e-11
7.64024e-11
6.91942e-11
6.20156e-11
5.49055e-11
4.7906e-11
4.10626e-11
3.44253e-11
2.80493e-11
2.19973e-11
1.63426e-11
1.11764e-11
6.6223e-12
2.87361e-12
3.19446e-13
4.4557e-13
4.00695e-12
9.22725e-12
1.55546e-11
2.27082e-11
3.05032e-11
3.87987e-11
4.74773e-11
5.64357e-11
6.55801e-11
7.48234e-11
8.40845e-11
9.32874e-11
1.02361e-10
1.11239e-10
1.19863e-10
1.28176e-10
1.3613e-10
1.43684e-10
1.508e-10
1.57449e-10
1.63607e-10
1.69256e-10
1.74384e-10
1.78984e-10
1.83053e-10
1.86592e-10
1.89608e-10
1.92107e-10
1.94101e-10
1.95602e-10
1.96625e-10
1.97184e-10
1.97296e-10
1.96976e-10
1.96241e-10
1.95105e-10
1.93584e-10
1.91693e-10
1.89445e-10
1.86853e-10
1.83931e-10
1.80691e-10
1.77144e-10
1.733e-10
1.6917e-10
1.64765e-10
1.60094e-10
1.55168e-10
1.49998e-10
1.44593e-10
1.38965e-10
1.33127e-10
1.27091e-10
1.20872e-10
1.14485e-10
1.07949e-10
1.01281e-10
9.45032e-11
8.76388e-11
8.07133e-11
7.37546e-11
6.67934e-11
5.98632e-11
5.30004e-11
4.62449e-11
3.96402e-11
3.32341e-11
2.70797e-11
2.12375e-11
1.57785e-11
1.07907e-11
6.39382e-12
2.77446e-12
3.08424e-13
4.65168e-13
4.18315e-12
9.63231e-12
1.62353e-11
2.36973e-11
3.18228e-11
4.04618e-11
4.94884e-11
5.87912e-11
6.8268e-11
7.78242e-11
8.73709e-11
9.68249e-11
1.06109e-10
1.1515e-10
1.23885e-10
1.32255e-10
1.40208e-10
1.477e-10
1.54697e-10
1.61167e-10
1.67092e-10
1.72455e-10
1.77249e-10
1.81471e-10
1.85126e-10
1.8822e-10
1.90766e-10
1.92775e-10
1.94269e-10
1.95264e-10
1.95779e-10
1.95838e-10
1.95462e-10
1.9467e-10
1.93481e-10
1.91916e-10
1.89994e-10
1.87731e-10
1.85144e-10
1.82248e-10
1.79058e-10
1.75587e-10
1.71846e-10
1.67848e-10
1.63603e-10
1.5912e-10
1.54409e-10
1.49479e-10
1.44341e-10
1.39002e-10
1.33473e-10
1.27765e-10
1.21887e-10
1.15853e-10
1.09675e-10
1.03369e-10
9.69501e-11
9.04373e-11
8.38509e-11
7.72133e-11
7.05498e-11
6.38881e-11
5.72588e-11
5.06957e-11
4.42358e-11
3.79201e-11
3.17939e-11
2.59077e-11
2.03194e-11
1.5097e-11
1.0325e-11
6.11793e-12
2.65476e-12
2.95118e-13
4.86677e-13
4.37647e-12
1.00768e-11
1.69822e-11
2.47822e-11
3.32697e-11
4.22843e-11
5.16906e-11
6.13675e-11
7.12038e-11
8.10955e-11
9.0945e-11
1.00661e-10
1.10157e-10
1.19357e-10
1.28188e-10
1.3659e-10
1.44507e-10
1.51895e-10
1.58718e-10
1.64951e-10
1.70574e-10
1.75577e-10
1.79959e-10
1.83724e-10
1.86882e-10
1.89448e-10
1.9144e-10
1.92882e-10
1.93798e-10
1.9421e-10
1.94155e-10
1.93653e-10
1.92731e-10
1.91415e-10
1.89729e-10
1.87697e-10
1.85341e-10
1.82681e-10
1.79736e-10
1.76523e-10
1.73056e-10
1.69351e-10
1.6542e-10
1.61274e-10
1.56923e-10
1.52377e-10
1.47645e-10
1.42734e-10
1.37653e-10
1.3241e-10
1.27012e-10
1.21467e-10
1.15785e-10
1.09975e-10
1.04048e-10
9.80157e-11
9.18914e-11
8.56906e-11
7.94304e-11
7.31303e-11
6.68122e-11
6.05005e-11
5.42227e-11
4.80094e-11
4.18945e-11
3.59161e-11