/*--------------------------------*- C++ -*----------------------------------*\
  =========                 |
  \\      /  F ield         | OpenFOAM: The Open Source CFD Toolbox
   \\    /   O peration     | Website:  https://openfoam.org
    \\  /    A nd           | Version:  12
     \\/     M anipulation  |
\*---------------------------------------------------------------------------*/
FoamFile
{
    format      ascii;
    class       volScalarField;
    location    "10";
    object      nut;
}
// * * * * * * * * * * * * * * * * * * * * * * * * * * * * * * * * * * * * * //

dimensions      [0 2 -1 0 0 0 0];

internalField   nonuniform List<scalar> 
5625
(
5.40975e-20
1.6345e-18
3.46494e-18
5.65032e-18
8.11257e-18
1.07928e-17
1.36479e-17
1.6645e-17
1.97568e-17
2.296e-17
2.62336e-17
2.95582e-17
3.29159e-17
3.62896e-17
3.9663e-17
4.30203e-17
4.63467e-17
4.96274e-17
5.28487e-17
5.5997e-17
5.90593e-17
6.20232e-17
6.48768e-17
6.76086e-17
7.0208e-17
7.26647e-17
7.4969e-17
7.71119e-17
7.90852e-17
8.08811e-17
8.24927e-17
8.39135e-17
8.51381e-17
8.61616e-17
8.69797e-17
8.75893e-17
8.79876e-17
8.8173e-17
8.81445e-17
8.79018e-17
8.74451e-17
8.67759e-17
8.58964e-17
8.48094e-17
8.35187e-17
8.20288e-17
8.0345e-17
7.84734e-17
7.64209e-17
7.41949e-17
7.1804e-17
6.9257e-17
6.6564e-17
6.37352e-17
6.0782e-17
5.77162e-17
5.45503e-17
5.12975e-17
4.79716e-17
4.45873e-17
4.11595e-17
3.77043e-17
3.42382e-17
3.07787e-17
2.73441e-17
2.39541e-17
2.06296e-17
1.73934e-17
1.42709e-17
1.12917e-17
8.49143e-18
5.91621e-18
3.62882e-18
1.71201e-18
5.66621e-20
3.65732e-19
5.32661e-17
2.84336e-16
6.64977e-16
1.1184e-15
1.60858e-15
2.12265e-15
2.65514e-15
3.20261e-15
3.76221e-15
4.33121e-15
4.90695e-15
5.48681e-15
6.06819e-15
6.64857e-15
7.22547e-15
7.79645e-15
8.35915e-15
8.91126e-15
9.45056e-15
9.97487e-15
1.04821e-14
1.09703e-14
1.14376e-14
1.1882e-14
1.2302e-14
1.26958e-14
1.3062e-14
1.33991e-14
1.37058e-14
1.3981e-14
1.42236e-14
1.44327e-14
1.46073e-14
1.47469e-14
1.48509e-14
1.49187e-14
1.49501e-14
1.4945e-14
1.49032e-14
1.48249e-14
1.47103e-14
1.45598e-14
1.43739e-14
1.41532e-14
1.38985e-14
1.36107e-14
1.32909e-14
1.294e-14
1.25596e-14
1.21509e-14
1.17154e-14
1.12549e-14
1.07711e-14
1.02658e-14
9.74105e-15
9.19891e-15
8.64155e-15
8.07127e-15
7.49043e-15
6.9015e-15
6.30702e-15
5.70963e-15
5.11204e-15
4.51702e-15
3.92744e-15
3.34622e-15
2.77634e-15
2.22101e-15
1.68401e-15
1.17128e-15
6.96566e-16
2.97863e-16
5.58015e-17
3.83155e-19
8.12919e-19
1.33385e-16
9.10395e-16
2.7199e-15
5.49477e-15
8.94875e-15
1.28246e-14
1.69564e-14
2.12479e-14
2.56424e-14
3.01032e-14
3.46038e-14
3.91223e-14
4.36393e-14
4.81364e-14
5.25962e-14
5.70015e-14
6.13353e-14
6.55814e-14
6.97236e-14
7.37463e-14
7.76343e-14
8.13731e-14
8.49486e-14
8.83474e-14
9.15568e-14
9.45647e-14
9.736e-14
9.99321e-14
1.02271e-13
1.04369e-13
1.06217e-13
1.07809e-13
1.09138e-13
1.102e-13
1.10989e-13
1.11504e-13
1.11741e-13
1.11699e-13
1.11379e-13
1.1078e-13
1.09904e-13
1.08755e-13
1.07336e-13
1.05652e-13
1.03708e-13
1.01511e-13
9.90691e-14
9.63901e-14
9.34837e-14
9.03602e-14
8.70307e-14
8.35072e-14
7.98026e-14
7.59303e-14
7.19046e-14
6.77405e-14
6.34534e-14
5.90597e-14
5.4576e-14
5.00196e-14
4.54085e-14
4.07612e-14
3.60971e-14
3.14373e-14
2.68056e-14
2.2231e-14
1.77536e-14
1.34348e-14
9.37787e-15
5.75927e-15
2.85094e-15
9.5426e-16
1.39823e-16
8.52226e-19
1.3436e-18
2.25996e-16
1.64751e-15
5.41286e-15
1.20978e-14
2.1575e-14
3.33124e-14
4.66997e-14
6.12198e-14
7.6487e-14
9.22281e-14
1.0825e-13
1.2441e-13
1.406e-13
1.56731e-13
1.72726e-13
1.88515e-13
2.04037e-13
2.1923e-13
2.34038e-13
2.48405e-13
2.6228e-13
2.7561e-13
2.88349e-13
3.00449e-13
3.11868e-13
3.22562e-13
3.32495e-13
3.41629e-13
3.49932e-13
3.57374e-13
3.63927e-13
3.69568e-13
3.74274e-13
3.7803e-13
3.80821e-13
3.82636e-13
3.83466e-13
3.8331e-13
3.82166e-13
3.80034e-13
3.76922e-13
3.7284e-13
3.678e-13
3.61818e-13
3.54914e-13
3.4711e-13
3.38432e-13
3.2891e-13
3.18574e-13
3.07461e-13
2.95606e-13
2.83052e-13
2.69841e-13
2.56019e-13
2.41634e-13
2.26738e-13
2.11384e-13
1.95629e-13
1.79532e-13
1.6316e-13
1.46584e-13
1.29884e-13
1.13155e-13
9.65149e-14
8.0118e-14
6.41748e-14
4.89814e-14
3.49524e-14
2.26407e-14
1.26952e-14
5.6798e-15
1.72873e-15
2.3716e-16
1.41007e-18
1.93292e-18
3.27885e-16
2.44797e-15
8.36315e-15
1.96281e-14
3.68702e-14
5.98273e-14
8.76818e-14
1.19415e-13
1.54045e-13
1.90734e-13
2.28807e-13
2.67734e-13
3.07099e-13
3.46573e-13
3.85884e-13
4.24806e-13
4.63139e-13
5.00707e-13
5.37347e-13
5.72911e-13
6.07261e-13
6.40263e-13
6.71796e-13
7.01744e-13
7.29998e-13
7.56455e-13
7.81021e-13
8.03608e-13
8.24134e-13
8.42527e-13
8.5872e-13
8.72655e-13
8.84283e-13
8.9356e-13
9.00453e-13
9.04935e-13
9.06988e-13
9.06604e-13
9.03786e-13
8.98527e-13
8.90848e-13
8.80772e-13
8.68329e-13
8.53558e-13
8.36506e-13
8.17226e-13
7.95779e-13
7.72236e-13
7.46672e-13
7.19172e-13
6.89827e-13
6.58735e-13
6.26003e-13
5.91745e-13
5.56084e-13
5.19154e-13
4.811e-13
4.42082e-13
4.02277e-13
3.61892e-13
3.21165e-13
2.80387e-13
2.39914e-13
2.002e-13
1.61823e-13
1.25515e-13
9.21905e-14
6.29092e-14
3.87655e-14
2.06328e-14
8.78947e-15
2.5725e-15
3.44581e-16
2.03144e-18
2.56478e-18
4.36706e-16
3.29562e-15
1.14689e-14
2.75963e-14
5.33605e-14
8.92581e-14
1.34765e-13
1.88699e-13
2.49579e-13
3.15899e-13
3.86274e-13
4.59502e-13
5.3457e-13
6.10634e-13
6.86992e-13
7.63051e-13
8.38305e-13
9.12315e-13
9.84693e-13
1.05509e-12
1.12319e-12
1.1887e-12
1.25136e-12
1.31092e-12
1.36714e-12
1.41982e-12
1.46875e-12
1.51375e-12
1.55467e-12
1.59134e-12
1.62364e-12
1.65146e-12
1.67468e-12
1.69322e-12
1.70702e-12
1.71603e-12
1.7202e-12
1.71952e-12
1.71399e-12
1.70361e-12
1.6884e-12
1.66842e-12
1.64372e-12
1.61438e-12
1.5805e-12
1.54217e-12
1.49952e-12
1.45268e-12
1.40182e-12
1.3471e-12
1.28871e-12
1.22685e-12
1.16176e-12
1.09367e-12
1.02287e-12
9.49655e-13
8.74377e-13
7.97426e-13
7.19256e-13
6.40403e-13
5.61495e-13
4.83295e-13
4.06725e-13
3.32902e-13
2.63156e-13
1.99015e-13
1.42132e-13
9.41141e-14
5.6241e-14
2.90725e-14
1.20776e-14
3.46967e-15
4.59749e-16
2.70013e-18
3.22704e-18
5.50541e-16
4.17797e-15
1.46828e-14
3.58181e-14
7.04287e-14
1.20021e-13
1.84744e-13
2.63648e-13
3.55078e-13
4.57022e-13
5.67399e-13
6.84222e-13
8.05691e-13
9.30219e-13
1.05643e-12
1.18312e-12
1.30927e-12
1.43397e-12
1.55643e-12
1.67595e-12
1.7919e-12
1.90369e-12
2.01083e-12
2.11282e-12
2.20924e-12
2.29969e-12
2.38381e-12
2.46125e-12
2.53174e-12
2.59498e-12
2.65074e-12
2.69882e-12
2.73902e-12
2.7712e-12
2.79522e-12
2.811e-12
2.81846e-12
2.81756e-12
2.80834e-12
2.79073e-12
2.76482e-12
2.73068e-12
2.68842e-12
2.63816e-12
2.58006e-12
2.51431e-12
2.44113e-12
2.36076e-12
2.27349e-12
2.17961e-12
2.0795e-12
1.97352e-12
1.86213e-12
1.7458e-12
1.62509e-12
1.50062e-12
1.37308e-12
1.24331e-12
1.11224e-12
9.81003e-13
8.50898e-13
7.23458e-13
6.00457e-13
4.83912e-13
3.76046e-13
2.79182e-13
1.95548e-13
1.2696e-13
7.44431e-14
3.78304e-14
1.54976e-14
4.40792e-15
5.80751e-16
3.40397e-18
3.90981e-18
6.67769e-16
5.08385e-15
1.79681e-14
4.41893e-14
8.77782e-14
1.51348e-13
2.35915e-13
3.4105e-13
4.65214e-13
6.06158e-13
7.61261e-13
9.2782e-13
1.10322e-12
1.28501e-12
1.471e-12
1.6592e-12
1.84787e-12
2.03546e-12
2.22057e-12
2.40199e-12
2.57861e-12
2.74944e-12
2.91357e-12
3.07019e-12
3.21856e-12
3.35799e-12
3.48788e-12
3.60767e-12
3.71685e-12
3.81497e-12
3.90163e-12
3.97648e-12
4.03921e-12
4.08956e-12
4.12733e-12
4.15236e-12
4.16452e-12
4.16375e-12
4.15008e-12
4.12341e-12
4.08387e-12
4.03158e-12
3.96669e-12
3.8894e-12
3.79998e-12
3.69872e-12
3.58599e-12
3.46217e-12
3.32775e-12
3.18325e-12
3.02926e-12
2.86645e-12
2.69558e-12
2.51751e-12
2.33323e-12
2.14384e-12
1.95064e-12
1.75508e-12
1.55886e-12
1.3639e-12
1.17243e-12
9.86948e-13
8.10225e-13
6.45254e-13
4.95114e-13
3.62761e-13
2.50715e-13
1.60669e-13
9.30751e-14
4.68031e-14
1.90131e-14
5.37605e-15
7.05943e-16
4.1329e-18
4.60465e-18
7.86983e-16
6.00324e-15
2.12919e-14
5.26287e-14
1.0522e-13
1.82801e-13
2.87338e-13
4.19067e-13
5.76772e-13
7.5817e-13
9.6032e-13
1.17992e-12
1.41362e-12
1.65813e-12
1.91038e-12
2.16752e-12
2.42697e-12
2.68638e-12
2.94365e-12
3.19687e-12
3.44433e-12
3.68447e-12
3.9159e-12
4.13732e-12
4.34758e-12
4.54562e-12
4.73049e-12
4.90131e-12
5.05731e-12
5.19778e-12
5.32209e-12
5.42971e-12
5.52015e-12
5.59301e-12
5.64797e-12
5.68477e-12
5.70322e-12
5.70319e-12
5.68475e-12
5.6477e-12
5.59223e-12
5.51849e-12
5.42673e-12
5.31723e-12
5.19039e-12
5.04665e-12
4.88656e-12
4.71075e-12
4.51993e-12
4.31494e-12
4.09672e-12
3.86634e-12
3.62501e-12
3.3741e-12
3.1152e-12
2.85008e-12
2.58078e-12
2.3096e-12
2.03916e-12
1.77241e-12
1.51261e-12
1.26333e-12
1.0284e-12
8.11711e-13
6.17077e-13
4.47875e-13
3.06671e-13
1.94796e-13
1.11944e-13
5.59075e-14
2.259e-14
6.36363e-15
8.33864e-16
4.87816e-18
5.30427e-18
9.06953e-16
6.9271e-15
2.46238e-14
6.10642e-14
1.22603e-13
2.1408e-13
3.3842e-13
4.96582e-13
6.87779e-13
9.09848e-13
1.15966e-12
1.43349e-12
1.72733e-12
2.03716e-12
2.35903e-12
2.68924e-12
3.02432e-12
3.36107e-12
3.69657e-12
4.02816e-12
4.35339e-12
4.67006e-12
4.97616e-12
5.26983e-12
5.54941e-12
5.81337e-12
6.06032e-12
6.289e-12
6.49828e-12
6.68713e-12
6.85466e-12
7.00005e-12
7.12261e-12
7.22176e-12
7.297e-12
7.34794e-12
7.3743e-12
7.37587e-12
7.35273e-12
7.30458e-12
7.23166e-12
7.13418e-12
7.01246e-12
6.86692e-12
6.69809e-12
6.50663e-12
6.29329e-12
6.059e-12
5.80479e-12
5.53189e-12
5.24166e-12
4.93569e-12
4.61576e-12
4.2839e-12
3.94241e-12
3.59391e-12
3.24132e-12
2.88794e-12
2.53744e-12
2.19386e-12
1.86161e-12
1.54534e-12
1.24987e-12
9.79916e-13
7.39868e-13
5.33341e-13
3.62785e-13
2.29021e-13
1.30888e-13
6.50656e-14
2.61955e-14
7.36089e-15
9.63175e-16
5.6318e-18
6.00227e-18
1.0266e-15
7.84741e-15
2.79367e-14
6.94308e-14
1.39798e-13
2.44945e-13
3.88727e-13
5.72832e-13
7.96946e-13
1.0591e-12
1.35607e-12
1.68384e-12
2.03786e-12
2.41343e-12
2.80584e-12
3.21053e-12
3.62318e-12
4.03974e-12
4.45643e-12
4.86978e-12
5.27659e-12
5.67392e-12
6.05908e-12
6.42959e-12
6.78321e-12
7.11785e-12
7.43163e-12
7.72285e-12
7.98994e-12
8.2315e-12
8.4463e-12
8.63323e-12
8.79131e-12
8.91973e-12
9.0178e-12
9.08496e-12
9.12079e-12
9.12499e-12
9.09763e-12
9.0383e-12
8.94727e-12
8.82482e-12
8.67136e-12
8.48743e-12
8.27374e-12
8.03117e-12
7.76076e-12
7.46375e-12
7.14157e-12
6.79589e-12
6.4286e-12
6.04187e-12
5.63816e-12
5.22026e-12
4.79131e-12
4.35484e-12
3.9148e-12
3.47555e-12
3.04189e-12
2.61901e-12
2.21244e-12
1.8279e-12
1.47112e-12
1.14756e-12
8.62038e-13
6.18299e-13
4.18562e-13
2.63065e-13
1.49756e-13
7.42018e-14
2.9798e-14
8.3585e-15
1.09262e-15
6.3864e-18
6.69312e-18
1.14497e-15
8.75707e-15
3.1206e-14
7.76699e-14
1.5669e-13
2.75191e-13
4.37914e-13
6.4725e-13
9.03355e-13
1.20448e-12
1.5474e-12
1.92781e-12
2.34079e-12
2.78099e-12
3.24303e-12
3.72157e-12
4.21147e-12
4.70785e-12
5.20611e-12
5.70197e-12
6.19144e-12
6.67084e-12
7.13677e-12
7.58609e-12
8.0159e-12
8.42357e-12
8.80666e-12
9.16296e-12
9.49044e-12
9.7873e-12
1.00519e-11
1.02828e-11
1.04787e-11
1.06385e-11
1.07613e-11
1.08463e-11
1.0893e-11
1.09009e-11
1.08701e-11
1.08001e-11
1.0691e-11
1.05434e-11
1.03576e-11
1.01343e-11
9.87454e-12
9.57931e-12
9.25e-12
8.8882e-12
8.49579e-12
8.07491e-12
7.62806e-12
7.15806e-12
6.66811e-12
6.16181e-12
5.64323e-12
5.11689e-12
4.58778e-12
4.0614e-12
3.54368e-12
3.04099e-12
2.55994e-12
2.10727e-12
1.68956e-12
1.3129e-12
9.82455e-13
7.02037e-13
4.73565e-13
2.96666e-13
1.68402e-13
8.32415e-14
3.33665e-14
9.34753e-15
1.22101e-15
7.13498e-18
7.37207e-18
1.26127e-15
9.65001e-15
3.44106e-14
8.57303e-14
1.73179e-13
3.04642e-13
4.85697e-13
7.19387e-13
1.00632e-12
1.34496e-12
1.73209e-12
2.16323e-12
2.63305e-12
3.13571e-12
3.6652e-12
4.21547e-12
4.78063e-12
5.35501e-12
5.93324e-12
6.51025e-12
7.08129e-12
7.64194e-12
8.18808e-12
8.71592e-12
9.22191e-12
9.70282e-12
1.01557e-11
1.05777e-11
1.09663e-11
1.13194e-11
1.16349e-11
1.19108e-11
1.21457e-11
1.23381e-11
1.24868e-11
1.25909e-11
1.26496e-11
1.26623e-11
1.26291e-11
1.25491e-11
1.24228e-11
1.22505e-11
1.20329e-11
1.17706e-11
1.14649e-11
1.1117e-11
1.07288e-11
1.0302e-11
9.83914e-12
9.34282e-12
8.81615e-12
8.26265e-12
7.68629e-12
7.09156e-12
6.48345e-12
5.86749e-12
5.24978e-12
4.63692e-12
4.036e-12
3.45451e-12
2.90011e-12
2.38051e-12
1.90309e-12
1.47446e-12
1.10013e-12
7.83903e-13
5.27376e-13
3.2957e-13
1.86679e-13
9.21113e-14
3.68709e-14
1.03193e-14
1.34721e-15
7.8708e-18
8.03522e-18
1.37482e-15
1.05212e-14
3.75327e-14
9.3569e-14
1.89179e-13
3.33152e-13
5.3184e-13
7.88886e-13
1.1053e-12
1.47977e-12
1.90906e-12
2.38853e-12
2.91252e-12
3.47475e-12
4.06861e-12
4.68744e-12
5.32466e-12
5.97389e-12
6.629e-12
7.2842e-12
7.93403e-12
8.57336e-12
9.19738e-12
9.80164e-12
1.0382e-11
1.09346e-11
1.14558e-11
1.19425e-11
1.23916e-11
1.28004e-11
1.31664e-11
1.34874e-11
1.37614e-11
1.39867e-11
1.41619e-11
1.42857e-11
1.43572e-11
1.43756e-11
1.43409e-11
1.42522e-11
1.41098e-11
1.39141e-11
1.36658e-11
1.33659e-11
1.30155e-11
1.26165e-11
1.21706e-11
1.16804e-11
1.11486e-11
1.05783e-11
9.97345e-12
9.33812e-12
8.67712e-12
7.9958e-12
7.30009e-12
6.59656e-12
5.89236e-12
5.1952e-12
4.51329e-12
3.85519e-12
3.2296e-12
2.64513e-12
2.10986e-12
1.63094e-12
1.21416e-12
8.63271e-13
5.79585e-13
3.61521e-13
2.04441e-13
1.00738e-13
4.02813e-14
1.12654e-14
1.47009e-15
8.58735e-18
8.67952e-18
1.48511e-15
1.13666e-14
4.05585e-14
1.01152e-13
2.04623e-13
3.60606e-13
5.76161e-13
8.55473e-13
1.19991e-12
1.60833e-12
2.07751e-12
2.60263e-12
3.17772e-12
3.79614e-12
4.4507e-12
5.13421e-12
5.83945e-12
6.55938e-12
7.28723e-12
8.0165e-12
8.74108e-12
9.45517e-12
1.01533e-11
1.08305e-11
1.14819e-11
1.21032e-11
1.26901e-11
1.32391e-11
1.37465e-11
1.42092e-11
1.46243e-11
1.49891e-11
1.53015e-11
1.55592e-11
1.57607e-11
1.59043e-11
1.5989e-11
1.60137e-11
1.59786e-11
1.58823e-11
1.57252e-11
1.55078e-11
1.52308e-11
1.48953e-11
1.45026e-11
1.40548e-11
1.3554e-11
1.3003e-11
1.2405e-11
1.17639e-11
1.10839e-11
1.037e-11
9.62769e-12
8.86316e-12
8.0833e-12
7.29565e-12
6.50841e-12
5.73037e-12
4.97078e-12
4.23925e-12
3.54545e-12
2.89884e-12
2.30816e-12
1.78109e-12
1.32363e-12
9.39526e-13
6.29783e-13
3.92265e-13
2.21545e-13
1.0905e-13
4.35685e-14
1.21776e-14
1.58858e-15
9.27828e-18
9.30279e-18
1.59176e-15
1.21834e-14
4.34778e-14
1.08455e-13
2.19463e-13
3.86921e-13
6.18532e-13
9.18961e-13
1.28988e-12
1.73029e-12
2.23693e-12
2.80483e-12
3.42773e-12
4.09861e-12
4.80982e-12
5.55363e-12
6.32228e-12
7.10812e-12
7.90377e-12
8.70215e-12
9.49651e-12
1.02805e-11
1.1048e-11
1.17934e-11
1.25114e-11
1.31971e-11
1.38459e-11
1.44535e-11
1.5016e-11
1.55297e-11
1.59913e-11
1.6398e-11
1.67469e-11
1.70359e-11
1.72627e-11
1.74258e-11
1.75236e-11
1.7555e-11
1.75203e-11
1.74176e-11
1.72475e-11
1.70103e-11
1.67069e-11
1.63383e-11
1.59063e-11
1.54129e-11
1.48606e-11
1.42526e-11
1.35926e-11
1.28848e-11
1.2134e-11
1.1346e-11
1.05269e-11
9.68386e-12
8.82451e-12
7.95739e-12
7.09168e-12
6.23718e-12
5.40416e-12
4.6032e-12
3.84489e-12
3.13948e-12
2.49636e-12
1.92368e-12
1.42766e-12
1.01205e-12
6.77558e-13
4.21545e-13
2.37845e-13
1.16975e-13
4.67037e-14
1.30478e-14
1.70161e-15
9.93736e-18
9.90382e-18
1.69456e-15
1.297e-14
4.62852e-14
1.15463e-13
2.33673e-13
4.12052e-13
6.58883e-13
9.79248e-13
1.37507e-12
1.84544e-12
2.38706e-12
2.99476e-12
3.66203e-12
4.38147e-12
5.14503e-12
5.94447e-12
6.77153e-12
7.61803e-12
8.47605e-12
9.33794e-12
1.01964e-11
1.10445e-11
1.18758e-11
1.2684e-11
1.34633e-11
1.42083e-11
1.4914e-11
1.55757e-11
1.6189e-11
1.67498e-11
1.72547e-11
1.77001e-11
1.80831e-11
1.84012e-11
1.86519e-11
1.88333e-11
1.89438e-11
1.8982e-11
1.89482e-11
1.88402e-11
1.86585e-11
1.84036e-11
1.80763e-11
1.76778e-11
1.72098e-11
1.66747e-11
1.60752e-11
1.54148e-11
1.46975e-11
1.39281e-11
1.31119e-11
1.22553e-11
1.13651e-11
1.04492e-11
9.51605e-12
8.57509e-12
7.63642e-12
6.71077e-12
5.80937e-12
4.94371e-12
4.12525e-12
3.36495e-12
2.67283e-12
2.05749e-12
1.52537e-12
1.08021e-12
7.22498e-13
4.49106e-13
2.53195e-13
1.24441e-13
4.96581e-14
1.38678e-14
1.80813e-15
1.05585e-17
1.04824e-17
1.79347e-15
1.37261e-14
4.89793e-14
1.22176e-13
2.47248e-13
4.35994e-13
6.97209e-13
1.03633e-12
1.45548e-12
1.95378e-12
2.52787e-12
3.17239e-12
3.88054e-12
4.64457e-12
5.45604e-12
6.30628e-12
7.18653e-12
8.08816e-12
9.00273e-12
9.92213e-12
1.08386e-11
1.17447e-11
1.26334e-11
1.34981e-11
1.43326e-11
1.5131e-11
1.5888e-11
1.65983e-11
1.72573e-11
1.78607e-11
1.84043e-11
1.88848e-11
1.92986e-11
1.9643e-11
1.99153e-11
2.01135e-11
2.02356e-11
2.02803e-11
2.02475e-11
2.01351e-11
1.99433e-11
1.96728e-11
1.93242e-11
1.88989e-11
1.83987e-11
1.78261e-11
1.71841e-11
1.64764e-11
1.57075e-11
1.48823e-11
1.4007e-11
1.30881e-11
1.21333e-11
1.11511e-11
1.01508e-11
9.14247e-12
8.13717e-12
7.14649e-12
6.1825e-12
5.25755e-12
4.38388e-12
3.57315e-12
2.83595e-12
2.18129e-12
1.61586e-12
1.14339e-12
7.64185e-13
4.74689e-13
2.67451e-13
1.31377e-13
5.24034e-14
1.46298e-14
1.9071e-15
1.11355e-17
1.10392e-17
1.88863e-15
1.44526e-14
5.1564e-14
1.28601e-13
2.60209e-13
4.58783e-13
7.3357e-13
1.0903e-12
1.53123e-12
2.05549e-12
2.65959e-12
3.33797e-12
4.08354e-12
4.8882e-12
5.74316e-12
6.63928e-12
7.5674e-12
8.51845e-12
9.48356e-12
1.04542e-11
1.14221e-11
1.23795e-11
1.33189e-11
1.42334e-11
1.51164e-11
1.59617e-11
1.67634e-11
1.75163e-11
1.82152e-11
1.88555e-11
1.9433e-11
1.99438e-11
2.03844e-11
2.07516e-11
2.10428e-11
2.12555e-11
2.13876e-11
2.14379e-11
2.1406e-11
2.12895e-11
2.1089e-11
2.08047e-11
2.04375e-11
1.99887e-11
1.94603e-11
1.88547e-11
1.81753e-11
1.7426e-11
1.66114e-11
1.57371e-11
1.48093e-11
1.38353e-11
1.28232e-11
1.1782e-11
1.07218e-11
9.6535e-12
8.58869e-12
7.53981e-12
6.51972e-12
5.54151e-12
4.61819e-12
3.76199e-12
2.98408e-12
2.29385e-12
1.69822e-12
1.20096e-12
8.02202e-13
4.98036e-13
2.80469e-13
1.37713e-13
5.49114e-14
1.53259e-14
1.99751e-15
1.16626e-17
1.15761e-17
1.98034e-15
1.51521e-14
5.40478e-14
1.34761e-13
2.72599e-13
4.80498e-13
7.68097e-13
1.14135e-12
1.60261e-12
2.15094e-12
2.78271e-12
3.4921e-12
4.27174e-12
5.11316e-12
6.00721e-12
6.94434e-12
7.915e-12
8.90971e-12
9.9192e-12
1.09345e-11
1.19471e-11
1.29489e-11
1.39319e-11
1.4889e-11
1.58132e-11
1.66982e-11
1.75377e-11
1.83262e-11
1.90585e-11
1.97296e-11
2.03351e-11
2.0871e-11
2.13336e-11
2.17195e-11
2.20259e-11
2.22501e-11
2.23902e-11
2.24446e-11
2.2413e-11
2.22927e-11
2.20842e-11
2.17879e-11
2.14046e-11
2.09356e-11
2.03829e-11
1.97492e-11
1.90378e-11
1.82528e-11
1.73991e-11
1.64825e-11
1.55097e-11
1.44882e-11
1.34267e-11
1.23347e-11
1.12227e-11
1.01023e-11
8.98583e-12
7.88626e-12
6.81721e-12
5.79242e-12
4.82553e-12
3.92936e-12
3.11557e-12
2.39392e-12
1.77154e-12
1.25228e-12
8.36128e-13
5.18891e-13
2.92105e-13
1.43378e-13
5.71544e-14
1.59485e-14
2.07835e-15
1.21339e-17
1.20959e-17
2.06909e-15
1.58282e-14
5.64442e-14
1.4069e-13
2.84488e-13
5.01266e-13
8.00992e-13
1.18979e-12
1.67004e-12
2.2407e-12
2.89794e-12
3.63568e-12
4.44618e-12
5.32065e-12
6.24954e-12
7.22291e-12
8.23083e-12
9.26344e-12
1.03111e-11
1.13646e-11
1.24149e-11
1.34537e-11
1.4473e-11
1.5465e-11
1.64228e-11
1.73397e-11
1.82094e-11
1.90262e-11
1.97846e-11
2.04796e-11
2.11066e-11
2.16616e-11
2.21406e-11
2.25403e-11
2.28577e-11
2.309e-11
2.32353e-11
2.3292e-11
2.32594e-11
2.31349e-11
2.29191e-11
2.26123e-11
2.22152e-11
2.17292e-11
2.11563e-11
2.04991e-11
1.97612e-11
1.89468e-11
1.80609e-11
1.71095e-11
1.60995e-11
1.50388e-11
1.39363e-11
1.28021e-11
1.16471e-11
1.04833e-11
9.32355e-12
8.18148e-12
7.07121e-12
6.0071e-12
5.00333e-12
4.07319e-12
3.2288e-12
2.48026e-12
1.83493e-12
1.29671e-12
8.65548e-13
5.36997e-13
3.02216e-13
1.48304e-13
5.91052e-14
1.64899e-14
2.14865e-15
1.25436e-17
1.26027e-17
2.15556e-15
1.64862e-14
5.87719e-14
1.46435e-13
2.95973e-13
5.21256e-13
8.32529e-13
1.23603e-12
1.7341e-12
2.32555e-12
3.00628e-12
3.76989e-12
4.6083e-12
5.51231e-12
6.47198e-12
7.47697e-12
8.51698e-12
9.58178e-12
1.06614e-11
1.17464e-11
1.28274e-11
1.38959e-11
1.49435e-11
1.59626e-11
1.69459e-11
1.78866e-11
1.87783e-11
1.96153e-11
2.03919e-11
2.11033e-11
2.17447e-11
2.2312e-11
2.28012e-11
2.32091e-11
2.35325e-11
2.37688e-11
2.3916e-11
2.39724e-11
2.39371e-11
2.38078e-11
2.35849e-11
2.32687e-11
2.28599e-11
2.23599e-11
2.17707e-11
2.10949e-11
2.03362e-11
1.94987e-11
1.85877e-11
1.76092e-11
1.65703e-11
1.54791e-11
1.43447e-11
1.31775e-11
1.19888e-11
1.07908e-11
9.59693e-12
8.42114e-12
7.27805e-12
6.18245e-12
5.14899e-12
4.19139e-12
3.32214e-12
2.55165e-12
1.88747e-12
1.33364e-12
8.90052e-13
5.52104e-13
3.10664e-13
1.52424e-13
6.07373e-14
1.69429e-14
2.20745e-15
1.28863e-17
1.31013e-17
2.24061e-15
1.71325e-14
6.10543e-14
1.52054e-13
3.07175e-13
5.40683e-13
8.63052e-13
1.28058e-12
1.7955e-12
2.40642e-12
3.10891e-12
3.89622e-12
4.75984e-12
5.69013e-12
6.67675e-12
7.70895e-12
8.77602e-12
9.86742e-12
1.09729e-11
1.20826e-11
1.31871e-11
1.42776e-11
1.53456e-11
1.63835e-11
1.73837e-11
1.83396e-11
1.92448e-11
2.00933e-11
2.08798e-11
2.15993e-11
2.22472e-11
2.28194e-11
2.33121e-11
2.37218e-11
2.40456e-11
2.42812e-11
2.44262e-11
2.44793e-11
2.44391e-11
2.43037e-11
2.40736e-11
2.37488e-11
2.33302e-11
2.2819e-11
2.22173e-11
2.15278e-11
2.07539e-11
1.98999e-11
1.89711e-11
1.79735e-11
1.69143e-11
1.58017e-11
1.4645e-11
1.34546e-11
1.22419e-11
1.10196e-11
9.80123e-12
8.6011e-12
7.43413e-12
6.31544e-12
5.26003e-12
4.28196e-12
3.39401e-12
2.60687e-12
1.92831e-12
1.36246e-12
9.0924e-13
5.6397e-13
3.17314e-13
1.55672e-13
6.20251e-14
1.73005e-14
2.25385e-15
1.31566e-17
1.35978e-17
2.32525e-15
1.77751e-14
6.33199e-14
1.5762e-13
3.18237e-13
5.59804e-13
8.92974e-13
1.32404e-12
1.85509e-12
2.48443e-12
3.20727e-12
4.01638e-12
4.90281e-12
5.85643e-12
6.86643e-12
7.92162e-12
9.01092e-12
1.01234e-11
1.12485e-11
1.23762e-11
1.34969e-11
1.46016e-11
1.56819e-11
1.67298e-11
1.77382e-11
1.87002e-11
1.96096e-11
2.04606e-11
2.12479e-11
2.19668e-11
2.26128e-11
2.31818e-11
2.36703e-11
2.4075e-11
2.43933e-11
2.46226e-11
2.47608e-11
2.4807e-11
2.47591e-11
2.46161e-11
2.43781e-11
2.40453e-11
2.36184e-11
2.30987e-11
2.24883e-11
2.17897e-11
2.10063e-11
2.01426e-11
1.92034e-11
1.8195e-11
1.71244e-11
1.59999e-11
1.48306e-11
1.36271e-11
1.24009e-11
1.11646e-11
9.93198e-12
8.71743e-12
7.53604e-12
6.40318e-12
5.33405e-12
4.34294e-12
3.44289e-12
2.64479e-12
1.95659e-12
1.38258e-12
9.22732e-13
5.72361e-13
3.22039e-13
1.57987e-13
6.29447e-14
1.75559e-14
2.28699e-15
1.33496e-17
1.40989e-17
2.41067e-15
1.8423e-14
6.56012e-14
1.63213e-13
3.29329e-13
5.78916e-13
9.22768e-13
1.36713e-12
1.91384e-12
2.56086e-12
3.30293e-12
4.13231e-12
5.03948e-12
6.01377e-12
7.04385e-12
8.11805e-12
9.22486e-12
1.0353e-11
1.14917e-11
1.26306e-11
1.37601e-11
1.4871e-11
1.59549e-11
1.70041e-11
1.80113e-11
1.89699e-11
1.98739e-11
2.07177e-11
2.14964e-11
2.22053e-11
2.28402e-11
2.33975e-11
2.38737e-11
2.42661e-11
2.45719e-11
2.4789e-11
2.49155e-11
2.49506e-11
2.48919e-11
2.47393e-11
2.44925e-11
2.41518e-11
2.37179e-11
2.31922e-11
2.25766e-11
2.18736e-11
2.10865e-11
2.02196e-11
1.92777e-11
1.82669e-11
1.71941e-11
1.60673e-11
1.48958e-11
1.36898e-11
1.24608e-11
1.12213e-11
9.98507e-12
8.76648e-12
7.58066e-12
6.443e-12
5.36883e-12
4.37256e-12
3.46737e-12
2.66433e-12
1.97155e-12
1.39346e-12
9.30173e-13
5.77065e-13
3.2472e-13
1.59312e-13
6.34738e-14
1.77032e-14
2.30609e-15
1.34607e-17
1.46125e-17
2.49818e-15
1.90865e-14
6.79352e-14
1.68928e-13
3.40638e-13
5.98352e-13
9.52965e-13
1.41061e-12
1.97282e-12
2.63711e-12
3.39766e-12
4.24609e-12
5.17226e-12
6.16485e-12
7.21195e-12
8.30136e-12
9.42112e-12
1.05596e-11
1.17057e-11
1.28489e-11
1.39796e-11
1.50884e-11
1.61673e-11
1.72084e-11
1.82048e-11
1.91501e-11
2.00387e-11
2.08653e-11
2.16252e-11
2.23142e-11
2.29287e-11
2.34651e-11
2.39206e-11
2.42926e-11
2.45789e-11
2.47774e-11
2.48867e-11
2.4906e-11
2.48332e-11
2.46685e-11
2.44117e-11
2.4063e-11
2.36233e-11
2.30939e-11
2.24765e-11
2.17736e-11
2.09885e-11
2.01251e-11
1.91882e-11
1.81835e-11
1.71178e-11
1.59988e-11
1.48355e-11
1.36379e-11
1.24171e-11
1.11857e-11
9.95691e-12
8.74508e-12
7.56519e-12
6.43254e-12
5.36238e-12
4.36921e-12
3.4662e-12
2.66453e-12
1.97247e-12
1.39462e-12
9.31246e-13
5.77887e-13
3.25252e-13
1.59597e-13
6.35928e-14
1.77369e-14
2.31047e-15
1.3486e-17
1.51469e-17
2.58925e-15
1.97767e-14
7.03619e-14
1.74865e-13
3.52371e-13
6.18475e-13
9.84139e-13
1.45532e-12
2.03318e-12
2.71466e-12
3.49326e-12
4.35989e-12
5.30363e-12
6.31243e-12
7.3737e-12
8.47466e-12
9.60287e-12
1.07463e-11
1.18936e-11
1.30342e-11
1.41581e-11
1.52565e-11
1.63212e-11
1.73446e-11
1.83202e-11
1.9242e-11
2.01046e-11
2.09035e-11
2.16342e-11
2.22932e-11
2.28772e-11
2.33834e-11
2.38093e-11
2.41527e-11
2.44118e-11
2.45849e-11
2.46715e-11
2.467e-11
2.45796e-11
2.44003e-11
2.4132e-11
2.37752e-11
2.33307e-11
2.27997e-11
2.21842e-11
2.14864e-11
2.07093e-11
1.98565e-11
1.89326e-11
1.7943e-11
1.6894e-11
1.57931e-11
1.46487e-11
1.34705e-11
1.22694e-11
1.10572e-11
9.84709e-12
8.65291e-12
7.48937e-12
6.37154e-12
5.31448e-12
4.33261e-12
3.43907e-12
2.64512e-12
1.95912e-12
1.38586e-12
9.25809e-13
5.74734e-13
3.23579e-13
1.58813e-13
6.32903e-14
1.76538e-14
2.29966e-15
1.34227e-17
1.57112e-17
2.68541e-15
2.05056e-14
7.29246e-14
1.81133e-13
3.64749e-13
6.39673e-13
1.0169e-12
1.50216e-12
2.09611e-12
2.79503e-12
3.59161e-12
4.47588e-12
5.43602e-12
6.45913e-12
7.53187e-12
8.64079e-12
9.77292e-12
1.09159e-11
1.2058e-11
1.31886e-11
1.42979e-11
1.5377e-11
1.6418e-11
1.74138e-11
1.83583e-11
1.92459e-11
2.00719e-11
2.08321e-11
2.1523e-11
2.21415e-11
2.2685e-11
2.31513e-11
2.35382e-11
2.38444e-11
2.40686e-11
2.42101e-11
2.42679e-11
2.42411e-11
2.41296e-11
2.39333e-11
2.36526e-11
2.32879e-11
2.28399e-11
2.231e-11
2.16996e-11
2.10111e-11
2.02471e-11
1.94112e-11
1.85076e-11
1.75412e-11
1.6518e-11
1.5445e-11
1.433e-11
1.31821e-11
1.20117e-11
1.08301e-11
9.64982e-12
8.48443e-12
7.34809e-12
6.25548e-12
5.22128e-12
4.25973e-12
3.38372e-12
2.60446e-12
1.9304e-12
1.36646e-12
9.13421e-13
5.67356e-13
3.19572e-13
1.56903e-13
6.25445e-14
1.74483e-14
2.273e-15
1.32671e-17
1.63146e-17
2.78828e-15
2.12856e-14
7.56683e-14
1.87845e-13
3.78e-13
6.62347e-13
1.05188e-12
1.55202e-12
2.16283e-12
2.87976e-12
3.69453e-12
4.59613e-12
5.5717e-12
6.60736e-12
7.68888e-12
8.80212e-12
9.93353e-12
1.10703e-11
1.22007e-11
1.33138e-11
1.44e-11
1.54507e-11
1.64583e-11
1.74163e-11
1.83189e-11
1.91615e-11
1.99398e-11
2.06504e-11
2.12907e-11
2.18581e-11
2.23508e-11
2.27671e-11
2.31063e-11
2.33674e-11
2.35496e-11
2.36525e-11
2.36757e-11
2.36191e-11
2.34827e-11
2.32669e-11
2.29718e-11
2.25983e-11
2.21472e-11
2.16197e-11
2.10175e-11
2.03425e-11
1.95973e-11
1.8785e-11
1.79093e-11
1.69747e-11
1.59865e-11
1.49512e-11
1.38761e-11
1.27697e-11
1.16416e-11
1.05026e-11
9.36425e-12
8.23939e-12
7.14154e-12
6.08477e-12
5.08327e-12
4.15088e-12
3.30029e-12
2.54256e-12
1.8862e-12
1.33632e-12
8.93982e-13
5.55677e-13
3.13185e-13
1.53842e-13
6.13462e-14
1.71177e-14
2.23016e-15
1.30173e-17
1.69667e-17
2.8995e-15
2.21295e-14
7.8639e-14
1.95117e-13
3.92362e-13
6.86909e-13
1.08972e-12
1.60581e-12
2.23451e-12
2.97029e-12
3.80371e-12
4.72251e-12
5.71263e-12
6.75907e-12
7.84661e-12
8.96035e-12
1.00861e-11
1.12108e-11
1.23223e-11
1.341e-11
1.44643e-11
1.54771e-11
1.64412e-11
1.73508e-11
1.82008e-11
1.89873e-11
1.97068e-11
2.0357e-11
2.09359e-11
2.14416e-11
2.18736e-11
2.22313e-11
2.2514e-11
2.27219e-11
2.28548e-11
2.29128e-11
2.28962e-11
2.28054e-11
2.26408e-11
2.2403e-11
2.20925e-11
2.17103e-11
2.12574e-11
2.07348e-11
2.01441e-11
1.94871e-11
1.8766e-11
1.79836e-11
1.71429e-11
1.62482e-11
1.53044e-11
1.43169e-11
1.32925e-11
1.22386e-11
1.11641e-11
1.00786e-11
8.99319e-12
7.91969e-12
6.87084e-12
5.85997e-12
4.90061e-12
4.00608e-12
3.18873e-12
2.45937e-12
1.8265e-12
1.29541e-12
8.67479e-13
5.39693e-13
3.04415e-13
1.4963e-13
5.96952e-14
1.66622e-14
2.17114e-15
1.26732e-17
1.76769e-17
3.02071e-15
2.30499e-14
8.1883e-14
2.03067e-13
4.08069e-13
7.13762e-13
1.13104e-12
1.66439e-12
2.31228e-12
3.06796e-12
3.92062e-12
4.85655e-12
5.8603e-12
6.91561e-12
8.00616e-12
9.11623e-12
1.0231e-11
1.13371e-11
1.24224e-11
1.34762e-11
1.44895e-11
1.54545e-11
1.63647e-11
1.72152e-11
1.80016e-11
1.87209e-11
1.93708e-11
1.99498e-11
2.04566e-11
2.08912e-11
2.12535e-11
2.15433e-11
2.17617e-11
2.19093e-11
2.19865e-11
2.19942e-11
2.19334e-11
2.18048e-11
2.16093e-11
2.13479e-11
2.10215e-11
2.06311e-11
2.01776e-11
1.96624e-11
1.90866e-11
1.84519e-11
1.77602e-11
1.70139e-11
1.62157e-11
1.53692e-11
1.44782e-11
1.35477e-11
1.25834e-11
1.15921e-11
1.05814e-11
9.5602e-12
8.53837e-12
7.52678e-12
6.53721e-12
5.58208e-12
4.67411e-12
3.82593e-12
3.04945e-12
2.35516e-12
1.75148e-12
1.24383e-12
8.33972e-13
5.19436e-13
2.93281e-13
1.44276e-13
5.75954e-14
1.60828e-14
2.0961e-15
1.2236e-17
1.84544e-17
3.15345e-15
2.40591e-14
8.54448e-14
2.11805e-13
4.25346e-13
7.43294e-13
1.17641e-12
1.72856e-12
2.39709e-12
3.17385e-12
4.0464e-12
4.99933e-12
6.01558e-12
7.07753e-12
8.16766e-12
9.26937e-12
1.03674e-11
1.14479e-11
1.24988e-11
1.35099e-11
1.44724e-11
1.53793e-11
1.62253e-11
1.70057e-11
1.77176e-11
1.8359e-11
1.89288e-11
1.94261e-11
1.98517e-11
2.02061e-11
2.04895e-11
2.07045e-11
2.08518e-11
2.09329e-11
2.09493e-11
2.09024e-11
2.07938e-11
2.0625e-11
2.03971e-11
2.01114e-11
1.97692e-11
1.93715e-11
1.89194e-11
1.84141e-11
1.78568e-11
1.72488e-11
1.65918e-11
1.58876e-11
1.51384e-11
1.43471e-11
1.35168e-11
1.26517e-11
1.17565e-11
1.0837e-11
9.89985e-12
8.9527e-12
8.00431e-12
7.06443e-12
6.14371e-12
5.2535e-12
4.4056e-12
3.61182e-12
2.88348e-12
2.23065e-12
1.6616e-12
1.18189e-12
7.93653e-13
4.95018e-13
2.79843e-13
1.37809e-13
5.50584e-14
1.53829e-14
2.00548e-15
1.17081e-17
1.93077e-17
3.29916e-15
2.51685e-14
8.93663e-14
2.21439e-13
4.44404e-13
7.75858e-13
1.22636e-12
1.79897e-12
2.48974e-12
3.28878e-12
4.18174e-12
5.15127e-12
6.17855e-12
7.24438e-12
8.33004e-12
9.41806e-12
1.04926e-11
1.15398e-11
1.25478e-11
1.35066e-11
1.44083e-11
1.5247e-11
1.60176e-11
1.67173e-11
1.73443e-11
1.78976e-11
1.83771e-11
1.87842e-11
1.91198e-11
1.93851e-11
1.95841e-11
1.97178e-11
1.97885e-11
1.97987e-11
1.97506e-11
1.96464e-11
1.94882e-11
1.92779e-11
1.90172e-11
1.87076e-11
1.83507e-11
1.79475e-11
1.74993e-11
1.70071e-11
1.6472e-11
1.5895e-11
1.52775e-11
1.46207e-11
1.39265e-11
1.31968e-11
1.24342e-11
1.16418e-11
1.08236e-11
9.98406e-12
9.1288e-12
8.26429e-12
7.39804e-12
6.53853e-12
5.69517e-12
4.87814e-12
4.09815e-12
3.36609e-12
2.69251e-12
2.08705e-12
1.55772e-12
1.11016e-12
7.46871e-13