/*--------------------------------*- C++ -*----------------------------------*\
  =========                 |
  \\      /  F ield         | OpenFOAM: The Open Source CFD Toolbox
   \\    /   O peration     | Website:  https://openfoam.org
    \\  /    A nd           | Version:  12
     \\/     M anipulation  |
\*---------------------------------------------------------------------------*/
FoamFile
{
    format      ascii;
    class       volScalarField;
    location    "10";
    object      p;
}
// * * * * * * * * * * * * * * * * * * * * * * * * * * * * * * * * * * * * * //

dimensions      [0 2 -2 0 0 0 0];

internalField   nonuniform List<scalar> 
5625
(
1.65907e-11
6.05481e-08
9.62187e-07
2.79723e-06
5.34243e-06
8.3856e-06
1.1751e-05
1.52799e-05
1.88327e-05
2.22854e-05
2.55306e-05
2.84764e-05
3.10454e-05
3.31735e-05
3.48081e-05
3.59079e-05
3.64412e-05
3.63852e-05
3.57257e-05
3.44555e-05
3.25745e-05
3.00889e-05
2.70104e-05
2.33559e-05
1.9147e-05
1.44096e-05
9.17336e-06
3.4712e-06
-2.66089e-06
-9.1843e-06
-1.60582e-05
-2.324e-05
-3.06853e-05
-3.83485e-05
-4.61834e-05
-5.41426e-05
-6.21788e-05
-7.02445e-05
-7.8292e-05
-8.62744e-05
-9.41452e-05
-0.000101859
-0.000109371
-0.000116639
-0.000123619
-0.000130274
-0.000136563
-0.000142452
-0.000147907
-0.000152897
-0.000157394
-0.000161372
-0.000164811
-0.000167692
-0.000170002
-0.000171731
-0.000172875
-0.000173435
-0.000173419
-0.00017284
-0.00017172
-0.000170087
-0.000167982
-0.000165451
-0.000162557
-0.000159371
-0.000155982
-0.000152493
-0.000149024
-0.000145708
-0.000142706
-0.000140189
-0.000138366
-0.000137462
-0.000137392
-3.1247e-06
-2.69335e-06
-1.67192e-06
-2.80399e-08
2.11335e-06
4.61039e-06
7.33694e-06
1.01774e-05
1.30251e-05
1.57836e-05
1.83667e-05
2.0699e-05
2.27154e-05
2.43606e-05
2.55884e-05
2.63616e-05
2.66509e-05
2.64346e-05
2.56982e-05
2.44337e-05
2.2639e-05
2.03177e-05
1.74786e-05
1.41351e-05
1.03051e-05
6.01007e-06
1.27536e-06
-3.8707e-06
-9.39696e-06
-1.52698e-05
-2.14534e-05
-2.79103e-05
-3.46013e-05
-4.14863e-05
-4.85239e-05
-5.56724e-05
-6.28895e-05
-7.01329e-05
-7.73603e-05
-8.45298e-05
-9.16001e-05
-9.85305e-05
-0.000105282
-0.000111815
-0.000118094
-0.000124083
-0.000129748
-0.000135058
-0.000139984
-0.000144499
-0.000148579
-0.000152203
-0.000155353
-0.000158014
-0.000160176
-0.000161831
-0.00016298
-0.000163623
-0.000163769
-0.000163433
-0.000162635
-0.000161402
-0.000159768
-0.000157779
-0.000155484
-0.000152947
-0.000150238
-0.00014744
-0.000144646
-0.00014196
-0.000139495
-0.000137374
-0.000135739
-0.000134714
-0.000134271
-9.21938e-06
-8.07279e-06
-6.46234e-06
-4.5369e-06
-2.35509e-06
1.65121e-08
2.49965e-06
5.01523e-06
7.4879e-06
9.84728e-06
1.20287e-05
1.39739e-05
1.5631e-05
1.69554e-05
1.79088e-05
1.84597e-05
1.85831e-05
1.82602e-05
1.74778e-05
1.62285e-05
1.45101e-05
1.23251e-05
9.68078e-06
6.58851e-06
3.06361e-06
-8.75129e-07
-5.20561e-06
-9.90289e-06
-1.49394e-05
-2.02853e-05
-2.59089e-05
-3.17766e-05
-3.78534e-05
-4.41035e-05
-5.04898e-05
-5.69749e-05
-6.35209e-05
-7.00898e-05
-7.66436e-05
-8.31449e-05
-8.95565e-05
-9.58421e-05
-0.000101966
-0.000107895
-0.000113595
-0.000119036
-0.000124186
-0.00012902
-0.00013351
-0.000137633
-0.000141369
-0.000144699
-0.000147608
-0.000150084
-0.000152117
-0.000153704
-0.000154842
-0.000155534
-0.00015579
-0.00015562
-0.000155043
-0.000154083
-0.000152767
-0.000151133
-0.000149222
-0.000147081
-0.000144767
-0.000142341
-0.000139868
-0.000137423
-0.000135081
-0.00013292
-0.000131002
-0.000129385
-0.000128226
-1.71262e-05
-1.50939e-05
-1.26357e-05
-1.01255e-05
-7.56802e-06
-4.97072e-06
-2.37838e-06
1.54771e-07
2.57618e-06
4.83593e-06
6.88706e-06
8.6861e-06
1.01939e-05
1.13758e-05
1.22021e-05
1.2648e-05
1.26939e-05
1.23247e-05
1.15305e-05
1.03059e-05
8.64975e-06
6.56536e-06
4.05992e-06
1.14427e-06
-2.16721e-06
-5.85707e-06
-9.90486e-06
-1.42876e-05
-1.89799e-05
-2.39544e-05
-2.91818e-05
-3.46314e-05
-4.0271e-05
-4.60678e-05
-5.19878e-05
-5.79967e-05
-6.40597e-05
-7.01421e-05
-7.62093e-05
-8.22268e-05
-8.81609e-05
-9.39785e-05
-9.96473e-05
-0.000105136
-0.000110415
-0.000115456
-0.000120232
-0.000124717
-0.000128889
-0.000132726
-0.000136209
-0.000139322
-0.000142051
-0.000144385
-0.000146315
-0.000147837
-0.000148948
-0.000149652
-0.000149953
-0.000149861
-0.00014939
-0.000148558
-0.000147388
-0.000145907
-0.000144145
-0.00014214
-0.00013993
-0.00013756
-0.000135076
-0.000132527
-0.000129964
-0.000127431
-0.000124931
-0.000122468
-0.000120423
-2.56198e-05
-2.26585e-05
-1.92601e-05
-1.60294e-05
-1.29319e-05
-9.92751e-06
-7.03679e-06
-4.29651e-06
-1.74232e-06
5.91859e-07
2.67338e-06
4.47136e-06
5.95751e-06
7.10659e-06
7.89688e-06
8.31028e-06
8.3326e-06
7.95346e-06
7.16645e-06
5.96891e-06
4.36201e-06
2.3504e-06
-5.7762e-08
-2.85117e-06
-6.0154e-06
-9.53333e-06
-1.33852e-05
-1.75489e-05
-2.20004e-05
-2.67136e-05
-3.16609e-05
-3.68135e-05
-4.21411e-05
-4.76129e-05
-5.31971e-05
-5.88617e-05
-6.45744e-05
-7.03029e-05
-7.60148e-05
-8.16784e-05
-8.72623e-05
-9.27359e-05
-9.80695e-05
-0.000103234
-0.000108202
-0.000112948
-0.000117446
-0.000121673
-0.000125608
-0.000129232
-0.000132525
-0.000135474
-0.000138064
-0.000140285
-0.000142129
-0.000143589
-0.000144664
-0.000145352
-0.000145657
-0.000145585
-0.000145146
-0.000144352
-0.000143218
-0.000141763
-0.00014001
-0.000137983
-0.00013571
-0.000133218
-0.000130538
-0.000127702
-0.000124743
-0.000121679
-0.000118465
-0.000115066
-0.000112093
-3.38752e-05
-3.00015e-05
-2.56488e-05
-2.1642e-05
-1.79185e-05
-1.44012e-05
-1.10943e-05
-8.02325e-06
-5.21211e-06
-2.68305e-06
-4.57824e-07
1.44267e-06
2.99907e-06
4.19419e-06
5.01333e-06
5.44462e-06
5.47915e-06
5.11119e-06
4.33813e-06
3.16061e-06
1.58236e-06
-3.8978e-07
-2.74605e-06
-5.47387e-06
-8.55806e-06
-1.19809e-05
-1.57225e-05
-1.9761e-05
-2.40724e-05
-2.86314e-05
-3.34112e-05
-3.83837e-05
-4.352e-05
-4.87904e-05
-5.41647e-05
-5.96123e-05
-6.51023e-05
-7.06042e-05
-7.60875e-05
-8.1522e-05
-8.68783e-05
-9.21273e-05
-9.72412e-05
-0.000102193
-0.000106956
-0.000111507
-0.000115821
-0.000119878
-0.000123655
-0.000127136
-0.000130302
-0.000133138
-0.000135632
-0.000137773
-0.00013955
-0.000140958
-0.000141991
-0.000142647
-0.000142927
-0.000142833
-0.000142369
-0.000141543
-0.000140364
-0.000138844
-0.000136997
-0.000134837
-0.000132381
-0.000129647
-0.000126653
-0.000123417
-0.00011996
-0.000116284
-0.000112305
-0.000107959
-0.000104077
-4.13156e-05
-3.65663e-05
-3.12776e-05
-2.64808e-05
-2.20924e-05
-1.80064e-05
-1.42161e-05
-1.07406e-05
-7.59605e-06
-4.79652e-06
-2.35574e-06
-2.86973e-07
1.39753e-06
2.6872e-06
3.57337e-06
4.0497e-06
4.11217e-06
3.75949e-06
2.99292e-06
1.81653e-06
2.36994e-07
-1.73627e-06
-4.09141e-06
-6.81399e-06
-9.8874e-06
-1.32928e-05
-1.70093e-05
-2.10145e-05
-2.52841e-05
-2.97925e-05
-3.4513e-05
-3.94177e-05
-4.44782e-05
-4.96652e-05
-5.49493e-05
-6.03005e-05
-6.56891e-05
-7.10853e-05
-7.64598e-05
-8.17835e-05
-8.70281e-05
-9.21657e-05
-9.71696e-05
-0.000102014
-0.000106673
-0.000111125
-0.000115345
-0.000119314
-0.00012301
-0.000126417
-0.000129516
-0.000132294
-0.000134735
-0.000136829
-0.000138565
-0.000139935
-0.000140932
-0.000141552
-0.000141791
-0.000141648
-0.000141124
-0.000140221
-0.000138944
-0.000137296
-0.000135286
-0.000132921
-0.000130209
-0.000127158
-0.000123777
-0.000120078
-0.000116073
-0.00011175
-0.000106997
-0.000101726
-9.69748e-05
-4.75239e-05
-4.1935e-05
-3.57365e-05
-3.0154e-05
-2.50873e-05
-2.0407e-05
-1.60994e-05
-1.21797e-05
-8.65975e-06
-5.54783e-06
-2.85191e-06
-5.79575e-07
1.26253e-06
2.6692e-06
3.63689e-06
4.16404e-06
4.25117e-06
3.9011e-06
3.11893e-06
1.91218e-06
2.90716e-07
-1.73325e-06
-4.1453e-06
-6.92879e-06
-1.00651e-05
-1.35337e-05
-1.73124e-05
-2.13773e-05
-2.57033e-05
-3.02639e-05
-3.50318e-05
-3.99789e-05
-4.50763e-05
-5.02947e-05
-5.56046e-05
-6.09765e-05
-6.63807e-05
-7.17878e-05
-7.71691e-05
-8.2496e-05
-8.77406e-05
-9.28758e-05
-9.78755e-05
-0.000102714
-0.000107367
-0.000111812
-0.000116026
-0.000119989
-0.00012368
-0.000127082
-0.000130177
-0.00013295
-0.000135387
-0.000137474
-0.0001392
-0.000140555
-0.00014153
-0.000142119
-0.000142315
-0.000142114
-0.000141512
-0.000140508
-0.0001391
-0.00013729
-0.000135077
-0.000132464
-0.000129451
-0.000126042
-0.000122238
-0.000118044
-0.000113468
-0.00010849
-0.000102973
-9.68102e-05
-9.12321e-05
-5.2179e-05
-4.57775e-05
-3.86914e-05
-3.23326e-05
-2.65868e-05
-2.13039e-05
-1.64653e-05
-1.20851e-05
-8.17198e-06
-4.73068e-06
-1.76493e-06
7.21959e-07
2.7278e-06
4.25172e-06
5.29461e-06
5.85909e-06
5.94983e-06
5.57353e-06
4.73906e-06
3.45741e-06
1.74177e-06
-3.92628e-07
-2.92846e-06
-5.84654e-06
-9.12581e-06
-1.27436e-05
-1.66757e-05
-2.08966e-05
-2.53796e-05
-3.00968e-05
-3.50199e-05
-4.01196e-05
-4.53662e-05
-5.073e-05
-5.61808e-05
-6.16886e-05
-6.72237e-05
-7.27565e-05
-7.8258e-05
-8.36999e-05
-8.90543e-05
-9.42942e-05
-9.93935e-05
-0.000104327
-0.00010907
-0.000113601
-0.000117896
-0.000121934
-0.000125697
-0.000129165
-0.00013232
-0.000135147
-0.00013763
-0.000139754
-0.000141508
-0.00014288
-0.000143858
-0.000144433
-0.000144597
-0.000144342
-0.000143661
-0.000142548
-0.000141
-0.00013901
-0.000136576
-0.000133695
-0.000130363
-0.000126576
-0.000122332
-0.000117632
-0.000112482
-0.000106853
-0.000100588
-9.35653e-05
-8.71957e-05
-5.501e-05
-4.78109e-05
-3.98513e-05
-3.27248e-05
-2.6304e-05
-2.04198e-05
-1.505e-05
-1.02084e-05
-5.9022e-06
-2.13347e-06
1.09718e-06
3.7898e-06
5.9458e-06
7.56804e-06
8.66124e-06
9.23185e-06
9.28843e-06
8.84137e-06
7.90331e-06
6.48875e-06
4.61437e-06
2.29863e-06
-4.37968e-07
-3.57336e-06
-7.08365e-06
-1.09437e-05
-1.51267e-05
-1.96051e-05
-2.43501e-05
-2.93321e-05
-3.45209e-05
-3.9886e-05
-4.53962e-05
-5.10206e-05
-5.67281e-05
-6.24878e-05
-6.82693e-05
-7.40424e-05
-7.97776e-05
-8.54461e-05
-9.10196e-05
-9.64709e-05
-0.000101774
-0.000106902
-0.000111833
-0.000116541
-0.000121005
-0.000125203
-0.000129116
-0.000132723
-0.000136007
-0.000138949
-0.000141535
-0.000143749
-0.000145576
-0.000147002
-0.000148016
-0.000148606
-0.000148759
-0.000148467
-0.000147719
-0.000146506
-0.00014482
-0.000142653
-0.000139997
-0.000136844
-0.000133188
-0.000129021
-0.000124337
-0.000119133
-0.000113412
-0.000107144
-0.00010015
-9.22918e-05
-8.51576e-05
-5.57638e-05
-4.77708e-05
-3.89423e-05
-3.10533e-05
-2.39636e-05
-1.74851e-05
-1.15929e-05
-6.30086e-06
-1.61536e-06
2.46362e-06
5.93795e-06
8.8105e-06
1.10858e-05
1.27701e-05
1.38716e-05
1.44005e-05
1.43689e-05
1.37911e-05
1.26833e-05
1.10639e-05
8.95308e-06
6.37286e-06
3.34713e-06
-9.87379e-08
-3.93774e-06
-8.14171e-06
-1.26812e-05
-1.75258e-05
-2.26442e-05
-2.80048e-05
-3.35751e-05
-3.93226e-05
-4.52144e-05
-5.12181e-05
-5.73011e-05
-6.34313e-05
-6.95768e-05
-7.57068e-05
-8.17906e-05
-8.77987e-05
-9.37022e-05
-9.94732e-05
-0.000105085
-0.000110511
-0.000115726
-0.000120707
-0.000125431
-0.000129875
-0.000134019
-0.000137842
-0.000141326
-0.000144452
-0.000147203
-0.000149562
-0.000151514
-0.000153043
-0.000154134
-0.000154775
-0.000154951
-0.000154649
-0.000153858
-0.000152565
-0.000150758
-0.000148426
-0.000145559
-0.000142145
-0.000138173
-0.000133634
-0.000128518
-0.000122819
-0.00011654
-0.000109646
-0.000101937
-9.32639e-05
-8.53832e-05
-5.41805e-05
-4.53875e-05
-3.56872e-05
-2.7038e-05
-1.92864e-05
-1.22254e-05
-5.82676e-06
-1.05061e-07
4.93419e-06
9.29284e-06
1.29749e-05
1.59861e-05
1.83338e-05
2.00274e-05
2.10787e-05
2.15015e-05
2.13116e-05
2.05272e-05
1.91684e-05
1.72575e-05
1.48184e-05
1.18772e-05
8.46132e-06
4.59988e-06
3.23291e-07
-4.33679e-06
-9.34777e-06
-1.46762e-05
-2.02879e-05
-2.61484e-05
-3.22228e-05
-3.84762e-05
-4.48736e-05
-5.13805e-05
-5.79626e-05
-6.45859e-05
-7.12173e-05
-7.78243e-05
-8.43752e-05
-9.08393e-05
-9.71866e-05
-0.000103388
-0.000109417
-0.000115245
-0.000120847
-0.000126198
-0.000131275
-0.000136055
-0.000140516
-0.000144637
-0.000148398
-0.00015178
-0.000154764
-0.000157332
-0.000159467
-0.000161152
-0.000162371
-0.000163108
-0.000163348
-0.000163074
-0.000162273
-0.000160929
-0.000159028
-0.000156556
-0.000153499
-0.000149842
-0.000145573
-0.000140678
-0.000135144
-0.000128965
-0.000122142
-0.000114634
-0.000106224
-9.67482e-05
-8.81315e-05
-4.99753e-05
-4.03696e-05
-2.9789e-05
-2.03803e-05
-1.19761e-05
-4.34898e-06
2.53247e-06
8.65353e-06
1.40095e-05
1.86042e-05
2.2444e-05
2.55373e-05
2.78945e-05
2.95285e-05
3.04544e-05
3.069e-05
3.02551e-05
2.9172e-05
2.74648e-05
2.51601e-05
2.2286e-05
1.88727e-05
1.49518e-05
1.05564e-05
5.72081e-06
4.8054e-07
-5.12828e-06
-1.10686e-05
-1.73031e-05
-2.37941e-05
-3.05038e-05
-3.73946e-05
-4.44289e-05
-5.15698e-05
-5.87807e-05
-6.60259e-05
-7.32703e-05
-8.04797e-05
-8.7621e-05
-9.46619e-05
-0.000101571
-0.000108319
-0.000114877
-0.000121216
-0.000127311
-0.000133134
-0.000138663
-0.000143873
-0.000148741
-0.000153246
-0.000157366
-0.000161082
-0.000164372
-0.000167219
-0.000169603
-0.000171506
-0.00017291
-0.000173796
-0.000174149
-0.000173949
-0.000173179
-0.000171824
-0.000169864
-0.000167284
-0.000164066
-0.000160194
-0.000155652
-0.000150423
-0.000144491
-0.000137849
-0.000130496
-0.000122388
-0.000113288
-0.000103017
-9.36694e-05
-4.28231e-05
-3.23883e-05
-2.09169e-05
-1.07508e-05
-1.70698e-06
6.46323e-06
1.37954e-05
2.0275e-05
2.58985e-05
3.06721e-05
3.46047e-05
3.77079e-05
3.99954e-05
4.14838e-05
4.21922e-05
4.21423e-05
4.13585e-05
3.98673e-05
3.76975e-05
3.48802e-05
3.14483e-05
2.74363e-05
2.28805e-05
1.78185e-05
1.22889e-05
6.33132e-06
-1.39683e-08
-6.70604e-06
-1.37039e-05
-2.09663e-05
-2.84522e-05
-3.61208e-05
-4.39318e-05
-5.18453e-05
-5.98225e-05
-6.78252e-05
-7.58163e-05
-8.37597e-05
-9.16204e-05
-9.93646e-05
-0.00010696
-0.000114374
-0.000121579
-0.000128543
-0.00013524
-0.000141644
-0.000147727
-0.000153467
-0.000158838
-0.000163819
-0.000168386
-0.000172519
-0.000176197
-0.000179399
-0.000182104
-0.000184293
-0.000185946
-0.000187044
-0.000187566
-0.000187494
-0.000186807
-0.000185486
-0.000183512
-0.000180864
-0.000177523
-0.00017347
-0.000168686
-0.00016315
-0.000156845
-0.000149761
-0.000141897
-0.000133202
-0.00012342
-0.00011236
-0.000102281
-3.23464e-05
-2.10661e-05
-8.69538e-06
2.22181e-06
1.18852e-05
2.05666e-05
2.83066e-05
3.50913e-05
4.09193e-05
4.57992e-05
4.97437e-05
5.27676e-05
5.48887e-05
5.61275e-05
5.65078e-05
5.60558e-05
5.48007e-05
5.2774e-05
5.00096e-05
4.65435e-05
4.24138e-05
3.76601e-05
3.23237e-05
2.6447e-05
2.00735e-05
1.32475e-05
6.01374e-06
-1.58259e-06
-9.49633e-06
-1.76824e-05
-2.6096e-05
-3.46929e-05
-4.34297e-05
-5.22634e-05
-6.11525e-05
-7.00562e-05
-7.89351e-05
-8.77509e-05
-9.64667e-05
-0.000105047
-0.000113457
-0.000121665
-0.000129639
-0.000137349
-0.000144765
-0.00015186
-0.000158608
-0.000164982
-0.000170958
-0.000176513
-0.000181622
-0.000186263
-0.000190415
-0.000194054
-0.000197161
-0.000199712
-0.000201687
-0.000203065
-0.000203823
-0.000203941
-0.000203396
-0.000202166
-0.000200228
-0.000197562
-0.000194143
-0.00018995
-0.000184961
-0.000179152
-0.000172504
-0.000165004
-0.000156648
-0.000147383
-0.00013693
-0.000125084
-0.000114274
-1.81044e-05
-5.96651e-06
7.30563e-06
1.89589e-05
2.92113e-05
3.83597e-05
4.64506e-05
5.34717e-05
5.94243e-05
6.43208e-05
6.81777e-05
7.10142e-05
7.28525e-05
7.37181e-05
7.36398e-05
7.26492e-05
7.07808e-05
6.80716e-05
6.45612e-05
6.02913e-05
5.53056e-05
4.96494e-05
4.33694e-05
3.65135e-05
2.91306e-05
2.127e-05
1.29815e-05
4.31482e-06
-4.6802e-06
-1.39543e-05
-2.34587e-05
-3.31454e-05
-4.29673e-05
-5.28785e-05
-6.28341e-05
-7.27908e-05
-8.27066e-05
-9.25409e-05
-0.000102255
-0.000111811
-0.000121173
-0.000130307
-0.00013918
-0.00014776
-0.000156017
-0.000163923
-0.00017145
-0.00017857
-0.00018526
-0.000191492
-0.000197244
-0.000202491
-0.000207211
-0.000211379
-0.000214974
-0.000217972
-0.00022035
-0.000222085
-0.000223154
-0.000223532
-0.000223196
-0.00022212
-0.000220281
-0.000217652
-0.000214209
-0.000209925
-0.000204777
-0.000198737
-0.000191782
-0.000183896
-0.000175075
-0.000165259
-0.000154149
-0.000141523
-0.000129983
4.16547e-07
1.34152e-05
2.75788e-05
3.99395e-05
5.07354e-05
6.02899e-05
6.8657e-05
7.58269e-05
8.18046e-05
8.66071e-05
9.02558e-05
9.2775e-05
9.41926e-05
9.45395e-05
9.38503e-05
9.21627e-05
8.95174e-05
8.59577e-05
8.15294e-05
7.62806e-05
7.02612e-05
6.35227e-05
5.6118e-05
4.81011e-05
3.95264e-05
3.0449e-05
2.09241e-05
1.10065e-05
7.50908e-07
-9.78875e-06
-2.05593e-05
-3.15088e-05
-4.25862e-05
-5.37423e-05
-6.4929e-05
-7.61e-05
-8.72106e-05
-9.8218e-05
-0.000109081
-0.00011976
-0.000130218
-0.000140418
-0.000150326
-0.000159909
-0.000169137
-0.000177979
-0.000186407
-0.000194392
-0.000201909
-0.000208931
-0.000215434
-0.000221392
-0.000226782
-0.000231578
-0.000235757
-0.000239294
-0.000242164
-0.000244343
-0.000245805
-0.000246524
-0.000246474
-0.000245626
-0.000243954
-0.00024143
-0.000238024
-0.000233708
-0.000228454
-0.000222231
-0.000215013
-0.00020678
-0.000197527
-0.000187186
-0.000175437
-0.000162042
-0.000149776
2.38121e-05
3.76599e-05
5.26867e-05
6.5707e-05
7.69803e-05
8.68586e-05
9.54047e-05
0.000102613
0.000108492
0.000113066
0.000116361
0.000118409
0.000119243
0.000118902
0.000117425
0.000114859
0.00011125
0.000106649
0.000101109
9.46843e-05
8.74327e-05
7.94122e-05
7.06826e-05
6.13041e-05
5.13376e-05
4.08444e-05
2.98853e-05
1.85209e-05
6.81111e-06
-5.18527e-06
-1.74105e-05
-2.98081e-05
-4.23233e-05
-5.49031e-05
-6.74959e-05
-8.00523e-05
-9.25251e-05
-0.000104869
-0.000117042
-0.000129
-0.000140705
-0.000152119
-0.000163207
-0.000173935
-0.000184269
-0.000194181
-0.000203639
-0.000212616
-0.000221084
-0.000229016
-0.000236386
-0.000243169
-0.000249339
-0.000254871
-0.000259738
-0.000263916
-0.000267378
-0.000270097
-0.000272045
-0.000273195
-0.000273516
-0.00027298
-0.000271555
-0.000269211
-0.000265914
-0.000261634
-0.000256336
-0.000249989
-0.000242559
-0.000234026
-0.00022438
-0.000213547
-0.000201185
-0.000187037
-0.000174055
5.27677e-05
6.74318e-05
8.32681e-05
9.68743e-05
0.000108532
0.000118625
0.000127226
0.000134333
0.000139963
0.000144145
0.000146915
0.00014831
0.000148371
0.000147144
0.000144678
0.000141025
0.000136241
0.000130384
0.000123514
0.000115695
0.000106992
9.74688e-05
8.71939e-05
7.62345e-05
6.46582e-05
5.25328e-05
3.99255e-05
2.69028e-05
1.353e-05
-1.28537e-07
-1.40104e-05
-2.80545e-05
-4.22022e-05
-5.63965e-05
-7.05827e-05
-8.47066e-05
-9.87175e-05
-0.000112571
-0.000126222
-0.000139625
-0.000152739
-0.000165525
-0.000177946
-0.000189967
-0.000201555
-0.000212678
-0.000223306
-0.000233409
-0.00024296
-0.000251932
-0.000260296
-0.000268027
-0.000275098
-0.000281483
-0.000287155
-0.000292086
-0.000296249
-0.000299615
-0.000302154
-0.000303835
-0.000304627
-0.000304497
-0.00030341
-0.000301333
-0.000298229
-0.000294062
-0.000288795
-0.000282391
-0.000274812
-0.000266035
-0.000256044
-0.000244761
-0.000231818
-0.000216943
-0.000203261
8.80664e-05
0.000103485
0.000120043
0.000134128
0.000146046
0.000156211
0.000164707
0.000171542
0.000176739
0.000180336
0.000182376
0.000182905
0.000181974
0.000179636
0.00017595
0.000170977
0.00016478
0.000157428
0.000148988
0.000139533
0.000129135
0.000117869
0.000105809
9.30308e-05
7.96088e-05
6.56181e-05
5.11324e-05
3.62245e-05
2.09658e-05
5.42608e-06
-1.03272e-05
-2.62282e-05
-4.22138e-05
-5.8223e-05
-7.41978e-05
-9.0084e-05
-0.000105828
-0.000121377
-0.000136685
-0.000151707
-0.000166399
-0.000180722
-0.000194638
-0.000208111
-0.000221108
-0.000233595
-0.000245542
-0.000256918
-0.000267696
-0.000277846
-0.000287343
-0.000296157
-0.000304262
-0.000311631
-0.000318235
-0.000324045
-0.000329032
-0.000333165
-0.000336413
-0.000338741
-0.000340115
-0.0003405
-0.000339857
-0.000338148
-0.000335333
-0.000331372
-0.000326222
-0.000319842
-0.000312189
-0.000303235
-0.00029296
-0.000281279
-0.000267799
-0.000252232
-0.000237873
0.000130594
0.000146668
0.000163817
0.000178231
0.000190242
0.000200296
0.000208493
0.000214846
0.000219388
0.000222169
0.000223241
0.000222659
0.000220485
0.000216781
0.000211616
0.000205061
0.000197189
0.000188076
0.000177802
0.000166447
0.000154092
0.000140822
0.000126718
0.000111865
9.63441e-05
8.02387e-05
6.36292e-05
4.6595e-05
2.92136e-05
1.15603e-05
-6.29197e-06
-2.42727e-05
-4.23143e-05
-6.0352e-05
-7.83238e-05
-9.61712e-05
-0.000113839
-0.000131274
-0.000148431
-0.000165263
-0.000181719
-0.000197756
-0.000213341
-0.000228437
-0.000243008
-0.000257023
-0.000270449
-0.000283256
-0.000295416
-0.0003069
-0.000317679
-0.000327726
-0.000337012
-0.00034551
-0.000353189
-0.00036002
-0.00036597
-0.000371008
-0.000375098
-0.000378205
-0.000380291
-0.000381316
-0.000381239
-0.000380017
-0.000377605
-0.000373958
-0.000369029
-0.000362769
-0.000355133
-0.000346084
-0.0003356
-0.000323585
-0.000309626
-0.000293413
-0.000278412
0.00018134
0.000197923
0.000215477
0.000230019
0.000241908
0.000251622
0.000259275
0.000264893
0.000268519
0.000270214
0.000270042
0.000268069
0.000264367
0.000259011
0.000252079
0.000243652
0.000233815
0.000222654
0.000210258
0.000196718
0.000182125
0.00016657
0.000150147
0.000132946
0.000115059
9.65748e-05
7.75825e-05
5.81677e-05
3.84142e-05
1.84031e-05
-1.78717e-06
-2.20817e-05
-4.24083e-05
-6.26985e-05
-8.28872e-05
-0.000102913
-0.000122717
-0.000142245
-0.000161444
-0.000180267
-0.000198674
-0.000216619
-0.00023406
-0.00025096
-0.000267287
-0.000283006
-0.000298085
-0.000312496
-0.000326208
-0.000339193
-0.000351422
-0.000362867
-0.000373499
-0.000383289
-0.000392205
-0.000400216
-0.000407288
-0.000413387
-0.000418476
-0.000422514
-0.000425461
-0.000427274
-0.000427906
-0.000427309
-0.000425435
-0.000422231
-0.000417645
-0.000411623
-0.000404111
-0.000395068
-0.000384467
-0.000372201
-0.000357834
-0.000341039
-0.000325442
0.000241401
0.000258286
0.00027599
0.000290397
0.000301891
0.000310979
0.000317794
0.000322374
0.000324776
0.000325072
0.00032334
0.000319659
0.000314112
0.000306785
0.000297769
0.000287155
0.00027504
0.00026152
0.000246695
0.000230666
0.000213534
0.000195399
0.000176365
0.00015653
0.000135995
0.000114857
9.32111e-05
7.11503e-05
4.8765e-05
2.61419e-05
3.3646e-06
-1.9487e-05
-4.23366e-05
-6.51122e-05
-8.77453e-05
-0.000110172
-0.000132332
-0.000154168
-0.000175625
-0.000196652
-0.000217208
-0.000237254
-0.000256747
-0.000275647
-0.00029392
-0.000311534
-0.000328457
-0.000344659
-0.000360111
-0.000374783
-0.000388648
-0.000401677
-0.000413839
-0.000425105
-0.000435441
-0.000444816
-0.000453193
-0.000460534
-0.0004668
-0.000471947
-0.000475931
-0.000478703
-0.000480212
-0.000480406
-0.000479228
-0.000476621
-0.000472525
-0.00046688
-0.000459625
-0.00045071
-0.000440103
-0.000427687
-0.000413003
-0.000395707
-0.000379576
0.000311968
0.000328874
0.000346393
0.000360327
0.000371082
0.000379196
0.000384819
0.000388004
0.000388824
0.000387365
0.000383717
0.000377974
0.00037023
0.000360585
0.00034914
0.000336
0.000321272
0.000305064
0.000287485
0.000268647
0.000248662
0.00022764
0.000205692
0.000182927
0.000159452
0.000135374
0.000110795
8.58145e-05
6.05292e-05
3.50316e-05
9.41049e-06
-1.62495e-05
-4.18683e-05
-6.737e-05
-9.26834e-05
-0.000117742
-0.000142483
-0.000166848
-0.000190783
-0.000214238
-0.000237167
-0.000259528
-0.000281281
-0.00030239
-0.000322818
-0.000342534
-0.000361507
-0.000379708
-0.000397107
-0.000413675
-0.000429384
-0.000444205
-0.000458108
-0.00047106
-0.000483028
-0.000493977
-0.000503869
-0.000512663
-0.000520315
-0.000526779
-0.000532005
-0.000535939
-0.000538525
-0.000539703
-0.000539411
-0.000537583
-0.000534154
-0.000529053
-0.000522211
-0.000513572
-0.000503095
-0.000490653
-0.000475764
-0.000458065
-0.000441477
0.000394321
0.000410878
0.000427777
0.00044081
0.000450406
0.000457126
0.000461137
0.000462513
0.000461341
0.000457722
0.000451762
0.000443566
0.000433244
0.000420906
0.000406667
0.000390642
0.000372949
0.000353708
0.000333039
0.000311063
0.000287901
0.000263675
0.000238504
0.000212505
0.000185794
0.000158485
0.000130688
0.000102509
7.405e-05
4.54102e-05
1.66827e-05
-1.20433e-05
-4.06839e-05
-6.91601e-05
-9.73981e-05
-0.000125329
-0.000152888
-0.000180018
-0.000206662
-0.000232771
-0.000258299
-0.000283203
-0.000307444
-0.000330987
-0.000353798
-0.000375844
-0.000397096
-0.000417525
-0.000437103
-0.000455801
-0.00047359
-0.000490442
-0.000506324
-0.000521204
-0.000535047
-0.000547815
-0.000559467
-0.00056996
-0.000579245
-0.00058727
-0.00059398
-0.000599317
-0.000603216
-0.00060561
-0.000606429
-0.0006056
-0.000603046
-0.000598689
-0.000592451
-0.000584265
-0.000574081
-0.000561763
-0.000546802
-0.000528822
-0.000511871
0.000489797
0.000505528
0.000521256
0.000532861
0.000540788
0.000545613
0.000547525
0.000546615
0.000542988
0.000536761
0.000528053
0.000516985
0.000503676
0.00048825
0.000470832
0.00045155
0.000430531
0.000407905
0.000383803
0.000358356
0.000331693
0.000303945
0.00027524
0.000245704
0.00021546
0.000184629
0.000153329
0.000121671
8.97648e-05
5.77134e-05
2.56151e-05
-6.43706e-06
-3.83557e-05
-7.00589e-05
-0.000101471
-0.00013252
-0.000163143
-0.000193279
-0.000222874
-0.000251877
-0.000280244
-0.000307932
-0.000334905
-0.000361127
-0.000386565
-0.000411191
-0.000434974
-0.000457888
-0.000479904
-0.000500995
-0.000521132
-0.000540286
-0.000558424
-0.000575512
-0.000591513
-0.000606386
-0.000620088
-0.000632569
-0.000643776
-0.000653653
-0.000662137
-0.000669162
-0.000674656
-0.000678544
-0.000680745
-0.000681176
-0.000679751
-0.000676379
-0.000670971
-0.000663451
-0.000653757
-0.000641741
-0.000626871
-0.000608755
-0.000591554
0.000599761
0.000614065
0.000627934
0.000637467
0.000643115
0.000645461
0.000644711
0.000640978
0.000634382
0.000625056
0.000613133
0.000598744
0.000582021
0.000563099
0.000542111
0.000519195
0.000494488
0.000468128
0.000440254
0.000411006
0.000380523
0.000348942
0.000316399
0.000283028
0.00024896
0.000214323
0.00017924
0.000143829
0.000108206
7.24766e-05
3.67454e-05
1.10842e-06
-3.43439e-05
-6.95272e-05
-0.000104364
-0.000138783
-0.000172717
-0.000206109
-0.000238903
-0.000271051
-0.000302509
-0.000333236
-0.000363198
-0.000392361
-0.000420696
-0.000448173
-0.000474766
-0.000500448
-0.000525194
-0.000548977
-0.000571767
-0.000593534
-0.000614247
-0.000633868
-0.000652357
-0.000669671
-0.000685761
-0.000700573
-0.000714049
-0.000726124
-0.000736727
-0.000745783
-0.000753212
-0.000758926
-0.000762834
-0.000764841
-0.000764848
-0.000762751
-0.000758449
-0.000751851
-0.000742885
-0.000731386
-0.000716802
-0.000698725
-0.000681407
0.000725549
0.000737678
0.000748847
0.000755533
0.000758187
0.000757377
0.000753328
0.000746172
0.000736047
0.000723097
0.000707465
0.000689292
0.00066872
0.000645889
0.000620941
0.000594024
0.000565275
0.000534842
0.000502871
0.000469509
0.0004349
0.00039919
0.000362521
0.000325033
0.000286864
0.000248149
0.000209015
0.000169588
0.000129986
9.03231e-05
5.07046e-05
1.12307e-05
-2.80056e-05
-6.69184e-05
-0.000105429
-0.000143465
-0.000180961
-0.000217859
-0.000254106
-0.000289656
-0.000324466
-0.000358499
-0.000391723
-0.000424107
-0.000455624
-0.000486249
-0.000515957
-0.000544724
-0.000572526
-0.000599335
-0.000625125
-0.000649864
-0.000673518
-0.000696049
-0.000717413
-0.000737562
-0.000756442
-0.000773993
-0.000790147
-0.000804832
-0.000817968
-0.000829468
-0.000839238
-0.00084718
-0.000853188
-0.000857153
-0.000858959
-0.000858489
-0.000855624
-0.000850259
-0.000842306
-0.000831584
-0.00081752
-0.00079969
-0.000782417
0.000868398
0.000877437
0.000884887
0.000887808
0.000886636
0.000881903
0.000873846
0.000862613
0.000848356
0.000831229
0.000811381
0.000788958
0.000764105
0.000736966
0.000707682
0.000676408
0.000643289
0.00060847
0.000572102
0.000534336
0.000495323
0.000455211
0.000414151
0.000372286
0.000329762
0.000286716
0.000243283
0.000199594
0.000155771
0.000111931
6.81847e-05
2.46344e-05
-1.86249e-05
-6.15062e-05
-0.00010393
-0.000145825
-0.000187128
-0.00022778
-0.000267733
-0.000306943
-0.00034537
-0.000382983
-0.000419751
-0.00045565
-0.000490656
-0.000524746
-0.000557901
-0.000590099
-0.000621317
-0.00065153
-0.000680712
-0.00070883
-0.000735848
-0.000761725
-0.000786414
-0.000809861
-0.000832003
-0.000852774
-0.000872096
-0.000889884
-0.000906048
-0.000920485
-0.000933089
-0.000943744
-0.000952327
-0.000958709
-0.00096276
-0.000964341
-0.000963316
-0.000959559
-0.000952965
-0.000943333
-0.000930069
-0.000912735
-0.000895697
0.00102931
0.00103415
0.00103667
0.00103477
0.00102883
0.00101932
0.00100648
0.000990466
0.00097145
0.000949581
0.000925009
0.000897878
0.000868331
0.000836507
0.00080255
0.0007666
0.000728811
0.000689327
0.000648298
0.000605876
0.000562213
0.000517463
0.000471778
0.000425307
0.0003782
0.000330599
0.000282645
0.000234471
0.000186206
0.00013797
8.98765e-05
4.20299e-05
-5.47284e-06
-5.25441e-05
-9.91052e-05
-0.000145086
-0.000190425
-0.000235068
-0.00027897
-0.00032209
-0.000364397
-0.000405861
-0.00044646
-0.000486174
-0.000524985
-0.000562877
-0.000599832
-0.000635835
-0.000670864
-0.000704898
-0.00073791
-0.000769868
-0.000800732
-0.000830458
-0.000858994
-0.000886277
-0.000912238
-0.000936797
-0.000959865
-0.000981345
-0.00100113
-0.00101909
-0.00103512
-0.00104908
-0.00106081
-0.00107016
-0.001077
-0.00108114
-0.00108244
-0.00108075
-0.00107593
-0.00106777
-0.00105564
-0.0010391
-0.00102252
0.00120898
0.00120833
0.00120453
0.00119658
0.00118479
0.00116955
0.00115108
0.00112956
0.00110513
0.00107796
0.00104817
0.00101591
0.000981286
0.000944443
0.00090551
0.000864621
0.000821916
0.000777536
0.000731628
0.000684341
0.000635827
0.000586241
0.000535737
0.000484467
0.000432585
0.000380238
0.000327571
0.000274723
0.000221824
0.000169001
0.000116368
6.40328e-05
1.20943e-05
-3.93604e-05
-9.02546e-05
-0.000140521
-0.000190101
-0.000238947
-0.000287017
-0.000334279
-0.000380707
-0.000426281
-0.000470986
-0.00051481
-0.000557743
-0.000599776
-0.000640898
-0.000681099
-0.000720362
-0.000758669
-0.000795994
-0.000832303
-0.000867556
-0.000901702
-0.000934683
-0.000966427
-0.000996853
-0.00102587
-0.00105337
-0.00107923
-0.00110334
-0.00112555
-0.00114572
-0.00116367
-0.00117923
-0.00119223
-0.0012025
-0.00120984
-0.00121406
-0.00121497
-0.00121244
-0.0012062
-0.00119562
-0.00118023
-0.00116438
0.00140765
0.00139998
0.00138819
0.00137278
0.00135397
0.00133198
0.001307
0.00127921
0.00124875
0.00121573
0.00118027
0.00114248
0.00110247