/*--------------------------------*- C++ -*----------------------------------*\
  =========                 |
  \\      /  F ield         | OpenFOAM: The Open Source CFD Toolbox
   \\    /   O peration     | Website:  https://openfoam.org
    \\  /    A nd           | Version:  12
     \\/     M anipulation  |
\*---------------------------------------------------------------------------*/
FoamFile
{
    format      ascii;
    class       volScalarField;
    location    "3.5";
    object      k;
}
// * * * * * * * * * * * * * * * * * * * * * * * * * * * * * * * * * * * * * //

dimensions      [0 2 -2 0 0 0 0];

internalField   nonuniform List<scalar> 
5625
(
2.22045e-16
3.37432e-16
7.34965e-16
1.20908e-15
1.73492e-15
2.29698e-15
2.8835e-15
3.48469e-15
4.09206e-15
4.69806e-15
5.29594e-15
5.87966e-15
6.44387e-15
6.98393e-15
7.49587e-15
7.97638e-15
8.42288e-15
8.83345e-15
9.20679e-15
9.54225e-15
9.83973e-15
1.00996e-14
1.03228e-14
1.05104e-14
1.0664e-14
1.07852e-14
1.08758e-14
1.09377e-14
1.09727e-14
1.09827e-14
1.09697e-14
1.09349e-14
1.08798e-14
1.08057e-14
1.07135e-14
1.06041e-14
1.04784e-14
1.03368e-14
1.01798e-14
1.00079e-14
9.82134e-15
9.62036e-15
9.40524e-15
9.17627e-15
8.93376e-15
8.67808e-15
8.40967e-15
8.12908e-15
7.83692e-15
7.53395e-15
7.221e-15
6.89903e-15
6.56909e-15
6.2323e-15
5.88989e-15
5.54314e-15
5.19337e-15
4.84195e-15
4.49025e-15
4.13965e-15
3.79151e-15
3.44718e-15
3.10798e-15
2.77522e-15
2.45017e-15
2.13411e-15
1.82836e-15
1.53432e-15
1.25353e-15
9.87764e-16
7.3921e-16
5.10754e-16
3.06987e-16
2.22045e-16
2.22045e-16
3.37685e-16
2.90034e-15
6.53024e-15
1.08172e-14
1.55598e-14
2.06241e-14
2.59063e-14
3.13191e-14
3.67865e-14
4.22407e-14
4.76213e-14
5.28738e-14
5.79504e-14
6.28091e-14
6.74143e-14
7.17364e-14
7.57521e-14
7.94441e-14
8.28009e-14
8.58167e-14
8.84905e-14
9.0826e-14
9.2831e-14
9.45162e-14
9.58951e-14
9.69828e-14
9.77958e-14
9.83507e-14
9.86633e-14
9.87522e-14
9.86334e-14
9.83196e-14
9.78235e-14
9.71559e-14
9.63264e-14
9.53429e-14
9.42118e-14
9.29383e-14
9.15263e-14
8.99795e-14
8.83009e-14
8.64928e-14
8.45578e-14
8.24983e-14
8.0317e-14
7.80174e-14
7.56035e-14
7.30799e-14
7.04525e-14
6.77279e-14
6.49137e-14
6.20183e-14
5.90513e-14
5.60229e-14
5.2944e-14
4.9826e-14
4.6681e-14
4.35211e-14
4.03588e-14
3.72064e-14
3.40761e-14
3.09801e-14
2.79303e-14
2.49382e-14
2.20153e-14
1.91733e-14
1.64238e-14
1.37793e-14
1.12535e-14
8.86226e-15
6.62499e-15
4.56667e-15
2.72321e-15
1.16453e-15
2.22045e-16
7.37769e-16
6.54979e-15
1.48749e-14
2.47461e-14
3.56797e-14
4.73585e-14
5.95398e-14
7.20213e-14
8.46272e-14
9.72014e-14
1.09604e-13
1.21709e-13
1.33407e-13
1.446e-13
1.55207e-13
1.65159e-13
1.74402e-13
1.82897e-13
1.90618e-13
1.97551e-13
2.03694e-13
2.09056e-13
2.13656e-13
2.17518e-13
2.20674e-13
2.2316e-13
2.25013e-13
2.26273e-13
2.26974e-13
2.27162e-13
2.26873e-13
2.26136e-13
2.2498e-13
2.23432e-13
2.21511e-13
2.19238e-13
2.16626e-13
2.13688e-13
2.10433e-13
2.06869e-13
2.03002e-13
1.98839e-13
1.94384e-13
1.89644e-13
1.84624e-13
1.79332e-13
1.73777e-13
1.67971e-13
1.61926e-13
1.55658e-13
1.49184e-13
1.42524e-13
1.357e-13
1.28734e-13
1.21653e-13
1.14483e-13
1.0725e-13
9.99839e-14
9.27124e-14
8.5464e-14
7.82669e-14
7.1149e-14
6.41373e-14
5.72585e-14
5.05391e-14
4.40053e-14
3.76842e-14
3.16042e-14
2.5797e-14
2.02996e-14
1.51582e-14
1.04358e-14
6.22957e-15
2.71761e-15
3.06183e-16
1.22009e-15
1.09063e-14
2.48748e-14
4.15018e-14
5.99533e-14
7.96792e-14
1.00261e-13
1.21353e-13
1.42656e-13
1.63902e-13
1.84855e-13
2.05303e-13
2.25058e-13
2.43955e-13
2.61855e-13
2.78643e-13
2.94228e-13
3.08544e-13
3.21546e-13
3.33211e-13
3.43539e-13
3.52546e-13
3.60261e-13
3.66729e-13
3.72005e-13
3.76148e-13
3.79225e-13
3.81301e-13
3.82434e-13
3.82707e-13
3.82178e-13
3.80898e-13
3.78914e-13
3.7627e-13
3.73003e-13
3.69144e-13
3.64718e-13
3.59745e-13
3.54241e-13
3.48219e-13
3.4169e-13
3.34663e-13
3.27147e-13
3.1915e-13
3.10685e-13
3.01762e-13
2.92399e-13
2.82613e-13
2.72426e-13
2.61864e-13
2.50956e-13
2.39736e-13
2.2824e-13
2.16508e-13
2.04582e-13
1.92506e-13
1.80328e-13
1.68094e-13
1.55853e-13
1.43652e-13
1.31538e-13
1.19558e-13
1.07759e-13
9.61839e-14
8.48779e-14
7.38848e-14
6.32501e-14
5.30217e-14
4.32533e-14
3.40082e-14
2.53667e-14
1.74399e-14
1.03983e-14
4.54091e-15
5.07567e-16
1.76397e-15
1.58061e-14
3.61342e-14
6.04021e-14
8.73824e-14
1.16257e-13
1.46402e-13
1.77303e-13
2.08515e-13
2.39645e-13
2.70341e-13
3.00291e-13
3.29217e-13
3.56877e-13
3.83067e-13
4.07616e-13
4.30391e-13
4.51294e-13
4.70262e-13
4.87263e-13
5.02296e-13
5.15386e-13
5.2658e-13
5.35944e-13
5.43559e-13
5.49517e-13
5.53915e-13
5.56852e-13
5.58408e-13
5.58717e-13
5.57858e-13
5.55905e-13
5.52931e-13
5.48999e-13
5.44163e-13
5.38469e-13
5.31952e-13
5.24643e-13
5.16564e-13
5.07735e-13
4.9817e-13
4.87882e-13
4.76884e-13
4.65189e-13
4.52813e-13
4.39773e-13
4.26092e-13
4.11796e-13
3.96918e-13
3.81495e-13
3.65571e-13
3.49192e-13
3.32414e-13
3.15293e-13
2.97892e-13
2.80276e-13
2.62513e-13
2.44672e-13
2.26822e-13
2.09034e-13
1.91376e-13
1.73917e-13
1.56722e-13
1.39858e-13
1.23387e-13
1.07374e-13
9.18859e-14
7.69918e-14
6.27708e-14
4.93167e-14
3.67493e-14
2.52347e-14
1.50251e-14
6.55322e-15
7.30749e-16
2.35853e-15
2.11573e-14
4.84333e-14
8.10639e-14
1.17398e-13
1.56324e-13
1.96989e-13
2.38689e-13
2.80817e-13
3.22836e-13
3.64265e-13
4.04678e-13
4.43698e-13
4.80994e-13
5.16287e-13
5.49347e-13
5.79994e-13
6.08095e-13
6.33565e-13
6.56363e-13
6.7649e-13
6.93982e-13
7.08905e-13
7.21354e-13
7.31439e-13
7.39288e-13
7.45035e-13
7.48816e-13
7.50735e-13
7.50993e-13
7.49684e-13
7.46912e-13
7.42775e-13
7.3736e-13
7.30741e-13
7.22977e-13
7.14119e-13
7.04206e-13
6.93268e-13
6.81331e-13
6.68414e-13
6.54533e-13
6.39705e-13
6.23948e-13
6.07281e-13
5.89728e-13
5.7132e-13
5.5209e-13
5.32084e-13
5.1135e-13
4.89946e-13
4.67937e-13
4.45395e-13
4.22399e-13
3.99031e-13
3.75379e-13
3.51535e-13
3.27591e-13
3.03641e-13
2.79779e-13
2.56098e-13
2.32687e-13
2.09637e-13
1.87034e-13
1.64963e-13
1.43511e-13
1.22766e-13
1.02821e-13
8.37849e-14
6.57833e-14
4.89799e-14
3.36002e-14
1.99838e-14
8.70618e-15
9.69756e-16
2.99688e-15
2.69e-14
6.16316e-14
1.03243e-13
1.49635e-13
1.99383e-13
2.51387e-13
3.04738e-13
3.58648e-13
4.12421e-13
4.65435e-13
5.17139e-13
5.67041e-13
6.14716e-13
6.59802e-13
7.02002e-13
7.41083e-13
7.76876e-13
8.09273e-13
8.38224e-13
8.63732e-13
8.85849e-13
9.04664e-13
9.20301e-13
9.32909e-13
9.42655e-13
9.49716e-13
9.54264e-13
9.56438e-13
9.56518e-13
9.54604e-13
9.50837e-13
9.45346e-13
9.38241e-13
9.29618e-13
9.19553e-13
9.08111e-13
8.95341e-13
8.81282e-13
8.65965e-13
8.49414e-13
8.31649e-13
8.12691e-13
7.92561e-13
7.71283e-13
7.48888e-13
7.25412e-13
7.009e-13
6.75407e-13
6.48996e-13
6.2174e-13
5.93722e-13
5.65034e-13
5.35775e-13
5.06051e-13
4.75974e-13
4.45661e-13
4.1523e-13
3.84799e-13
3.54489e-13
3.24416e-13
2.94696e-13
2.65442e-13
2.36762e-13
2.08767e-13
1.81563e-13
1.55263e-13
1.29987e-13
1.05871e-13
8.30779e-14
6.18163e-14
4.23741e-14
2.51815e-14
1.09619e-14
1.22028e-15
3.67417e-15
3.29913e-14
7.56299e-14
1.2677e-13
1.8384e-13
2.45088e-13
3.09152e-13
3.74903e-13
4.41358e-13
5.07649e-13
5.73e-13
6.3672e-13
6.98196e-13
7.56896e-13
8.12369e-13
8.64243e-13
9.12229e-13
9.56117e-13
9.95777e-13
1.03115e-12
1.06224e-12
1.08913e-12
1.11191e-12
1.13077e-12
1.14588e-12
1.15747e-12
1.16574e-12
1.17092e-12
1.1732e-12
1.17293e-12
1.17022e-12
1.16525e-12
1.15819e-12
1.14917e-12
1.13831e-12
1.1257e-12
1.11143e-12
1.09556e-12
1.07813e-12
1.05917e-12
1.03873e-12
1.01682e-12
9.93463e-13
9.68689e-13
9.42524e-13
9.15005e-13
8.86176e-13
8.56092e-13
8.24818e-13
7.92433e-13
7.59024e-13
7.24694e-13
6.89555e-13
6.53729e-13
6.17345e-13
5.80543e-13
5.43462e-13
5.06249e-13
4.6905e-13
4.3201e-13
3.95273e-13
3.58979e-13
3.23265e-13
2.88265e-13
2.5411e-13
2.20933e-13
1.88869e-13
1.58065e-13
1.28687e-13
1.00935e-13
7.50643e-14
5.14261e-14
3.05428e-14
1.32885e-14
1.47873e-15
4.38675e-15
3.93989e-14
9.03535e-14
1.51516e-13
2.19824e-13
2.93181e-13
3.69953e-13
4.48775e-13
5.2846e-13
6.07954e-13
6.86315e-13
7.627e-13
8.36365e-13
9.0666e-13
9.73035e-13
1.03504e-12
1.09232e-12
1.14464e-12
1.19182e-12
1.2338e-12
1.27061e-12
1.30233e-12
1.3291e-12
1.35114e-12
1.36868e-12
1.38197e-12
1.39131e-12
1.39693e-12
1.39913e-12
1.39828e-12
1.39454e-12
1.38814e-12
1.37925e-12
1.36807e-12
1.35472e-12
1.33932e-12
1.32197e-12
1.30275e-12
1.28169e-12
1.25886e-12
1.23428e-12
1.20798e-12
1.17998e-12
1.15032e-12
1.11903e-12
1.08614e-12
1.05172e-12
1.01582e-12
9.78528e-13
9.39928e-13
9.00128e-13
8.59249e-13
8.17424e-13
7.74798e-13
7.31527e-13
6.87773e-13
6.43706e-13
5.99499e-13
5.55324e-13
5.11356e-13
4.67763e-13
4.24712e-13
3.82365e-13
3.4088e-13
3.00412e-13
2.61116e-13
2.23154e-13
1.86698e-13
1.51945e-13
1.19132e-13
8.85604e-14
6.06459e-14
3.60032e-14
1.56582e-14
1.74204e-15
5.13166e-15
4.60966e-14
1.05742e-13
1.7738e-13
2.57437e-13
3.43459e-13
4.33527e-13
5.26032e-13
6.1957e-13
7.1289e-13
8.0487e-13
8.94505e-13
9.80907e-13
1.0633e-12
1.14103e-12
1.21356e-12
1.28047e-12
1.34146e-12
1.39636e-12
1.44508e-12
1.48767e-12
1.52422e-12
1.55493e-12
1.58004e-12
1.59986e-12
1.61469e-12
1.62488e-12
1.6307e-12
1.63258e-12
1.63089e-12
1.62586e-12
1.61773e-12
1.60676e-12
1.59313e-12
1.57702e-12
1.55857e-12
1.53788e-12
1.51505e-12
1.49013e-12
1.46317e-12
1.43421e-12
1.40329e-12
1.37043e-12
1.33567e-12
1.29903e-12
1.26058e-12
1.22036e-12
1.17845e-12
1.13494e-12
1.08994e-12
1.04356e-12
9.95957e-13
9.47273e-13
8.97682e-13
8.47362e-13
7.96504e-13
7.45304e-13
6.93962e-13
6.42679e-13
5.91657e-13
5.41091e-13
4.91175e-13
4.42094e-13
3.94032e-13
3.47166e-13
3.01676e-13
2.57747e-13
2.15579e-13
1.75397e-13
1.37476e-13
1.02164e-13
6.99384e-14
4.15067e-14
1.80469e-14
2.0075e-15
5.90646e-15
5.30623e-14
1.21746e-13
2.04277e-13
2.96554e-13
3.95753e-13
4.9966e-13
6.06411e-13
7.14372e-13
8.22086e-13
9.2824e-13
1.03166e-12
1.13129e-12
1.22623e-12
1.31571e-12
1.39909e-12
1.47589e-12
1.54576e-12
1.6085e-12
1.66403e-12
1.71239e-12
1.75372e-12
1.78825e-12
1.81628e-12
1.83817e-12
1.85431e-12
1.8651e-12
1.87081e-12
1.8721e-12
1.86927e-12
1.86264e-12
1.85249e-12
1.83912e-12
1.82276e-12
1.8036e-12
1.78181e-12
1.75751e-12
1.7308e-12
1.70176e-12
1.67044e-12
1.63688e-12
1.60112e-12
1.56319e-12
1.52312e-12
1.48096e-12
1.43675e-12
1.39056e-12
1.34248e-12
1.29261e-12
1.24107e-12
1.18799e-12
1.13353e-12
1.07787e-12
1.02121e-12
9.63747e-13
9.05697e-13
8.47283e-13
7.88735e-13
7.3028e-13
6.72148e-13
6.1456e-13
5.57736e-13
5.01887e-13
4.47218e-13
3.93932e-13
3.42232e-13
2.92326e-13
2.44439e-13
1.98828e-13
1.558e-13
1.15752e-13
7.92204e-14
4.70045e-14
2.04333e-14
2.27273e-15
6.70895e-15
6.02767e-14
1.38321e-13
2.32133e-13
3.37067e-13
4.49916e-13
5.68163e-13
6.89678e-13
8.1259e-13
9.3522e-13
1.05606e-12
1.17373e-12
1.28704e-12
1.39493e-12
1.49649e-12
1.591e-12
1.67791e-12
1.75681e-12
1.82746e-12
1.8898e-12
1.94388e-12
1.98986e-12
2.02805e-12
2.05879e-12
2.08251e-12
2.09966e-12
2.11072e-12
2.11601e-12
2.11638e-12
2.11209e-12
2.10351e-12
2.09101e-12
2.07492e-12
2.0555e-12
2.03298e-12
2.00755e-12
1.97936e-12
1.94851e-12
1.9151e-12
1.87917e-12
1.84078e-12
1.79997e-12
1.75677e-12
1.71122e-12
1.66335e-12
1.61324e-12
1.56095e-12
1.50658e-12
1.45024e-12
1.39205e-12
1.33218e-12
1.27081e-12
1.20812e-12
1.14434e-12
1.0797e-12
1.01443e-12
9.48781e-13
8.83017e-13
8.1739e-13
7.52153e-13
6.87556e-13
6.23842e-13
5.61248e-13
5.00002e-13
4.40329e-13
3.82455e-13
3.26611e-13
2.73049e-13
2.22051e-13
1.73961e-13
1.29218e-13
8.84197e-14
5.24538e-14
2.27989e-14
2.53569e-15
7.53714e-15
6.77219e-14
1.55425e-13
2.60879e-13
3.78874e-13
5.05815e-13
6.38865e-13
7.75624e-13
9.13972e-13
1.052e-12
1.18798e-12
1.32036e-12
1.44774e-12
1.56892e-12
1.68286e-12
1.78873e-12
1.8859e-12
1.97391e-12
2.05251e-12
2.1216e-12
2.18128e-12
2.23176e-12
2.27338e-12
2.30656e-12
2.33181e-12
2.34967e-12
2.36061e-12
2.36517e-12
2.36425e-12
2.35811e-12
2.34722e-12
2.33201e-12
2.31283e-12
2.29002e-12
2.26382e-12
2.23445e-12
2.20207e-12
2.16681e-12
2.12876e-12
2.08799e-12
2.04455e-12
1.99848e-12
1.94983e-12
1.89863e-12
1.84492e-12
1.78878e-12
1.73028e-12
1.66953e-12
1.60664e-12
1.54176e-12
1.47507e-12
1.40675e-12
1.33703e-12
1.26614e-12
1.19433e-12
1.12187e-12
1.04904e-12
9.76108e-13
9.03364e-13
8.31085e-13
7.59546e-13
6.89015e-13
6.19751e-13
5.52006e-13
4.86028e-13
4.22062e-13
3.60365e-13
3.0121e-13
2.44908e-13
1.91835e-13
1.42471e-13
9.74742e-14
5.78179e-14
2.51279e-14
2.7946e-15
8.38913e-15
7.53807e-14
1.73019e-13
2.9045e-13
4.21883e-13
5.6332e-13
7.11605e-13
8.64052e-13
1.01828e-12
1.17215e-12
1.3237e-12
1.47117e-12
1.61298e-12
1.74775e-12
1.87432e-12
1.99174e-12
2.09928e-12
2.19644e-12
2.28294e-12
2.3587e-12
2.42383e-12
2.47859e-12
2.52337e-12
2.55869e-12
2.58513e-12
2.60332e-12
2.61373e-12
2.61722e-12
2.61458e-12
2.6062e-12
2.59261e-12
2.5743e-12
2.55169e-12
2.52512e-12
2.4949e-12
2.46127e-12
2.4244e-12
2.38444e-12
2.3415e-12
2.29565e-12
2.24695e-12
2.19544e-12
2.14116e-12
2.08416e-12
2.02449e-12
1.96222e-12
1.89744e-12
1.83024e-12
1.76077e-12
1.68919e-12
1.61568e-12
1.54045e-12
1.46374e-12
1.38579e-12
1.3069e-12
1.22733e-12
1.1474e-12
1.06741e-12
9.87654e-13
9.08446e-13
8.30082e-13
7.52852e-13
6.77039e-13
6.02917e-13
5.30754e-13
4.60819e-13
3.93387e-13
3.28757e-13
2.67264e-13
2.09317e-13
1.55435e-13
1.06332e-13
6.30661e-14
2.74068e-14
3.04797e-15
9.26305e-15
8.32366e-14
1.91066e-13
3.2078e-13
4.65998e-13
6.22309e-13
7.86224e-13
9.54766e-13
1.12529e-12
1.2954e-12
1.4629e-12
1.62582e-12
1.78236e-12
1.93099e-12
2.07039e-12
2.19948e-12
2.31746e-12
2.42377e-12
2.5181e-12
2.60039e-12
2.67076e-12
2.72953e-12
2.77718e-12
2.8143e-12
2.84155e-12
2.85965e-12
2.86911e-12
2.87114e-12
2.86637e-12
2.85533e-12
2.83863e-12
2.81683e-12
2.79038e-12
2.7597e-12
2.72512e-12
2.68689e-12
2.64524e-12
2.6003e-12
2.55221e-12
2.50105e-12
2.44688e-12
2.38975e-12
2.32969e-12
2.26677e-12
2.20104e-12
2.13257e-12
2.06144e-12
1.98779e-12
1.91175e-12
1.83349e-12
1.75321e-12
1.67114e-12
1.58752e-12
1.50263e-12
1.41676e-12
1.33022e-12
1.24333e-12
1.15642e-12
1.06981e-12
9.83828e-13
8.98795e-13
8.15025e-13
7.32821e-13
6.52479e-13
5.74287e-13
4.98535e-13
4.25518e-13
3.55557e-13
2.89014e-13
2.26324e-13
1.68047e-13
1.14951e-13
6.81736e-14
2.96248e-14
3.29461e-15
1.0157e-14
9.12726e-14
2.09527e-13
3.51807e-13
5.11127e-13
6.82655e-13
8.62563e-13
1.04757e-12
1.23476e-12
1.42148e-12
1.60528e-12
1.78395e-12
1.9555e-12
2.11821e-12
2.27058e-12
2.41144e-12
2.53988e-12
2.65529e-12
2.75734e-12
2.84597e-12
2.92134e-12
2.98384e-12
3.03401e-12
3.07254e-12
3.10021e-12
3.11777e-12
3.12584e-12
3.12601e-12
3.11865e-12
3.10452e-12
3.08429e-12
3.05858e-12
3.02792e-12
2.99276e-12
2.95346e-12
2.91032e-12
2.86358e-12
2.8134e-12
2.75991e-12
2.70322e-12
2.64339e-12
2.58046e-12
2.51451e-12
2.44556e-12
2.37369e-12
2.29896e-12
2.22149e-12
2.14139e-12
2.05882e-12
1.97394e-12
1.88698e-12
1.79817e-12
1.70778e-12
1.61609e-12
1.52341e-12
1.43007e-12
1.3364e-12
1.24276e-12
1.14948e-12
1.05692e-12
9.65406e-13
8.75286e-13
7.86879e-13
7.005e-13
6.1646e-13
5.35066e-13
4.56636e-13
3.81511e-13
3.10075e-13
2.42794e-13
1.80262e-13
1.23298e-13
7.31211e-14
3.17738e-14
3.53359e-15
1.10692e-14
9.94718e-14
2.28362e-13
3.83464e-13
5.57174e-13
7.44231e-13
9.40459e-13
1.14227e-12
1.34647e-12
1.55011e-12
1.75051e-12
1.94521e-12
2.132e-12
2.30895e-12
2.47442e-12
2.6271e-12
2.76598e-12
2.8904e-12
3.00001e-12
3.09475e-12
3.17485e-12
3.24074e-12
3.29307e-12
3.33262e-12
3.36028e-12
3.37677e-12
3.38316e-12
3.38092e-12
3.37054e-12
3.35288e-12
3.32869e-12
3.29867e-12
3.26341e-12
3.22339e-12
3.17904e-12
3.13067e-12
3.07854e-12
3.02285e-12
2.96374e-12
2.90132e-12
2.83565e-12
2.7668e-12
2.69482e-12
2.61977e-12
2.54172e-12
2.46073e-12
2.37692e-12
2.29042e-12
2.20139e-12
2.11e-12
2.01649e-12
1.92109e-12
1.82409e-12
1.72578e-12
1.62648e-12
1.52654e-12
1.42631e-12
1.32615e-12
1.22642e-12
1.12749e-12
1.02972e-12
9.33463e-13
8.39061e-13
7.4685e-13
6.5716e-13
5.70318e-13
4.86661e-13
4.0655e-13
3.30393e-13
2.58682e-13
1.92046e-13
1.31353e-13
7.78958e-14
3.38478e-14
3.76427e-15
1.19975e-14
1.07816e-13
2.47532e-13
4.15683e-13
6.0404e-13
8.06904e-13
1.01974e-12
1.23866e-12
1.46015e-12
1.68101e-12
1.89827e-12
2.10922e-12
2.31144e-12
2.50277e-12
2.68141e-12
2.84591e-12
2.99517e-12
3.12847e-12
3.24545e-12
3.34606e-12
3.43058e-12
3.49952e-12
3.55361e-12
3.59375e-12
3.62094e-12
3.63588e-12
3.64019e-12
3.63507e-12
3.62122e-12
3.59958e-12
3.57102e-12
3.53628e-12
3.49603e-12
3.45081e-12
3.40106e-12
3.34716e-12
3.28939e-12
3.22794e-12
3.163e-12
3.09466e-12
3.02301e-12
2.94812e-12
2.87004e-12
2.78884e-12
2.70458e-12
2.61735e-12
2.52726e-12
2.43444e-12
2.33905e-12
2.24128e-12
2.14137e-12
2.03957e-12
1.93615e-12
1.83143e-12
1.72574e-12
1.61943e-12
1.51287e-12
1.40643e-12
1.30049e-12
1.19543e-12
1.09164e-12
9.89467e-13
8.89291e-13
7.91463e-13
6.9633e-13
6.0424e-13
5.15549e-13
4.30639e-13
3.49939e-13
2.73967e-13
2.03384e-13
1.39103e-13
8.24903e-14
3.58439e-14
3.98631e-15
1.29399e-14
1.16288e-13
2.66993e-13
4.48394e-13
6.51622e-13
8.70536e-13
1.10024e-12
1.33652e-12
1.57557e-12
1.81388e-12
2.04821e-12
2.27561e-12
2.49338e-12
2.69918e-12
2.89103e-12
3.06732e-12
3.22686e-12
3.36889e-12
3.49301e-12
3.59921e-12
3.68782e-12
3.75943e-12
3.81489e-12
3.85519e-12
3.88143e-12
3.89435e-12
3.89617e-12
3.88771e-12
3.86993e-12
3.84389e-12
3.81053e-12
3.77069e-12
3.72508e-12
3.67431e-12
3.61887e-12
3.55916e-12
3.49548e-12
3.42807e-12
3.3571e-12
3.2827e-12
3.20496e-12
3.12394e-12
3.03972e-12
2.95235e-12
2.86191e-12
2.76849e-12
2.67219e-12
2.57316e-12
2.47155e-12
2.36757e-12
2.26145e-12
2.15344e-12
2.04383e-12
1.93293e-12
1.82109e-12
1.70867e-12
1.59603e-12
1.48356e-12
1.37166e-12
1.26072e-12
1.15113e-12
1.04329e-12
9.37561e-13
8.34332e-13
7.33966e-13
6.3683e-13
5.433e-13
4.53776e-13
3.68711e-13
2.88644e-13
2.14271e-13
1.46546e-13
8.69033e-14
3.77614e-14
4.19964e-15
1.38944e-14
1.24867e-13
2.86703e-13
4.81522e-13
6.99812e-13
9.34982e-13
1.18177e-12
1.43563e-12
1.69244e-12
1.9484e-12
2.19999e-12
2.44396e-12
2.67739e-12
2.89771e-12
3.10275e-12
3.29076e-12
3.46046e-12
3.61102e-12
3.74203e-12
3.85353e-12
3.94587e-12
4.01978e-12
4.07618e-12
4.11621e-12
4.14094e-12
4.15152e-12
4.15037e-12
4.13811e-12
4.11597e-12
4.08511e-12
4.04657e-12
4.00125e-12
3.94995e-12
3.89333e-12
3.83191e-12
3.76614e-12
3.69635e-12
3.62279e-12
3.54565e-12
3.46507e-12
3.38115e-12
3.29397e-12
3.20359e-12
3.11008e-12
3.01352e-12
2.91398e-12
2.8116e-12
2.7065e-12
2.59884e-12
2.48884e-12
2.37671e-12
2.26272e-12
2.14715e-12
2.03033e-12
1.91259e-12
1.7943e-12
1.67584e-12
1.55761e-12
1.44e-12
1.32342e-12
1.20828e-12
1.09499e-12
9.83933e-13
8.75515e-13
7.70118e-13
6.6813e-13
5.69947e-13
4.75989e-13
3.8673e-13
3.02732e-13
2.24719e-13
1.53689e-13
9.11389e-14
3.96019e-14
4.40443e-15
1.48585e-14
1.33534e-13
3.06613e-13
5.14989e-13
7.48497e-13
1.00009e-12
1.26414e-12
1.53575e-12
1.81049e-12
2.08425e-12
2.35322e-12
2.61386e-12
2.863e-12
3.09784e-12
3.31602e-12
3.51564e-12
3.69534e-12
3.8542e-12
3.99184e-12
4.10831e-12
4.20404e-12
4.27983e-12
4.33676e-12
4.37609e-12
4.39879e-12
4.40676e-12
4.40209e-12
4.38562e-12
4.35872e-12
4.32266e-12
4.27857e-12
4.22745e-12
4.17015e-12
4.10739e-12
4.03976e-12
3.96772e-12
3.89165e-12
3.8118e-12
3.72839e-12
3.64157e-12
3.55144e-12
3.45809e-12
3.36158e-12
3.26199e-12
3.15939e-12
3.05387e-12
2.94554e-12
2.83454e-12
2.72102e-12
2.6052e-12
2.48729e-12
2.36756e-12
2.24628e-12
2.12379e-12
2.00041e-12
1.87652e-12
1.7525e-12
1.62874e-12
1.50567e-12
1.38369e-12
1.26323e-12
1.14471e-12
1.02853e-12
9.15123e-13
8.04886e-13
6.98227e-13
5.95563e-13
4.97337e-13
4.04042e-13
3.16264e-13
2.34754e-13
1.60548e-13
9.52066e-14
4.13696e-14
4.60115e-15
1.58301e-14
1.42267e-13
3.26677e-13
5.48714e-13
7.97559e-13
1.0657e-12
1.34714e-12
1.63663e-12
1.92942e-12
2.22108e-12
2.5075e-12
2.78486e-12
3.04972e-12
3.29904e-12
3.53026e-12
3.74136e-12
3.93085e-12
4.09779e-12
4.24176e-12
4.36286e-12
4.46161e-12
4.53891e-12
4.59594e-12
4.63411e-12
4.65435e-12
4.65936e-12
4.65074e-12
4.62966e-12
4.59763e-12
4.55601e-12
4.50605e-12
4.44882e-12
4.38527e-12
4.31615e-12
4.24212e-12
4.16366e-12
4.08117e-12
3.99495e-12
3.90522e-12
3.81214e-12
3.71581e-12
3.61634e-12
3.51378e-12
3.40821e-12
3.29971e-12
3.18835e-12
3.07425e-12
2.95754e-12
2.83838e-12
2.71697e-12
2.59351e-12
2.46828e-12
2.34155e-12
2.21363e-12
2.08486e-12
1.95562e-12
1.82628e-12
1.69725e-12
1.56894e-12
1.44178e-12
1.31621e-12
1.19265e-12
1.07155e-12
9.53325e-13
8.38414e-13
7.27244e-13
6.20254e-13
5.17906e-13
4.20715e-13
3.29291e-13
2.44412e-13
1.6715e-13
9.91209e-14
4.30706e-14
4.79048e-15
1.68065e-14
1.51044e-13
3.46843e-13
5.82613e-13
8.46874e-13
1.13165e-12
1.43056e-12
1.73801e-12
2.04891e-12
2.35853e-12
2.66243e-12
2.9565e-12
3.23703e-12
3.50074e-12
3.74489e-12
3.96729e-12
4.16635e-12
4.34109e-12
4.49109e-12
4.61649e-12
4.71789e-12
4.79631e-12
4.85306e-12
4.8896e-12
4.907e-12
4.90871e-12
4.89575e-12
4.8697e-12
4.83219e-12
4.78472e-12
4.72861e-12
4.66505e-12
4.59503e-12
4.51939e-12
4.43881e-12
4.35383e-12
4.26488e-12
4.17226e-12
4.07621e-12
3.9769e-12
3.87445e-12
3.76895e-12
3.66046e-12
3.54907e-12
3.43482e-12
3.31781e-12
3.19815e-12
3.07595e-12
2.95136e-12
2.82459e-12
2.69583e-12
2.56533e-12
2.43338e-12
2.30029e-12
2.16637e-12
2.03201e-12
1.89758e-12
1.76348e-12
1.63015e-12
1.49801e-12
1.36751e-12
1.23909e-12
1.11322e-12
9.90331e-13
8.70889e-13
7.55342e-13
6.44152e-13
5.37805e-13
4.36837e-13
3.41882e-13
2.53742e-13
1.73525e-13
1.02901e-13
4.4713e-14
4.9733e-15
1.77854e-14
1.59843e-13
3.67059e-13
6.16596e-13
8.96313e-13
1.19777e-12
1.51418e-12
1.83962e-12
2.16866e-12
2.49623e-12
2.81757e-12
3.1283e-12
3.4244e-12
3.70238e-12
3.95928e-12
4.19277e-12
4.40116e-12
4.58342e-12
4.73914e-12
4.86849e-12
4.97219e-12
5.05135e-12
5.10746e-12
5.14187e-12
5.15626e-12
5.15421e-12
5.13659e-12
5.10527e-12
5.06201e-12
5.00843e-12
4.94596e-12
4.87588e-12
4.79926e-12
4.71699e-12
4.62981e-12
4.53828e-12
4.44286e-12
4.34388e-12
4.24158e-12
4.13615e-12
4.0277e-12
3.91632e-12
3.80208e-12
3.68503e-12
3.56526e-12
3.44281e-12
3.3178e-12
3.19034e-12
3.06056e-12
2.92866e-12
2.79483e-12
2.65931e-12
2.52237e-12
2.38431e-12
2.24546e-12
2.10618e-12
1.96686e-12
1.82789e-12
1.68971e-12
1.55275e-12
1.41747e-12
1.28434e-12
1.15382e-12
1.0264e-12
9.02533e-13
7.82711e-13
6.67419e-13
5.57166e-13
4.52513e-13
3.54116e-13
2.62803e-13
1.79713e-13
1.06568e-13
4.63064e-14
5.15069e-15
1.8764e-14
1.6864e-13
3.8727e-13
6.50574e-13
9.45743e-13
1.26387e-12
1.59778e-12
1.94118e-12
2.28831e-12
2.63377e-12
2.97249e-12
3.29975e-12
3.6113e-12
3.90337e-12
4.17281e-12
4.41715e-12
4.6346e-12
4.82408e-12
4.98519e-12
5.11817e-12
5.22381e-12
5.30336e-12
5.35846e-12
5.39033e-12
5.40159e-12
5.39537e-12
5.37281e-12
5.33597e-12
5.28674e-12
5.22687e-12
5.1579e-12
5.0812e-12
4.99791e-12
4.90898e-12
4.81519e-12
4.71716e-12
4.61535e-12
4.51012e-12
4.40171e-12
4.29032e-12
4.17605e-12
4.059e-12
3.93922e-12
3.81677e-12
3.69169e-12
3.56405e-12
3.43393e-12
3.30145e-12
3.16672e-12
3.02991e-12
2.89123e-12
2.75089e-12
2.60916e-12
2.46634e-12
2.32274e-12
2.17872e-12
2.03467e-12
1.89098e-12
1.74808e-12
1.60643e-12
1.4665e-12
1.32875e-12
1.19369e-12
1.0618e-12
9.33592e-13
8.09564e-13
6.90234e-13
5.76137e-13
4.6786e-13
3.66083e-13
2.71658e-13
1.85757e-13
1.10149e-13
4.78618e-14
5.32387e-15
1.97397e-14
1.7741e-13
4.07421e-13
6.8445e-13
9.95026e-13
1.32977e-12
1.68111e-12
2.0424e-12
2.40754e-12
2.77077e-12
3.12671e-12
3.47035e-12
3.79714e-12
4.10308e-12
4.38483e-12
4.63975e-12
4.86596e-12
5.06235e-12
5.22854e-12
5.36481e-12
5.47207e-12
5.55168e-12
5.60544e-12
5.63446e-12
5.6424e-12
5.63172e-12
5.60401e-12
5.56146e-12
5.50612e-12
5.43985e-12
5.36432e-12
5.28097e-12
5.19102e-12
5.09548e-12
4.99518e-12
4.89077e-12
4.78273e-12
4.67143e-12
4.55712e-12
4.44e-12
4.32017e-12
4.1977e-12
4.07265e-12
3.94505e-12
3.81494e-12
3.68237e-12
3.5474e-12
3.41013e-12
3.27067e-12
3.12918e-12
2.98585e-12
2.84088e-12
2.69453e-12
2.5471e-12
2.3989e-12
2.25027e-12
2.1016e-12
1.95329e-12
1.80578e-12
1.65953e-12
1.51501e-12
1.37271e-12
1.23315e-12
1.09685e-12
9.64333e-13
8.3613e-13
7.1279e-13
5.94877e-13
4.83005e-13
3.7788e-13
2.8038e-13
1.91705e-13
1.13671e-13
4.9391e-14
5.49414e-15
2.07096e-14
1.86129e-13
4.27455e-13
7.1813e-13
1.04402e-12
1.39528e-12
1.76394e-12
2.14299e-12
2.52596e-12
2.9068e-12
3.27977e-12
3.63957e-12
3.98136e-12
4.30091e-12
4.59467e-12
4.85987e-12
5.09454e-12
5.29753e-12
5.46848e-12
5.60774e-12
5.7163e-12
5.7957e-12
5.8478e-12
5.87375e-12
5.87817e-12
5.86286e-12
5.82985e-12
5.78149e-12
5.71997e-12
5.64728e-12
5.5652e-12
5.47526e-12
5.37875e-12
5.27674e-12
5.17011e-12
5.05952e-12
4.94549e-12
4.82838e-12
4.70847e-12
4.58591e-12
4.46082e-12
4.33326e-12
4.20325e-12
4.07081e-12
3.93596e-12
3.79873e-12
3.65917e-12
3.51736e-12
3.37339e-12
3.22741e-12
3.07958e-12
2.93013e-12
2.7793e-12
2.62737e-12
2.47465e-12
2.3215e-12
2.16828e-12
2.01542e-12
1.86334e-12
1.71252e-12
1.56345e-12
1.41662e-12
1.27258e-12
1.13186e-12
9.95032e-13
8.62648e-13
7.35288e-13
6.13552e-13
4.98081e-13
3.8961e-13
2.89043e-13
1.97607e-13
1.17163e-13
5.09066e-14
5.6629e-15
2.1671e-14
1.94771e-13
4.47313e-13
7.51514e-13
1.09259e-12
1.46021e-12
1.84601e-12
2.24263e-12
2.64324e-12
3.04144e-12
3.43119e-12
3.80686e-12
4.16336e-12
4.49621e-12
4.80167e-12
5.07683e-12
5.31964e-12
5.52891e-12
5.7043e-12
5.84626e-12
5.95588e-12
6.03483e-12
6.08493e-12
6.1077e-12
6.10848e-12
6.08842e-12
6.05004e-12
5.99584e-12
5.92817e-12
5.84913e-12
5.76061e-12
5.66422e-12
5.56135e-12
5.45311e-12
5.34041e-12
5.22395e-12
5.10424e-12
4.98168e-12
4.85651e-12
4.72889e-12
4.59891e-12
4.46661e-12
4.332e-12
4.19506e-12
4.05579e-12
3.9142e-12
3.77031e-12
3.62418e-12
3.4759e-12
3.32559e-12
3.17342e-12
3.01959e-12
2.86435e-12
2.70797e-12
2.55078e-12
2.39312e-12
2.23537e-12
2.07795e-12
1.92131e-12
1.76591e-12
1.61225e-12
1.46087e-12
1.31232e-12
1.16715e-12
1.02597e-12
8.89355e-13
7.57932e-13
6.3233e-13
5.13224e-13
4.01377e-13
2.97721e-13
2.03513e-13
1.20654e-13
5.2421e-14
5.83153e-15
2.2621e-14
2.03311e-13
4.66937e-13
7.84506e-13
1.14058e-12
1.52436e-12
1.92709e-12
2.34102e-12
2.759e-12
3.17427e-12
3.58048e-12
3.9717e-12
4.34256e-12
4.68835e-12
5.00516e-12
5.28993e-12
5.54054e-12
5.75577e-12
5.93532e-12
6.0797e-12
6.19012e-12
6.26842e-12
6.31627e-12
6.33603e-12
6.3329e-12
6.30808e-12
6.26436e-12
6.2044e-12
6.13068e-12
6.04545e-12
5.9507e-12
5.84813e-12
5.73918e-12
5.62503e-12
5.50662e-12
5.38467e-12
5.25971e-12
5.13211e-12
5.00212e-12
4.86987e-12
4.73544e-12
4.59882e-12
4.46e-12
4.31893e-12
4.17558e-12
4.02992e-12
3.88196e-12
3.73173e-12
3.57931e-12
3.4248e-12
3.26837e-12
3.11022e-12
2.95059e-12
2.78977e-12
2.62807e-12
2.46587e-12
2.30354e-12
2.1415e-12
1.98022e-12
1.82017e-12
1.66188e-12
1.50587e-12
1.35272e-12
1.20303e-12
1.05741e-12
9.16487e-13
7.8092e-13
6.51375e-13
5.28563e-13
4.13281e-13
3.06489e-13
2.09472e-13
1.24174e-13
5.39467e-14
6.00141e-15
2.35568e-14
2.11724e-13
4.86268e-13
8.17005e-13
1.18785e-12
1.58754e-12
2.00692e-12
2.43786e-12
2.87287e-12
3.30486e-12
3.72716e-12
4.13354e-12
4.51836e-12
4.87671e-12
5.20448e-12
5.49849e-12
5.75654e-12
5.97742e-12
6.16084e-12
6.3074e-12
6.41843e-12
6.49591e-12
6.54142e-12
6.55823e-12
6.55112e-12
6.5216e-12
6.47264e-12
6.40708e-12
6.32754e-12
6.23638e-12
6.1357e-12
6.0273e-12
5.91266e-12
5.79303e-12
5.66936e-12
5.5424e-12
5.41267e-12
5.28054e-12
5.14623e-12
5.00986e-12
4.87145e-12
4.73098e-12
4.58839e-12
4.44359e-12
4.29651e-12
4.14709e-12
3.99532e-12
3.84119e-12
3.68477e-12
3.52615e-12
3.36551e-12
3.20303e-12
3.03897e-12
2.87363e-12
2.70734e-12
2.54048e-12
2.37344e-12
2.20666e-12
2.04062e-12
1.8758e-12
1.71273e-12
1.55197e-12
1.39412e-12
1.23978e-12
1.0896e-12
9.44262e-13
8.04437e-13
6.70842e-13
5.44225e-13
4.2542e-13
3.15417e-13
2.15533e-13
1.27749e-13
5.54955e-14
6.17384e-15
2.44756e-14
2.19983e-13
5.05249e-13
8.48916e-13
1.23426e-12
1.64956e-12
2.08525e-12
2.53285e-12
2.9845e-12
3.4328e-12
3.87074e-12
4.29184e-12
4.69019e-12
5.06065e-12
5.39896e-12
5.70182e-12
5.96697e-12
6.19318e-12
6.38021e-12
6.52874e-12
6.64023e-12
6.71679e-12
6.75993e-12
6.77388e-12
6.76285e-12
6.72877e-12
6.67479e-12
6.60389e-12
6.51883e-12
6.42211e-12
6.31592e-12
6.20212e-12
6.08229e-12
5.95769e-12
5.82931e-12
5.6979e-12
5.56398e-12
5.4279e-12
5.28985e-12
5.14991e-12
5.00808e-12
4.86427e-12
4.71837e-12
4.57026e-12
4.41982e-12
4.26696e-12
4.11162e-12
3.95377e-12
3.79347e-12
3.6308e-12
3.46592e-12
3.29906e-12
3.13046e-12
2.96046e-12
2.7894e-12
2.61768e-12
2.44574e-12
2.27402e-12
2.10301e-12
1.93323e-12
1.76521e-12
1.59954e-12
1.43681e-12
1.27767e-12
1.12279e-12
9.72879e-13
8.28654e-13
6.90872e-13
5.60324e-13
4.37881e-13
3.24569e-13
2.21738e-13
1.31406e-13
5.70781e-14
6.35003e-15
2.53747e-14
2.28066e-13
5.23824e-13
8.80142e-13
1.27967e-12
1.71023e-12
2.16184e-12
2.62568e-12
3.09353e-12
3.55766e-12
4.01077e-12
4.44608e-12
4.85746e-12
5.23957e-12
5.58797e-12
5.89928e-12
6.17116e-12
6.4024e-12
6.5928e-12
6.74312e-12
6.85496e-12
6.93059e-12
6.97142e-12
6.98261e-12
6.96784e-12
6.92945e-12
6.87074e-12
6.79486e-12
6.70471e-12
6.6029e-12
6.4917e-12
6.37307e-12
6.24862e-12
6.11967e-12
5.98721e-12
5.85199e-12
5.71454e-12
5.57515e-12
5.43401e-12
5.29113e-12
5.14645e-12
4.99985e-12
4.85116e-12
4.7002e-12
4.54679e-12
4.3908e-12
4.23212e-12
4.07072e-12
3.90662e-12
3.7399e-12
3.57074e-12
3.39936e-12
3.22604e-12
3.05115e-12
2.87506e-12
2.69822e-12
2.52108e-12
2.34414e-12
2.1679e-12
1.9929e-12
1.81969e-12
1.64888e-12
1.48107e-12
1.31694e-12
1.15718e-12
1.00251e-12
8.5372e-13
7.1159e-13
5.7696e-13
4.50743e-13
3.34004e-13
2.28125e-13
1.35166e-13
5.87042e-14
6.53104e-15
2.62514e-14
2.35948e-13
5.41938e-13
9.10592e-13
1.32395e-12
1.76936e-12
2.23647e-12
2.71607e-12
3.19962e-12
3.67905e-12
4.14678e-12
4.59576e-12
5.01964e-12
5.41287e-12
5.77089e-12
6.09022e-12
6.36848e-12
6.60446e-12
6.79802e-12
6.95001e-12
7.06215e-12
7.13685e-12
7.17553e-12
7.18415e-12
7.1659e-12
7.12353e-12
7.06051e-12
6.98012e-12
6.88539e-12
6.77904e-12
6.66345e-12
6.54063e-12
6.41225e-12
6.27963e-12
6.14381e-12
6.00552e-12
5.86525e-12
5.72329e-12
5.57975e-12
5.4346e-12
5.28773e-12
5.13893e-12
4.98799e-12
4.83464e-12
4.67866e-12
4.51986e-12
4.3581e-12
4.19329e-12
4.02545e-12
3.85466e-12
3.68109e-12
3.50501e-12
3.32672e-12
3.14663e-12
2.96518e-12
2.78284e-12
2.60014e-12
2.4176e-12
2.23577e-12
2.05521e-12
1.87652e-12
1.70028e-12
1.52715e-12
1.35779e-12
1.19292e-12
1.03331e-12