/*--------------------------------*- C++ -*----------------------------------*\
  =========                 |
  \\      /  F ield         | OpenFOAM: The Open Source CFD Toolbox
   \\    /   O peration     | Website:  https://openfoam.org
    \\  /    A nd           | Version:  12
     \\/     M anipulation  |
\*---------------------------------------------------------------------------*/
FoamFile
{
    format      ascii;
    class       surfaceScalarField;
    location    "3.5";
    object      phi;
}
// * * * * * * * * * * * * * * * * * * * * * * * * * * * * * * * * * * * * * //

dimensions      [0 3 -1 0 0 0 0];

internalField   nonuniform List<scalar> 
11100
(
2.94211e-10
-2.94279e-10
7.43405e-10
-4.49189e-10
1.06562e-09
-3.2221e-10
1.10717e-09
-4.15565e-11
8.0123e-10
3.05944e-10
1.28903e-10
6.72326e-10
-9.01672e-10
1.03057e-09
-2.26753e-09
1.36585e-09
-3.93804e-09
1.67052e-09
-5.87931e-09
1.94127e-09
-8.05673e-09
2.17741e-09
-1.04365e-08
2.37974e-09
-1.29864e-08
2.5499e-09
-1.56763e-08
2.68995e-09
-1.84784e-08
2.80207e-09
-2.13668e-08
2.88842e-09
-2.43178e-08
2.95098e-09
-2.73093e-08
2.99149e-09
-3.03207e-08
3.01142e-09
-3.33326e-08
3.01195e-09
-3.63266e-08
2.99396e-09
-3.92847e-08
2.95809e-09
-4.21894e-08
2.90471e-09
-4.50234e-08
2.834e-09
-4.77694e-08
2.74599e-09
-5.041e-08
2.64058e-09
-5.29276e-08
2.51763e-09
-5.53046e-08
2.37698e-09
-5.75231e-08
2.21849e-09
-5.95652e-08
2.04214e-09
-6.14132e-08
1.84801e-09
-6.30496e-08
1.63638e-09
-6.44574e-08
1.40772e-09
-6.56201e-08
1.16277e-09
-6.65226e-08
9.02508e-10
-6.71508e-08
6.28204e-10
-6.74923e-08
3.41497e-10
-6.75371e-08
4.47609e-11
-6.72765e-08
-2.60633e-10
-6.6705e-08
-5.71485e-10
-6.58199e-08
-8.85082e-10
-6.46216e-08
-1.19829e-09
-6.31139e-08
-1.50774e-09
-6.1304e-08
-1.80986e-09
-5.92031e-08
-2.10095e-09
-5.68259e-08
-2.37723e-09
-5.4191e-08
-2.63489e-09
-5.13208e-08
-2.87021e-09
-4.82412e-08
-3.07957e-09
-4.49816e-08
-3.25958e-09
-4.15745e-08
-3.40712e-09
-3.80551e-08
-3.51945e-09
-3.44608e-08
-3.59424e-09
-3.08311e-08
-3.62968e-09
-2.72066e-08
-3.6245e-09
-2.36286e-08
-3.578e-09
-2.01385e-08
-3.49015e-09
-1.6777e-08
-3.36154e-09
-1.35835e-08
-3.19343e-09
-1.05958e-08
-2.98775e-09
-7.84867e-09
-2.7471e-09
-5.37395e-09
-2.47472e-09
-3.19942e-09
-2.17453e-09
-1.34827e-09
-1.85116e-09
1.61695e-10
-1.50996e-09
1.31894e-09
-1.15725e-09
2.11936e-09
-8.00423e-10
2.56791e-09
-4.48544e-10
2.68092e-09
-1.13012e-10
2.48968e-09
1.91236e-10
2.04585e-09
4.43833e-10
1.42946e-09
6.16387e-10
7.61015e-10
6.68446e-10
2.16889e-10
5.44124e-10
2.16889e-10
4.52463e-10
-7.46735e-10
1.00904e-09
-1.00576e-09
1.15416e-09
-4.67323e-10
5.95638e-10
5.16961e-10
-8.1733e-10
1.71891e-09
-3.14101e-09
2.996e-09
-6.37041e-09
4.25997e-09
-1.04623e-08
5.45774e-09
-1.53508e-08
6.55905e-09
-2.09579e-08
7.54834e-09
-2.72e-08
8.41949e-09
-3.39925e-08
9.17227e-09
-4.12527e-08
9.81006e-09
-4.8901e-08
1.03383e-08
-5.68622e-08
1.07633e-08
-6.50654e-08
1.10917e-08
-7.34442e-08
1.13298e-08
-8.19361e-08
1.14833e-08
-9.04819e-08
1.15573e-08
-9.90256e-08
1.15556e-08
-1.07513e-07
1.14816e-08
-1.15892e-07
1.13374e-08
-1.24112e-07
1.11246e-08
-1.32122e-07
1.08441e-08
-1.39873e-07
1.04961e-08
-1.47313e-07
1.00808e-08
-1.54393e-07
9.59784e-09
-1.61063e-07
9.04708e-09
-1.67273e-07
8.42849e-09
-1.72973e-07
7.74236e-09
-1.78115e-07
6.98951e-09
-1.8265e-07
6.17136e-09
-1.86532e-07
5.29016e-09
-1.89719e-07
4.34902e-09
-1.92168e-07
3.35204e-09
-1.93844e-07
2.30433e-09
-1.94715e-07
1.21223e-09
-1.94754e-07
8.3907e-11
-1.93942e-07
-1.07317e-09
-1.92264e-07
-2.24879e-09
-1.89717e-07
-3.43224e-09
-1.86304e-07
-4.61185e-09
-1.82036e-07
-5.77517e-09
-1.76937e-07
-6.90907e-09
-1.71038e-07
-7.99998e-09
-1.64381e-07
-9.03408e-09
-1.57018e-07
-9.99755e-09
-1.49012e-07
-1.08768e-08
-1.40433e-07
-1.16588e-08
-1.31361e-07
-1.23313e-08
-1.21885e-07
-1.2883e-08
-1.121e-07
-1.33042e-08
-1.02108e-07
-1.35864e-08
-9.20143e-08
-1.37233e-08
-8.19285e-08
-1.37104e-08
-7.19612e-08
-1.35452e-08
-6.22235e-08
-1.32279e-08
-5.28243e-08
-1.27607e-08
-4.38691e-08
-1.21486e-08
-3.54581e-08
-1.13988e-08
-2.7684e-08
-1.05211e-08
-2.06308e-08
-9.52793e-09
-1.43713e-08
-8.43406e-09
-8.96534e-09
-7.25711e-09
-4.4577e-09
-6.0176e-09
-8.75524e-10
-4.73943e-09
1.77473e-09
-3.45068e-09
3.51108e-09
-2.1849e-09
4.38119e-09
-9.83125e-10
4.46926e-09
1.03173e-10
3.90522e-09
1.00786e-09
2.87676e-09
1.64485e-09
1.64287e-09
1.90233e-09
5.42675e-10
1.64431e-09
7.59563e-10
3.29924e-10
-1.07666e-09
4.77981e-10
-1.15382e-09
-1.13207e-10
1.23865e-10
-1.77782e-09
2.18157e-09
-4.70016e-09
4.64125e-09
-8.9557e-09
7.25154e-09
-1.4543e-08
9.8473e-09
-2.14086e-08
1.23234e-08
-2.94654e-08
1.46158e-08
-3.86058e-08
1.66888e-08
-4.87117e-08
1.85254e-08
-5.96604e-08
2.01211e-08
-7.13298e-08
2.14794e-08
-8.36002e-08
2.26087e-08
-9.63569e-08
2.35199e-08
-1.0949e-07
2.42249e-08
-1.22896e-07
2.47355e-08
-1.36475e-07
2.50627e-08
-1.50134e-07
2.52159e-08
-1.63782e-07
2.52033e-08
-1.77331e-07
2.50313e-08
-1.90699e-07
2.47046e-08
-2.03801e-07
2.42266e-08
-2.16556e-07
2.35992e-08
-2.28883e-07
2.28237e-08
-2.40703e-07
2.19004e-08
-2.51934e-07
2.08295e-08
-2.62499e-07
1.96112e-08
-2.72316e-07
1.82461e-08
-2.81309e-07
1.67355e-08
-2.89402e-07
1.50819e-08
-2.96519e-07
1.3289e-08
-3.02592e-07
1.13623e-08
-3.07551e-07
9.30896e-09
-3.11338e-07
7.13845e-09
-3.13896e-07
4.86232e-09
-3.15178e-07
2.49455e-09
-3.15146e-07
5.16648e-11
-3.13771e-07
-2.44819e-09
-3.11036e-07
-4.98404e-09
-3.06935e-07
-7.53293e-09
-3.01477e-07
-1.007e-08
-2.94683e-07
-1.25689e-08
-2.8659e-07
-1.50019e-08
-2.7725e-07
-1.73404e-08
-2.66728e-07
-1.95554e-08
-2.55108e-07
-2.16179e-08
-2.42485e-07
-2.34997e-08
-2.28971e-07
-2.51734e-08
-2.14688e-07
-2.66135e-08
-1.99775e-07
-2.77968e-08
-1.84376e-07
-2.87027e-08
-1.68648e-07
-2.93142e-08
-1.52754e-07
-2.96177e-08
-1.3686e-07
-2.96042e-08
-1.21136e-07
-2.92691e-08
-1.05752e-07
-2.86124e-08
-9.08729e-08
-2.76396e-08
-7.66606e-08
-2.63609e-08
-6.32673e-08
-2.47922e-08
-5.0834e-08
-2.29544e-08
-3.94878e-08
-2.08741e-08
-2.93385e-08
-1.85833e-08
-2.04758e-08
-1.61198e-08
-1.29658e-08
-1.35277e-08
-6.84721e-09
-1.0858e-08
-2.12744e-09
-8.17045e-09
1.22282e-09
-5.53517e-09
3.27566e-09
-3.03596e-09
4.15352e-09
-7.7469e-10
4.03844e-09
1.12295e-09
3.18243e-09
2.50086e-09
1.91821e-09
3.16655e-09
6.71048e-10
2.89148e-09
1.43061e-09
4.92915e-11
-1.12594e-09
-5.18331e-10
-5.86192e-10
-2.20585e-09
1.81139e-09
-5.32924e-09
5.30496e-09
-1.00661e-08
9.37811e-09
-1.64885e-08
1.3674e-08
-2.45891e-08
1.79479e-08
-3.43033e-08
2.20376e-08
-4.55271e-08
2.58396e-08
-5.81311e-08
2.92927e-08
-7.19707e-08
3.23649e-08
-8.68941e-08
3.50445e-08
-1.02748e-07
3.73331e-08
-1.1938e-07
3.92407e-08
-1.36642e-07
4.07824e-08
-1.54393e-07
4.19752e-08
-1.72494e-07
4.28367e-08
-1.90815e-07
4.33836e-08
-2.09229e-07
4.36307e-08
-2.27617e-07
4.35907e-08
-2.45859e-07
4.32737e-08
-2.63842e-07
4.26878e-08
-2.81454e-07
4.18383e-08
-2.98584e-07
4.07292e-08
-3.15123e-07
3.93627e-08
-3.30963e-07
3.77403e-08
-3.45997e-07
3.58629e-08
-3.60117e-07
3.37318e-08
-3.7322e-07
3.13489e-08
-3.85202e-07
2.87175e-08
-3.95963e-07
2.58426e-08
-4.05405e-07
2.27316e-08
-4.13438e-07
1.93947e-08
-4.19974e-07
1.58452e-08
-4.24935e-07
1.20999e-08
-4.28252e-07
8.17907e-09
-4.29865e-07
4.10703e-09
-4.29725e-07
-8.80791e-11
-4.27798e-07
-4.37457e-09
-4.24066e-07
-8.71691e-09
-4.18522e-07
-1.30762e-08
-4.11182e-07
-1.74105e-08
-4.02076e-07
-2.16753e-08
-3.91253e-07
-2.58241e-08
-3.78785e-07
-2.9809e-08
-3.64759e-07
-3.35816e-08
-3.49283e-07
-3.70937e-08
-3.32485e-07
-4.02979e-08
-3.14509e-07
-4.3149e-08
-2.95518e-07
-4.56046e-08
-2.75689e-07
-4.76261e-08
-2.55212e-07
-4.91796e-08
-2.34289e-07
-5.02367e-08
-2.13132e-07
-5.07754e-08
-1.91955e-07
-5.07805e-08
-1.7098e-07
-5.02446e-08
-1.50424e-07
-4.91682e-08
-1.30503e-07
-4.75606e-08
-1.11425e-07
-4.54393e-08
-9.33855e-08
-4.28312e-08
-7.65679e-08
-3.9772e-08
-6.11353e-08
-3.63067e-08
-4.72292e-08
-3.24895e-08
-3.49645e-08
-2.83845e-08
-2.44258e-08
-2.40664e-08
-1.56626e-08
-1.96212e-08
-8.68465e-09
-1.51484e-08
-3.45627e-09
-1.07635e-08
1.09871e-10
-6.6021e-09
2.15975e-09
-2.82457e-09
2.9058e-09
3.76906e-10
2.63552e-09
2.77114e-09
1.72109e-09
4.08098e-09
6.35617e-10
3.97695e-09
2.06623e-09
-3.0906e-10
-8.1688e-10
-1.77313e-09
8.7788e-10
-4.78871e-09
4.82696e-09
-9.61262e-09
1.01289e-08
-1.63868e-08
1.61523e-08
-2.51599e-08
2.2447e-08
-3.59066e-08
2.86946e-08
-4.85458e-08
3.46767e-08
-6.29558e-08
4.02496e-08
-7.89876e-08
4.53245e-08
-9.6475e-08
4.98523e-08
-1.15242e-07
5.38117e-08
-1.3511e-07
5.72009e-08
-1.55899e-07
6.00303e-08
-1.77435e-07
6.23182e-08
-1.99547e-07
6.40865e-08
-2.22068e-07
6.53584e-08
-2.44841e-07
6.61562e-08
-2.6771e-07
6.65002e-08
-2.90528e-07
6.64079e-08
-3.13148e-07
6.58937e-08
-3.35429e-07
6.49688e-08
-3.57232e-07
6.36416e-08
-3.78421e-07
6.1918e-08
-3.9886e-07
5.98019e-08
-4.18416e-07
5.72962e-08
-4.36956e-07
5.44034e-08
-4.54351e-07
5.11264e-08
-4.70471e-07
4.74692e-08
-4.85192e-07
4.34381e-08
-4.98391e-07
3.90418e-08
-5.09952e-07
3.42928e-08
-5.19765e-07
2.92076e-08
-5.27727e-07
2.3807e-08
-5.33744e-07
1.81173e-08
-5.37735e-07
1.21699e-08
-5.3963e-07
6.00179e-09
-5.39373e-07
-3.44542e-10
-5.36927e-07
-6.8211e-09
-5.32269e-07
-1.33746e-08
-5.25398e-07
-1.99471e-08
-5.16333e-07
-2.64759e-08
-5.05113e-07
-3.28952e-08
-4.91801e-07
-3.9136e-08
-4.76482e-07
-4.51276e-08
-4.59266e-07
-5.07985e-08
-4.40282e-07
-5.60776e-08
-4.19684e-07
-6.08954e-08
-3.97648e-07
-6.51855e-08
-3.74367e-07
-6.88855e-08
-3.50054e-07
-7.19388e-08
-3.24938e-07
-7.42957e-08
-2.9926e-07
-7.59146e-08
-2.73272e-07
-7.67632e-08
-2.47233e-07
-7.68194e-08
-2.21405e-07
-7.60725e-08
-1.9605e-07
-7.45235e-08
-1.71425e-07
-7.21861e-08
-1.47777e-07
-6.90867e-08
-1.25343e-07
-6.52652e-08
-1.04341e-07
-6.07748e-08
-8.49649e-08
-5.56824e-08
-6.73854e-08
-5.00689e-08
-5.17404e-08
-4.40296e-08
-3.81318e-08
-3.7675e-08
-2.66209e-08
-3.11321e-08
-1.72228e-08
-2.45465e-08
-9.90102e-09
-1.80853e-08
-4.56187e-09
-1.19412e-08
-1.04829e-09
-6.33815e-09
8.66606e-10
-1.538e-09
1.48645e-09
2.15129e-09
1.20004e-09
4.36738e-09
4.96503e-10
4.68049e-09
2.56273e-09
-7.02615e-10
-1.14261e-10
-3.1621e-09
3.33736e-09
-7.64657e-09
9.31143e-09
-1.43291e-08
1.68114e-08
-2.32951e-08
2.51183e-08
-3.45534e-08
3.37053e-08
-4.80494e-08
4.21906e-08
-6.36784e-08
5.03056e-08
-8.12978e-08
5.7869e-08
-1.00739e-07
6.47653e-08
-1.21814e-07
7.09279e-08
-1.44328e-07
7.63253e-08
-1.68078e-07
8.09511e-08
-1.92863e-07
8.48157e-08
-2.18485e-07
8.79397e-08
-2.44748e-07
9.03492e-08
-2.71462e-07
9.20727e-08
-2.98444e-07
9.31379e-08
-3.25514e-07
9.35706e-08
-3.52499e-07
9.3393e-08
-3.7923e-07
9.26239e-08
-4.05539e-07
9.12781e-08
-4.31264e-07
8.93668e-08
-4.56244e-07
8.68983e-08
-4.80321e-07
8.38789e-08
-5.03338e-07
8.03132e-08
-5.25141e-07
7.62058e-08
-5.45576e-07
7.1562e-08
-5.64496e-07
6.63888e-08
-5.81754e-07
6.06963e-08
-5.97211e-07
5.44983e-08
-6.10731e-07
4.78134e-08
-6.22189e-07
4.06658e-08
-6.31468e-07
3.30859e-08
-6.38462e-07
2.51111e-08
-6.43078e-07
1.67857e-08
-6.45238e-07
8.16173e-09
-6.44881e-07
-7.01435e-10
-6.41965e-07
-9.73716e-09
-6.36468e-07
-1.88718e-08
-6.2839e-07
-2.80252e-08
-6.17754e-07
-3.71117e-08
-6.04608e-07
-4.60405e-08
-5.89027e-07
-5.47175e-08
-5.71108e-07
-6.30462e-08
-5.50978e-07
-7.09288e-08
-5.28787e-07
-7.82686e-08
-5.04712e-07
-8.49709e-08
-4.78952e-07
-9.09452e-08
-4.51731e-07
-9.61068e-08
-4.23291e-07
-1.00379e-07
-3.93893e-07
-1.03693e-07
-3.63814e-07
-1.05994e-07
-3.3334e-07
-1.07237e-07
-3.02768e-07
-1.07391e-07
-2.72397e-07
-1.06444e-07
-2.42526e-07
-1.04395e-07
-2.13449e-07
-1.01263e-07
-1.8545e-07
-9.70852e-08
-1.588e-07
-9.19155e-08
-1.33748e-07
-8.58269e-08
-1.10519e-07
-7.89111e-08
-8.93092e-08
-7.12789e-08
-7.02783e-08
-6.30605e-08
-5.35466e-08
-5.44066e-08
-3.9189e-08
-4.54897e-08
-2.72297e-08
-3.65059e-08
-1.76371e-08
-2.76779e-08
-1.0319e-08
-1.92593e-08
-5.11719e-09
-1.154e-08
-1.80242e-09
-4.85277e-09
-6.93766e-11
4.18247e-10
4.6976e-10
3.82825e-09
2.95386e-10
4.85486e-09
2.85812e-09
-1.10836e-09
9.94099e-10
-4.61061e-09
6.83961e-09
-1.06416e-08
1.53424e-08
-1.92779e-08
2.54478e-08
-3.05346e-08
3.6375e-08
-4.43687e-08
4.75394e-08
-6.06864e-08
5.85083e-08
-7.93525e-08
6.89717e-08
-1.00199e-07
7.87158e-08
-1.23035e-07
8.76015e-08
-1.47654e-07
9.55463e-08
-1.73838e-07
1.02509e-07
-2.01366e-07
1.08479e-07
-2.30017e-07
1.13467e-07
-2.59571e-07
1.17494e-07
-2.89812e-07
1.2059e-07
-3.20529e-07
1.2279e-07
-3.51518e-07
1.24126e-07
-3.82576e-07
1.24629e-07
-4.13508e-07
1.24326e-07
-4.44124e-07
1.23239e-07
-4.74234e-07
1.21388e-07
-5.03655e-07
1.18787e-07
-5.32203e-07
1.15447e-07
-5.597e-07
1.11376e-07
-5.85968e-07
1.06581e-07
-6.10833e-07
1.0107e-07
-6.34122e-07
9.48512e-08
-6.55668e-07
8.7935e-08
-6.75308e-07
8.03362e-08
-6.92885e-07
7.20749e-08
-7.08248e-07
6.31769e-08
-7.21258e-07
5.36757e-08
-7.31785e-07
4.36126e-08
-7.39711e-07
3.30376e-08
-7.44936e-07
2.201e-08
-7.47373e-07
1.05987e-08
-7.46956e-07
-1.11823e-09
-7.4364e-07
-1.30531e-08
-7.37402e-07
-2.51097e-08
-7.28244e-07
-3.71836e-08
-7.16192e-07
-4.9163e-08
-7.01302e-07
-6.09303e-08
-6.83656e-07
-7.23635e-08
-6.63365e-07
-8.33373e-08
-6.40568e-07
-9.37257e-08
-6.15434e-07
-1.03403e-07
-5.88157e-07
-1.12248e-07
-5.58959e-07
-1.20143e-07
-5.28088e-07
-1.26978e-07
-4.95813e-07
-1.32654e-07
-4.62422e-07
-1.37084e-07
-4.28223e-07
-1.40194e-07
-3.93533e-07
-1.41927e-07
-3.5868e-07
-1.42244e-07
-3.23999e-07
-1.41125e-07
-2.8982e-07
-1.38573e-07
-2.56473e-07
-1.34611e-07
-2.24273e-07
-1.29285e-07
-1.93523e-07
-1.22665e-07
-1.64503e-07
-1.14847e-07
-1.37466e-07
-1.05948e-07
-1.12633e-07
-9.61119e-08
-9.01871e-08
-8.55064e-08
-7.0268e-08
-7.43257e-08
-5.29667e-08
-6.2791e-08
-3.83207e-08
-5.1152e-08
-2.63086e-08
-3.969e-08
-1.68463e-08
-2.87216e-08
-9.78253e-09
-1.86037e-08
-4.89532e-09
-9.73999e-09
-1.88859e-09
-2.58848e-09
-3.88838e-10
2.32849e-09
5.9471e-11
4.40655e-09
2.91759e-09
-1.51396e-09
2.50807e-09
-6.0745e-09
1.14001e-08
-1.36866e-08
2.29545e-08
-2.43256e-08
3.60868e-08
-3.79283e-08
4.99776e-08
-5.43911e-08
6.40022e-08
-7.35739e-08
7.76911e-08
-9.53047e-08
9.07025e-08
-1.19386e-07
1.02797e-07
-1.45602e-07
1.13818e-07
-1.73724e-07
1.23668e-07
-2.03514e-07
1.323e-07
-2.34734e-07
1.39699e-07
-2.67142e-07
1.45875e-07
-3.00501e-07
1.50852e-07
-3.34576e-07
1.54666e-07
-3.69138e-07
1.57352e-07
-4.03963e-07
1.58951e-07
-4.3883e-07
1.59496e-07
-4.73525e-07
1.59021e-07
-5.07837e-07
1.57552e-07
-5.41559e-07
1.55111e-07
-5.74487e-07
1.51715e-07
-6.0642e-07
1.4738e-07
-6.37159e-07
1.42115e-07
-6.66509e-07
1.35931e-07
-6.94277e-07
1.28838e-07
-7.20273e-07
1.20848e-07
-7.44314e-07
1.11976e-07
-7.66221e-07
1.02242e-07
-7.8582e-07
9.16744e-08
-8.02949e-07
8.03062e-08
-8.17455e-07
6.81814e-08
-8.29196e-07
5.53535e-08
-8.38045e-07
4.18869e-08
-8.43893e-07
2.78571e-08
-8.46645e-07
1.33515e-08
-8.46232e-07
-1.53126e-09
-8.42605e-07
-1.66808e-08
-8.35738e-07
-3.19763e-08
-8.25635e-07
-4.72869e-08
-8.12325e-07
-6.2473e-08
-7.95867e-07
-7.73879e-08
-7.76351e-07
-9.18791e-08
-7.53898e-07
-1.05791e-07
-7.28657e-07
-1.18966e-07
-7.00812e-07
-1.31249e-07
-6.70572e-07
-1.42487e-07
-6.3818e-07
-1.52535e-07
-6.03902e-07
-1.61256e-07
-5.68029e-07
-1.68526e-07
-5.30877e-07
-1.74236e-07
-4.92777e-07
-1.78294e-07
-4.54076e-07
-1.80628e-07
-4.15132e-07
-1.81188e-07
-3.76308e-07
-1.7995e-07
-3.37967e-07
-1.76914e-07
-3.00468e-07
-1.72109e-07
-2.6416e-07
-1.65593e-07
-2.29374e-07
-1.57451e-07
-1.9642e-07
-1.47801e-07
-1.6558e-07
-1.36788e-07
-1.37101e-07
-1.24591e-07
-1.1119e-07
-1.11418e-07
-8.80078e-08
-9.75078e-08
-6.76654e-08
-8.31334e-08
-5.02172e-08
-6.86002e-08
-3.56572e-08
-5.42499e-08
-2.39153e-08
-4.04635e-08
-1.48538e-08
-2.76653e-08
-8.2653e-09
-1.63285e-08
-3.87122e-09
-6.98256e-09
-1.32129e-09
-2.21432e-10
-1.9402e-10
3.27927e-09
2.72357e-09
-1.91295e-09
4.42102e-09
-7.52802e-09
1.70152e-08
-1.67273e-08
3.21537e-08
-2.93847e-08
4.87442e-08
-4.53548e-08
6.59477e-08
-6.44687e-08
8.31161e-08
-8.6534e-08
9.97565e-08
-1.11337e-07
1.15506e-07
-1.38648e-07
1.30108e-07
-1.68222e-07
1.43392e-07
-1.99807e-07
1.55253e-07
-2.33147e-07
1.65639e-07
-2.67981e-07
1.74533e-07
-3.04054e-07
1.81947e-07
-3.41108e-07
1.87907e-07
-3.78895e-07
1.92452e-07
-4.17168e-07
1.95625e-07
-4.55685e-07
1.97468e-07
-4.94211e-07
1.98022e-07
-5.32514e-07
1.97324e-07
-5.70366e-07
1.95404e-07
-6.07544e-07
1.92288e-07
-6.43825e-07
1.87997e-07
-6.78993e-07
1.82547e-07
-7.12832e-07
1.75954e-07
-7.4513e-07
1.68229e-07
-7.75678e-07
1.59387e-07
-8.04273e-07
1.49442e-07
-8.30714e-07
1.38417e-07
-8.54808e-07
1.26337e-07
-8.7637e-07
1.13236e-07
-8.95224e-07
9.91598e-08
-9.11204e-07
8.41615e-08
-9.24159e-07
6.83083e-08
-9.33952e-07
5.168e-08
-9.40465e-07
3.43697e-08
-9.43598e-07
1.64845e-08
-9.43274e-07
-1.85474e-09
-9.39441e-07
-2.05138e-08
-9.32072e-07
-3.93454e-08
-9.21168e-07
-5.81908e-08
-9.06761e-07
-7.68807e-08
-8.88911e-07
-9.52374e-08
-8.67714e-07
-1.13076e-07
-8.43296e-07
-1.30209e-07
-8.15817e-07
-1.46445e-07
-7.85469e-07
-1.61597e-07
-7.52478e-07
-1.75478e-07
-7.17099e-07
-1.87914e-07
-6.79616e-07
-1.98739e-07
-6.40342e-07
-2.07801e-07
-5.99611e-07
-2.14967e-07
-5.5778e-07
-2.20125e-07
-5.15222e-07
-2.23186e-07
-4.7232e-07
-2.2409e-07
-4.29466e-07
-2.22804e-07
-3.87053e-07
-2.19327e-07
-3.4547e-07
-2.13692e-07
-3.05096e-07
-2.05967e-07
-2.66293e-07
-1.96254e-07
-2.29401e-07
-1.84693e-07
-1.94729e-07
-1.7146e-07
-1.62553e-07
-1.56767e-07
-1.33106e-07
-1.40865e-07
-1.06573e-07
-1.2404e-07
-8.30889e-08
-1.06618e-07
-6.27283e-08
-8.89607e-08
-4.55053e-08
-7.14729e-08
-3.13689e-08
-5.46e-08
-2.02005e-08
-3.88337e-08
-1.1813e-08
-2.4716e-08
-5.951e-09
-1.28445e-08
-2.29282e-09
-3.87961e-09
-4.54715e-10
1.44117e-09
2.26885e-09
-2.3021e-09
6.72312e-09
-8.95641e-09
2.36695e-08
-1.97299e-08
4.29272e-08
-3.43976e-08
6.34119e-08
-5.27312e-08
8.42813e-08
-7.44935e-08
1.04878e-07
-9.94366e-08
1.247e-07
-1.27302e-07
1.43371e-07
-1.57822e-07
1.60628e-07
-1.90724e-07
1.76294e-07
-2.2573e-07
1.90259e-07
-2.62561e-07
2.0247e-07
-3.00941e-07
2.12913e-07
-3.40594e-07
2.216e-07
-3.81249e-07
2.28563e-07
-4.22641e-07
2.33844e-07
-4.64509e-07
2.37493e-07
-5.06598e-07
2.39556e-07
-5.48655e-07
2.4008e-07
-5.90436e-07
2.39105e-07
-6.31698e-07
2.36665e-07
-6.72201e-07
2.32791e-07
-7.11711e-07
2.27507e-07
-7.49995e-07
2.20831e-07
-7.86823e-07
2.12781e-07
-8.21968e-07
2.03374e-07
-8.55208e-07
1.92626e-07
-8.86324e-07
1.80559e-07
-9.15104e-07
1.67197e-07
-9.41341e-07
1.52574e-07
-9.64838e-07
1.36733e-07
-9.85407e-07
1.19728e-07
-1.00287e-06
1.01626e-07
-1.01707e-06
8.25065e-08
-1.02786e-06
6.24663e-08
-1.0351e-06
4.1617e-08
-1.0387e-06
2.00864e-08
-1.03858e-06
-1.98167e-09
-1.03466e-06
-2.44274e-08
-1.02693e-06
-4.70764e-08
-1.01538e-06
-6.97402e-08
-1.00005e-06
-9.22186e-08
-9.80982e-07
-1.14301e-07
-9.58289e-07
-1.3577e-07
-9.32096e-07
-1.56401e-07
-9.02571e-07
-1.75971e-07
-8.69914e-07
-1.94254e-07
-8.34359e-07
-2.11033e-07
-7.96174e-07
-2.26099e-07
-7.55659e-07
-2.39254e-07
-7.13143e-07
-2.50317e-07
-6.68979e-07
-2.5913e-07
-6.23546e-07
-2.65558e-07
-5.7724e-07
-2.69493e-07
-5.30469e-07
-2.7086e-07
-4.83654e-07
-2.69619e-07
-4.37215e-07
-2.65766e-07
-3.91571e-07
-2.59336e-07
-3.47132e-07
-2.50406e-07
-3.04291e-07
-2.39095e-07
-2.63419e-07
-2.25566e-07
-2.24856e-07
-2.10023e-07
-1.88906e-07
-1.92716e-07
-1.55834e-07
-1.73938e-07
-1.25851e-07
-1.54023e-07
-9.91174e-08
-1.33351e-07
-7.57346e-08
-1.12344e-07
-5.57404e-08
-9.14671e-08
-3.91071e-08
-7.12333e-08
-2.57398e-08
-5.2201e-08
-1.5476e-08
-3.49798e-08
-8.08726e-09
-2.02333e-08
-3.28284e-09
-8.68404e-09
-7.16848e-10
-1.12482e-09
1.552e-09
-2.67993e-09
9.40305e-09
-1.03512e-08
3.13408e-08
-2.26736e-08
5.52495e-08
-3.93268e-08
8.00651e-08
-6.00007e-08
1.04955e-07
-8.43889e-08
1.29267e-07
-1.12186e-07
1.52497e-07
-1.43087e-07
1.74272e-07
-1.76784e-07
1.94326e-07
-2.12973e-07
2.12483e-07
-2.51351e-07
2.28636e-07
-2.91616e-07
2.42735e-07
-3.33471e-07
2.54769e-07
-3.76627e-07
2.64755e-07
-4.20796e-07
2.72732e-07
-4.65699e-07
2.78747e-07
-5.11061e-07
2.82856e-07
-5.56615e-07
2.8511e-07
-6.02096e-07
2.85561e-07
-6.47246e-07
2.84254e-07
-6.91809e-07
2.81228e-07
-7.35534e-07
2.76516e-07
-7.78172e-07
2.70145e-07
-8.19479e-07
2.62138e-07
-8.59211e-07
2.52514e-07
-8.9713e-07
2.41293e-07
-9.33e-07
2.28497e-07
-9.66591e-07
2.1415e-07
-9.97678e-07
1.98284e-07
-1.02604e-06
1.80939e-07
-1.05148e-06
1.62167e-07
-1.07378e-06
1.42032e-07
-1.09277e-06
1.20613e-07
-1.10827e-06
9.8005e-08
-1.12012e-06
7.43214e-08
-1.1282e-06
4.96926e-08
-1.13238e-06
2.42679e-08
-1.13257e-06
-1.78471e-09
-1.12872e-06
-2.82796e-08
-1.12078e-06
-5.50137e-08
-1.10876e-06
-8.17684e-08
-1.09266e-06
-1.08311e-07
-1.07257e-06
-1.34397e-07
-1.04856e-06
-1.59773e-07
-1.02079e-06
-1.8418e-07
-9.89399e-07
-2.07357e-07
-9.54612e-07
-2.29041e-07
-9.16666e-07
-2.4898e-07
-8.75838e-07
-2.66927e-07
-8.3244e-07
-2.82652e-07
-7.86815e-07
-2.95942e-07
-7.39334e-07
-3.06611e-07
-6.90394e-07
-3.14497e-07
-6.40415e-07
-3.19473e-07
-5.89829e-07
-3.21446e-07
-5.39083e-07
-3.20365e-07
-4.88626e-07
-3.16222e-07
-4.38908e-07
-3.09054e-07
-3.90369e-07
-2.98944e-07
-3.43436e-07
-2.86029e-07
-2.98511e-07
-2.70491e-07
-2.55969e-07
-2.52565e-07
-2.16147e-07
-2.32538e-07
-1.7934e-07
-2.10745e-07
-1.45792e-07
-1.87571e-07
-1.15694e-07
-1.63449e-07
-8.91753e-08
-1.38862e-07
-6.63024e-08
-1.1434e-07
-4.70753e-08
-9.04604e-08
-3.14262e-08
-6.78501e-08
-1.92204e-08
-4.71856e-08
-1.02583e-08
-2.91954e-08
-4.28089e-09
-1.46615e-08
-9.77738e-10
-4.42798e-09
5.74265e-10
-3.04576e-09
1.24488e-08
-1.17077e-08
4.00027e-08
-2.55451e-08
6.90869e-08
-4.4147e-08
9.8667e-08
-6.71233e-08
1.27932e-07
-9.40992e-08
1.56243e-07
-1.24711e-07
1.83109e-07
-1.58605e-07
2.08165e-07
-1.95434e-07
2.31155e-07
-2.34861e-07
2.51909e-07
-2.76554e-07
2.70329e-07
-3.20189e-07
2.86371e-07
-3.65452e-07
3.00031e-07
-4.12034e-07
3.11337e-07
-4.59635e-07
3.20333e-07
-5.07962e-07
3.27074e-07
-5.56729e-07
3.31622e-07
-6.05655e-07
3.34036e-07
-6.54466e-07
3.34372e-07
-7.02891e-07
3.3268e-07
-7.50666e-07
3.29003e-07
-7.97526e-07
3.23377e-07
-8.43214e-07
3.15833e-07
-8.87473e-07
3.06396e-07
-9.30049e-07
2.9509e-07
-9.70692e-07
2.81936e-07
-1.00916e-06
2.66961e-07
-1.0452e-06
2.50194e-07
-1.07859e-06
2.31671e-07
-1.10909e-06
2.11442e-07
-1.13649e-06
1.89565e-07
-1.16057e-06
1.66116e-07
-1.18115e-06
1.41186e-07
-1.19803e-06
1.14886e-07
-1.21105e-06
8.73445e-08
-1.22007e-06
5.87127e-08
-1.22496e-06
2.91615e-08
-1.22563e-06
-1.1171e-09
-1.222e-06
-3.19105e-08
-1.21403e-06
-6.29868e-08
-1.2017e-06
-9.4096e-08
-1.18504e-06
-1.24972e-07
-1.1641e-06
-1.55336e-07
-1.13897e-06
-1.84897e-07
-1.1098e-06
-2.13359e-07
-1.07673e-06
-2.40421e-07
-1.03999e-06
-2.65784e-07
-9.99815e-07
-2.89154e-07
-9.56493e-07
-3.10249e-07
-9.10345e-07
-3.288e-07
-8.61725e-07
-3.44562e-07
-8.1102e-07
-3.57316e-07
-7.58646e-07
-3.66871e-07
-7.05041e-07
-3.73077e-07
-6.50665e-07
-3.75822e-07
-5.95988e-07
-3.75042e-07
-5.41491e-07
-3.70719e-07
-4.87654e-07
-3.62891e-07
-4.3495e-07
-3.51648e-07
-3.83841e-07
-3.37138e-07
-3.34765e-07
-3.19567e-07
-2.88131e-07
-2.99199e-07
-2.44315e-07
-2.76355e-07
-2.03645e-07
-2.51415e-07
-1.66403e-07
-2.24813e-07
-1.32812e-07
-1.9704e-07
-1.03036e-07
-1.68638e-07
-7.71735e-08
-1.40203e-07
-5.52549e-08
-1.12379e-07
-3.72432e-08
-8.58618e-08
-2.30336e-08
-6.13953e-08
-1.24565e-08
-3.97724e-08
-5.28371e-09
-2.18343e-08
-1.23677e-09
-8.47492e-09
-6.62507e-10
-3.39935e-09
1.58482e-08
-1.30228e-08
4.96262e-08
-2.83357e-08
8.43998e-08
-4.88406e-08
1.19172e-07
-7.40705e-08
1.53161e-07
-1.03583e-07
1.85755e-07
-1.36957e-07
2.16483e-07
-1.73789e-07
2.44998e-07
-2.13694e-07
2.7106e-07
-2.56297e-07
2.94513e-07
-3.01242e-07
3.15274e-07
-3.4818e-07
3.33309e-07
-3.96778e-07
3.48629e-07
-4.4671e-07
3.6127e-07
-4.97664e-07
3.71286e-07
-5.49333e-07
3.78743e-07
-6.0142e-07
3.83709e-07
-6.53634e-07
3.86251e-07
-7.05692e-07
3.8643e-07
-7.57314e-07
3.84301e-07
-8.08224e-07
3.79913e-07
-8.58151e-07
3.73304e-07
-9.06826e-07
3.64508e-07
-9.53984e-07
3.53554e-07
-9.99362e-07
3.40468e-07
-1.0427e-06
3.25275e-07
-1.08374e-06
3.08004e-07
-1.12224e-06
2.8869e-07
-1.15794e-06
2.67375e-07
-1.19062e-06
2.44115e-07
-1.22003e-06
2.18977e-07
-1.24596e-06
1.92048e-07
-1.26821e-06
1.63431e-07
-1.28657e-06
1.33252e-07
-1.30089e-06
1.01656e-07
-1.31099e-06
6.88142e-08
-1.31675e-06
3.49188e-08
-1.31805e-06
1.8636e-10
-1.31482e-06
-3.51435e-08
-1.30699e-06
-7.08095e-08
-1.29456e-06
-1.0653e-07
-1.27753e-06
-1.42005e-07
-1.25594e-06
-1.76919e-07
-1.2299e-06
-2.10944e-07
-1.19951e-06
-2.43745e-07
-1.16495e-06
-2.7498e-07
-1.12643e-06
-3.04309e-07
-1.08418e-06
-3.31397e-07
-1.03851e-06
-3.55922e-07
-9.89735e-07
-3.77576e-07
-9.38222e-07
-3.96075e-07
-8.84372e-07
-4.11166e-07
-8.28617e-07
-4.22626e-07
-7.71417e-07
-4.30278e-07
-7.13253e-07
-4.33987e-07
-6.54624e-07
-4.33671e-07
-5.9604e-07
-4.29303e-07
-5.38014e-07
-4.20917e-07
-4.81055e-07
-4.08607e-07
-4.25661e-07
-3.92532e-07
-3.72309e-07
-3.72919e-07
-3.21448e-07
-3.50059e-07
-2.73494e-07
-3.24309e-07
-2.28815e-07
-2.96093e-07
-1.87732e-07
-2.65896e-07
-1.50507e-07
-2.34265e-07
-1.17342e-07
-2.01804e-07
-8.83692e-08
-1.69175e-07
-6.36557e-08
-1.37093e-07
-4.31968e-08
-1.06321e-07
-2.69193e-08
-7.76727e-08
-1.46844e-08
-5.20073e-08
-6.29304e-09
-3.02257e-08
-1.49477e-09
-1.32732e-08
-2.15727e-09
-3.74055e-09
1.95887e-08
-1.42948e-08
6.01805e-08
-3.10393e-08
1.01144e-07
-5.33948e-08
1.41527e-07
-8.08201e-08
1.80587e-07
-1.12808e-07
2.17742e-07
-1.4888e-07
2.52555e-07
-1.88585e-07
2.84703e-07
-2.31496e-07
3.13971e-07
-2.77207e-07
3.40224e-07
-3.25331e-07
3.63397e-07
-3.75498e-07
3.83476e-07
-4.27354e-07
4.00485e-07
-4.80559e-07
4.14475e-07
-5.34785e-07
4.25512e-07
-5.89716e-07
4.33674e-07
-6.45044e-07
4.39037e-07
-7.00469e-07
4.41676e-07
-7.55698e-07
4.41659e-07
-8.10445e-07
4.39048e-07
-8.64426e-07
4.33894e-07
-9.17361e-07
4.2624e-07
-9.68976e-07
4.16123e-07
-1.019e-06
4.03574e-07
-1.06715e-06
3.88622e-07
-1.11317e-06
3.71296e-07
-1.15679e-06
3.51628e-07
-1.19776e-06
3.29656e-07
-1.23581e-06
3.0543e-07
-1.27071e-06
2.7901e-07
-1.30221e-06
2.50474e-07
-1.33008e-06
2.19917e-07
-1.3541e-06
1.87455e-07
-1.37407e-06
1.53227e-07
-1.38981e-06
1.17397e-07
-1.40115e-06
8.01527e-08
-1.40794e-06
4.17096e-08
-1.41006e-06
2.30816e-09
-1.40742e-06
-3.77855e-08
-1.39995e-06
-7.82805e-08
-1.38762e-06
-1.18863e-07
-1.37042e-06
-1.59199e-07
-1.34841e-06
-1.98936e-07
-1.32164e-06
-2.37708e-07
-1.29025e-06
-2.75138e-07
-1.25439e-06
-3.10842e-07
-1.21426e-06
-3.44438e-07
-1.17011e-06
-3.75548e-07
-1.12223e-06
-4.03804e-07
-1.07094e-06
-4.28858e-07
-1.01663e-06
-4.50385e-07
-9.59709e-07
-4.6809e-07
-9.00618e-07
-4.81718e-07
-8.39837e-07
-4.91058e-07
-7.77873e-07
-4.9595e-07
-7.15253e-07
-4.96291e-07
-6.52517e-07
-4.92039e-07
-5.90213e-07
-4.83221e-07
-5.28887e-07
-4.69932e-07
-4.69078e-07
-4.52341e-07
-4.11305e-07
-4.30692e-07
-3.56062e-07
-4.05302e-07
-3.03806e-07
-3.76565e-07
-2.54952e-07
-3.44947e-07
-2.09864e-07
-3.10984e-07
-1.68847e-07
-2.75281e-07
-1.32145e-07
-2.38506e-07
-9.99312e-08
-2.01389e-07
-7.2309e-08
-1.64715e-07
-4.93098e-08
-1.2932e-07
-3.08937e-08
-9.60888e-08
-1.69522e-08
-6.59488e-08
-7.31422e-09
-3.98637e-08
-1.75349e-09
-1.88339e-08
-3.91076e-09
-4.06921e-09
2.36579e-08
-1.55219e-08
7.16331e-08
-3.36509e-08
1.19273e-07
-5.77991e-08
1.65676e-07
-8.73544e-08
2.10142e-07
-1.21747e-07
2.52135e-07
-1.60443e-07
2.91251e-07
-2.02945e-07
3.27205e-07
-2.48785e-07
3.59811e-07
-2.97524e-07
3.88963e-07
-3.48747e-07
4.1462e-07
-4.02061e-07
4.3679e-07
-4.57094e-07
4.55518e-07
-5.13489e-07
4.7087e-07
-5.70907e-07
4.8293e-07
-6.29019e-07
4.91786e-07
-6.87509e-07
4.97527e-07
-7.4607e-07
5.00236e-07
-8.04401e-07
4.9999e-07
-8.62208e-07
4.96855e-07
-9.19202e-07
4.90888e-07
-9.75097e-07
4.82135e-07
-1.02961e-06
4.70637e-07
-1.08247e-06
4.56427e-07
-1.13338e-06
4.39537e-07
-1.18208e-06
4.19999e-07
-1.2283e-06
3.97847e-07
-1.27177e-06
3.73124e-07
-1.31223e-06
3.45884e-07
-1.34941e-06
3.16194e-07
-1.38307e-06
2.84139e-07
-1.41298e-06
2.49824e-07
-1.4389e-06
2.13377e-07
-1.46063e-06
1.74949e-07
-1.47795e-06
1.34721e-07
-1.4907e-06
9.28996e-08
-1.49871e-06
4.972e-08
-1.50185e-06
5.44674e-09
-1.50001e-06
-3.96275e-08
-1.4931e-06
-8.51829e-08
-1.48109e-06
-1.30874e-07
-1.46396e-06
-1.76331e-07
-1.44173e-06
-2.21165e-07
-1.41447e-06
-2.6497e-07
-1.38228e-06
-3.07326e-07
-1.34532e-06
-3.47808e-07
-1.30377e-06
-3.85987e-07
-1.25788e-06
-4.21439e-07
-1.20793e-06
-4.5375e-07
-1.15427e-06
-4.82524e-07
-1.09726e-06
-5.07393e-07
-1.03733e-06
-5.28019e-07
-9.74938e-07
-5.44107e-07
-9.10588e-07
-5.55409e-07
-8.44805e-07
-5.61733e-07
-7.78143e-07
-5.62952e-07
-7.11177e-07
-5.59005e-07
-6.44491e-07
-5.49908e-07
-5.78672e-07
-5.35752e-07
-5.143e-07
-5.16713e-07
-4.51943e-07
-4.9305e-07
-3.9214e-07
-4.65105e-07
-3.35399e-07
-4.33306e-07
-2.82185e-07
-3.98162e-07
-2.32909e-07
-3.6026e-07
-1.87926e-07
-3.20264e-07
-1.47524e-07
-2.78908e-07
-1.11922e-07
-2.36992e-07
-8.12631e-08
-1.95373e-07
-5.56183e-08
-1.54965e-07
-3.49816e-08
-1.16725e-07
-1.92756e-08
-8.16548e-08
-8.35521e-09
-5.07841e-08
-2.01533e-09
-2.51738e-08
-5.92609e-09
-4.38512e-09
2.80431e-08
-1.67025e-08
8.39505e-08
-3.61658e-08
1.38737e-07
-6.20438e-08
1.91554e-07
-9.36574e-08
2.41756e-07
-1.30376e-07
2.88853e-07
-1.71614e-07
3.32489e-07
-2.16827e-07
3.72418e-07
-2.65509e-07
4.08493e-07
-3.17188e-07
4.40642e-07
-3.71421e-07
4.68853e-07
-4.27794e-07
4.93163e-07
-4.85915e-07
5.13639e-07
-5.45413e-07
5.30369e-07
-6.05937e-07
5.43454e-07
-6.67148e-07
5.52997e-07
-7.28722e-07
5.59101e-07
-7.90344e-07
5.61858e-07
-8.51707e-07
5.61354e-07
-9.12513e-07
5.57661e-07
-9.72467e-07
5.50841e-07
-1.03128e-06
5.40946e-07
-1.08866e-06
5.28019e-07
-1.14433e-06
5.12095e-07
-1.198e-06
4.93208e-07
-1.24939e-06
4.71393e-07
-1.29823e-06
4.46687e-07
-1.34424e-06
4.19136e-07
-1.38716e-06
3.88798e-07
-1.42671e-06
3.55745e-07
-1.46264e-06
3.2007e-07
-1.4947e-06
2.81886e-07
-1.52266e-06
2.41332e-07
-1.54628e-06
1.98571e-07
-1.56536e-06
1.538e-07
-1.5797e-06
1.07241e-07
-1.58913e-06
5.91499e-08
-1.5935e-06
9.81487e-09
-1.59268e-06
-4.04464e-08
-1.58657e-06
-9.12854e-08
-1.57512e-06
-1.42325e-07
-1.55829e-06
-1.93161e-07
-1.53609e-06
-2.43367e-07
-1.50856e-06
-2.92496e-07
-1.47581e-06
-3.40086e-07
-1.43795e-06