/*--------------------------------*- C++ -*----------------------------------*\
  =========                 |
  \\      /  F ield         | OpenFOAM: The Open Source CFD Toolbox
   \\    /   O peration     | Website:  https://openfoam.org
    \\  /    A nd           | Version:  12
     \\/     M anipulation  |
\*---------------------------------------------------------------------------*/
FoamFile
{
    format      ascii;
    class       volScalarField;
    location    "1";
    object      epsilon;
}
// * * * * * * * * * * * * * * * * * * * * * * * * * * * * * * * * * * * * * //

dimensions      [0 2 -3 0 0 0 0];

internalField   nonuniform List<scalar> 
5625
(
6.33459e-06
4.27462e-05
9.41332e-05
0.000153305
0.00021608
0.000279257
0.000340183
0.000396656
0.000446921
0.000489695
0.00052418
0.000550069
0.000567525
0.000577117
0.000579871
0.000577015
0.000569922
0.000560067
0.000548924
0.000537882
0.000528184
0.000520878
0.000516822
0.000516504
0.000520305
0.000528405
0.000540807
0.000557374
0.000577869
0.000601988
0.000629395
0.000659749
0.000692724
0.000728023
0.000765386
0.00080459
0.000845443
0.000887782
0.000931454
0.000976308
0.00102218
0.00106886
0.00111613
0.00116367
0.00121111
0.00125797
0.00130369
0.00134758
0.0013888
0.0014264
0.0014593
0.00148627
0.00150589
0.00151605
0.00151742
0.00150779
0.00148567
0.0014502
0.00140096
0.00133801
0.00126196
0.00117401
0.00107598
0.000970201
0.000859395
0.00074649
0.000634399
0.000525803
0.000422976
0.000327674
0.000241145
0.000164265
9.78868e-05
4.36421e-05
6.44117e-06
1.19622e-05
2.31254e-05
4.58879e-05
7.31381e-05
0.000102336
0.000131835
0.000160341
0.000186799
0.000210378
0.000230467
0.000246689
0.000258896
0.000267161
0.000271751
0.000273139
0.0002719
0.000268677
0.000264159
0.000259037
0.000253961
0.000249514
0.000246189
0.000244387
0.000244339
0.000246228
0.00025014
0.000256076
0.000263976
0.000273729
0.000285194
0.000298216
0.000312634
0.000328297
0.000345065
0.000362816
0.000381445
0.000400861
0.000420985
0.000441744
0.000463063
0.000484861
0.000507041
0.000529483
0.00055204
0.000574527
0.000596714
0.000618322
0.000639016
0.0006584
0.000676018
0.000691348
0.000703806
0.000712728
0.000717164
0.000717401
0.00071241
0.000701533
0.00068439
0.000660806
0.000630834
0.000594781
0.000553231
0.000507033
0.000457277
0.000405223
0.000352222
0.000299615
0.000248639
0.00020035
0.000155575
0.000114927
7.88831e-05
4.8022e-05
2.37377e-05
1.21605e-05
2.53618e-05
2.25189e-05
3.53692e-05
5.29647e-05
7.2464e-05
9.24216e-05
0.000111833
0.000129922
0.00014609
0.000159901
0.000171084
0.000179528
0.000185278
0.000188509
0.00018954
0.000188763
0.000186617
0.000183575
0.000180111
0.000176673
0.000173665
0.000171427
0.000170242
0.00017027
0.000171647
0.000174432
0.000178633
0.000184211
0.000191093
0.000199185
0.00020838
0.000218571
0.000229651
0.000241525
0.000254106
0.00026732
0.0002811
0.000295389
0.00031013
0.000325266
0.000340733
0.000356454
0.000372339
0.000388271
0.00040411
0.000419684
0.000434783
0.000449163
0.000462536
0.000474576
0.000484914
0.000493148
0.000498779
0.000501261
0.000500758
0.00049656
0.000488286
0.000475712
0.000458757
0.000437495
0.000412169
0.000383198
0.000351171
0.000316823
0.000280999
0.000244592
0.000208491
0.000173518
0.000140386
0.000109678
8.18715e-05
5.74353e-05
3.71309e-05
2.30898e-05
2.57466e-05
4.13939e-05
2.69928e-05
3.35213e-05
4.57957e-05
6.03296e-05
7.55818e-05
9.05997e-05
0.000104697
0.000117359
0.00012822
0.000137048
0.000143743
0.00014833
0.00015094
0.000151816
0.000151267
0.000149633
0.000147288
0.000144607
0.000141946
0.000139626
0.000137921
0.000137062
0.000137176
0.00013838
0.000140727
0.000144227
0.000148852
0.000154549
0.000161246
0.00016886
0.000177306
0.000186499
0.000196362
0.000206823
0.000217821
0.000229297
0.000241199
0.000253475
0.000266071
0.000278925
0.000291966
0.000305104
0.000318236
0.000331231
0.000343935
0.000356167
0.000367716
0.000378339
0.000387767
0.000395706
0.000401841
0.000405696
0.000407051
0.000405915
0.000401769
0.000394368
0.000383576
0.000369363
0.000351822
0.000331169
0.00030775
0.000282033
0.000254592
0.000226076
0.000197169
0.000168552
0.000140861
0.00011466
9.0441e-05
6.8664e-05
4.98899e-05
3.51773e-05
2.75405e-05
4.18957e-05
5.95347e-05
3.39006e-05
3.53754e-05
4.38493e-05
5.50842e-05
6.73477e-05
7.9652e-05
9.13273e-05
0.00010189
0.000110998
0.000118436
0.000124105
0.000128014
0.000130262
0.000131049
0.000130636
0.000129306
0.000127375
0.000125163
0.000122972
0.000121081
0.000119726
0.000119109
0.000119341
0.00012053
0.000122726
0.000125941
0.000130157
0.000135331
0.000141403
0.000148304
0.000155962
0.000164303
0.000173258
0.000182764
0.00019276
0.000203193
0.00021401
0.000225156
0.000236575
0.000248201
0.000259959
0.000271759
0.000283494
0.000295038
0.000306243
0.000316939
0.000326935
0.000336014
0.000343944
0.000350474
0.000355348
0.000358069
0.00035871
0.000357101
0.000352873
0.000345853
0.00033595
0.00032316
0.000307578
0.000289399
0.000268922
0.000246547
0.00022276
0.000198107
0.000173168
0.000148523
0.000124721
0.000102266
8.16267e-05
6.32981e-05
4.79651e-05
3.70218e-05
3.43761e-05
5.99793e-05
7.94121e-05
4.23143e-05
3.93182e-05
4.47119e-05
5.34285e-05
6.35061e-05
7.38844e-05
8.38763e-05
9.30002e-05
0.00010092
0.000107422
0.000112402
0.000115855
0.000117858
0.000118582
0.000118257
0.000117127
0.000115474
0.000113581
0.000111721
0.000110142
0.000109062
0.000108661
0.000109045
0.000110316
0.000112523
0.00011568
0.000119775
0.000124772
0.000130619
0.000137254
0.000144611
0.000152624
0.000161226
0.000170355
0.000179953
0.000189963
0.000200327
0.000210988
0.000221882
0.000232937
0.000244071
0.00025519
0.000266184
0.000276927
0.000287274
0.000297065
0.000306123
0.000314254
0.000321255
0.000326912
0.000331002
0.000333027
0.000333267
0.000331411
0.000327195
0.000320477
0.000311183
0.000299306
0.000284925
0.000268208
0.000249412
0.000228892
0.000207084
0.00018449
0.000161647
0.0001391
0.000117377
9.69739e-05
7.8376e-05
6.21388e-05
4.91063e-05
4.09948e-05
4.26215e-05
7.95191e-05
0.000100779
5.1806e-05
4.46325e-05
4.73513e-05
5.39858e-05
6.23222e-05
7.1209e-05
7.99243e-05
8.79735e-05
9.50149e-05
0.000100829
0.000105302
0.000108418
0.000110237
0.000110907
0.000110637
0.000109647
0.000108193
0.000106537
0.000104931
0.000103605
0.00010277
0.000102579
0.000103148
0.00010457
0.000106895
0.00011014
0.000114294
0.000119326
0.000125188
0.000131824
0.000139169
0.000147158
0.000155727
0.000164811
0.000174348
0.000184277
0.000194536
0.000205059
0.000215774
0.000226603
0.000237457
0.000248237
0.000258829
0.000269111
0.000278942
0.000288175
0.000296647
0.000304189
0.000310625
0.000315776
0.000319437
0.000321147
0.000321266
0.000319439
0.000315438
0.000309126
0.000300415
0.000289275
0.000275746
0.000259945
0.000242103
0.000222546
0.000201689
0.000180023
0.00015809
0.000136446
0.000115641
9.62027e-05
7.86697e-05
6.36816e-05
5.22342e-05
4.63467e-05
5.18075e-05
0.000100168
0.00012347
6.21457e-05
5.09382e-05
5.12329e-05
5.60586e-05
6.29303e-05
7.05941e-05
7.82824e-05
8.54794e-05
9.18304e-05
9.71054e-05
0.000101181
0.00010403
0.000105695
0.000106313
0.000106075
0.000105184
0.000103881
0.000102411
0.000101014
9.991e-05
9.93028e-05
9.9328e-05
0.000100111
0.000101739
0.00010426
0.000107692
0.000112028
0.000117237
0.000123274
0.000130082
0.000137598
0.000145755
0.000154486
0.000163724
0.0001734
0.000183447
0.000193795
0.000204371
0.000215095
0.000225882
0.000236637
0.000247258
0.000257633
0.000267643
0.00027716
0.000286049
0.00029417
0.000301378
0.000307524
0.000312456
0.00031601
0.000317754
0.000318005
0.000316481
0.000312913
0.000307148
0.000299064
0.000288587
0.000275712
0.000260522
0.000243202
0.000224054
0.000203486
0.000182007
0.000160186
0.000138628
0.000117937
9.87027e-05
8.15357e-05
6.71706e-05
5.67877e-05
5.26746e-05
6.1662e-05
0.000121655
0.000147366
7.31967e-05
5.80107e-05
5.60437e-05
5.92458e-05
6.48384e-05
7.14578e-05
7.82866e-05
8.47781e-05
9.05619e-05
9.53948e-05
9.91425e-05
0.000101765
0.000103295
0.000103857
0.000103633
0.000102812
0.000101625
0.000100308
9.90926e-05
9.81926e-05
9.78048e-05
9.80577e-05
9.90803e-05
0.000100955
0.000103731
0.000107426
0.000112031
0.000117514
0.000123831
0.000130923
0.000138725
0.000147167
0.000156178
0.000165682
0.000175608
0.000185879
0.000196417
0.000207142
0.000217967
0.000228802
0.000239548
0.000250106
0.000260368
0.000270224
0.000279562
0.000288267
0.00029622
0.000303305
0.0003094
0.000314377
0.000318099
0.000320216
0.000320832
0.000319867
0.000316958
0.000311918
0.000304574
0.000294792
0.000282509
0.000267755
0.000250677
0.000231557
0.000210811
0.000188974
0.000166672
0.000144579
0.000123381
0.000103754
8.64012e-05
7.21648e-05
6.24295e-05
5.97319e-05
7.2008e-05
0.000143769
0.000172381
8.48712e-05
6.57074e-05
6.15841e-05
6.32932e-05
6.7741e-05
7.34436e-05
7.95267e-05
8.54166e-05
9.07198e-05
9.51771e-05
9.86424e-05
0.000101066
0.000102469
0.000102971
0.000102744
0.000101971
0.000100875
9.96874e-05
9.86337e-05
9.79309e-05
9.77561e-05
9.8248e-05
9.95301e-05
0.000101684
0.000104756
0.000108764
0.000113698
0.000119527
0.000126201
0.000133658
0.000141828
0.000150635
0.000160002
0.000169848
0.000180089
0.000190643
0.000201423
0.000212342
0.000223309
0.000234229
0.000245008
0.000255548
0.000265752
0.000275524
0.000284772
0.000293406
0.000301337
0.000308476
0.000314725
0.00031998
0.000324112
0.000326889
0.000328121
0.000327924
0.000325879
0.000321728
0.000315234
0.000306195
0.000294479
0.000280061
0.000263048
0.000243704
0.000222455
0.000199875
0.000176657
0.000153561
0.000131375
0.000110882
9.28948e-05
7.83778e-05
6.89376e-05
6.73539e-05
8.27205e-05
0.000166341
0.00019845
9.71087e-05
7.39332e-05
6.77198e-05
6.80304e-05
7.14323e-05
7.63142e-05
8.17407e-05
8.7102e-05
9.1983e-05
9.61105e-05
9.93257e-05
0.000101568
0.000102848
0.000103284
0.000103041
0.000102296
0.000101271
0.000100194
9.92887e-05
9.87752e-05
9.8811e-05
9.95538e-05
0.000101117
0.000103581
0.000106989
0.000111355
0.000116667
0.000122888
0.000129967
0.000137834
0.000146415
0.000155626
0.000165382
0.000175594
0.000186171
0.000197022
0.000208053
0.000219172
0.000230284
0.000241297
0.00025212
0.000262665
0.000272851
0.000282601
0.000291847
0.000300525
0.000308575
0.000315933
0.000322525
0.000328259
0.000333014
0.000336619
0.000338796
0.000339465
0.000338448
0.000335318
0.000329769
0.00032152
0.000310371
0.00029624
0.00027919
0.000259467
0.000237505
0.00021392
0.000189476
0.000165031
0.000141485
0.000119746
0.000100753
8.56078e-05
7.61556e-05
7.54238e-05
9.37064e-05
0.000189233
0.000225522
0.000109866
8.2622e-05
7.43559e-05
7.33373e-05
7.57686e-05
7.99031e-05
8.474e-05
8.96318e-05
9.41392e-05
9.79714e-05
0.000100956
0.000103024
0.00010418
0.000104543
0.00010427
0.000103539
0.00010257
0.000101592
0.000100829
0.000100499
0.000100753
0.000101754
0.000103612
0.000106403
0.00011017
0.000114921
0.000120639
0.000127284
0.000134794
0.000143098
0.00015211
0.000161741
0.000171896
0.000182477
0.000193385
0.000204523
0.000215791
0.000227094
0.000238338
0.000249435
0.000260302
0.000270867
0.000281067
0.00029085
0.000300172
0.000308999
0.000317295
0.000325021
0.000332121
0.000338511
0.000344069
0.000348623
0.000351963
0.000353644
0.000353718
0.000351699
0.000347161
0.000339741
0.000329173
0.000315314
0.000298185
0.000278006
0.000255217
0.00023047
0.000204598
0.000178558
0.000153372
0.000130084
0.000109777
9.37038e-05
8.39673e-05
8.38556e-05
0.000104894
0.000212333
0.000253556
0.000123112
9.17257e-05
8.14239e-05
7.91263e-05
8.06449e-05
8.40899e-05
8.83901e-05
9.28577e-05
9.70272e-05
0.00010059
0.00010336
0.000105262
0.000106292
0.000106575
0.00010626
0.000105528
0.000104601
0.000103709
0.000103084
0.000102927
0.000103403
0.000104668
0.000106831
0.000109965
0.000114106
0.00011926
0.000125403
0.000132486
0.000140442
0.000149191
0.000158638
0.000168685
0.000179228
0.000190162
0.000201381
0.00021278
0.000224258
0.000235719
0.000247073
0.00025824
0.000269151
0.000279752
0.000290001
0.000299872
0.00030935
0.000318423
0.000327083
0.000335307
0.00034305
0.000350232
0.000356725
0.000362344
0.000366856
0.000369819
0.000370915
0.000370051
0.000366563
0.00036
0.00035003
0.000336456
0.000319251
0.000298608
0.000274959
0.000248982
0.000221571
0.000193779
0.000166753
0.000141683
0.000119806
0.000102549
9.2283e-05
9.25845e-05
0.000116229
0.000235551
0.000282521
0.000136823
0.000101209
8.88733e-05
8.53311e-05
8.59824e-05
8.87843e-05
9.25904e-05
9.667e-05
0.00010053
0.000103842
0.000106409
0.000108146
0.000109045
0.000109241
0.000108871
0.000108127
0.00010723
0.000106414
0.000105921
0.000105931
0.000106631
0.000108165
0.00011064
0.000114125
0.000118651
0.000124217
0.000130791
0.000138317
0.00014672
0.000155908
0.00016578
0.000176226
0.000187136
0.000198396
0.000209893
0.000221521
0.000233176
0.000244766
0.000256209
0.000267436
0.000278395
0.000289053
0.000299392
0.000309412
0.000319121
0.000328535
0.00033766
0.000346488
0.000354979
0.000363048
0.000370556
0.000377295
0.000382994
0.000387297
0.000389473
0.000389684
0.000387261
0.000381565
0.000372213
0.000358956
0.000341718
0.000320654
0.000296179
0.000268983
0.000240005
0.000210384
0.00018139
0.000154362
0.00013071
0.000112047
0.000101037
0.000101561
0.000127668
0.000258816
0.000312391
0.000150979
0.000111044
9.6666e-05
9.19008e-05
9.17208e-05
9.39167e-05
9.72637e-05
0.000100985
0.000104557
0.000107633
0.000110004
0.000111574
0.000112339
0.000112437
0.000112002
0.000111232
0.000110354
0.000109606
0.000109237
0.000109414
0.000110335
0.00011214
0.000114931
0.000118771
0.000123686
0.000129665
0.00013667
0.000144634
0.000153473
0.000163086
0.000173362
0.000184183
0.000195429
0.00020698
0.000218721
0.000230542
0.000242343
0.000254037
0.000265553
0.000276838
0.000287859
0.000298604
0.000309081
0.000319311
0.000329328
0.000339164
0.00034884
0.000358352
0.000367661
0.000376671
0.000385226
0.000393095
0.000399977
0.000405509
0.000408913
0.000410028
0.000408656
0.000403825
0.000395109
0.000382212
0.00036501
0.000343611
0.000318401
0.000290059
0.000259556
0.000228099
0.000197073
0.000167969
0.000142377
0.000122119
0.000110177
0.000110747
0.000139179
0.000282078
0.000343146
0.000165565
0.000121212
0.000104772
9.87951e-05
9.78131e-05
9.94327e-05
0.000102349
0.000105736
0.000109038
0.000111889
0.000114067
0.000115466
0.000116093
0.000116083
0.00011557
0.000114762
0.000113893
0.000113208
0.000112951
0.000113293
0.000114435
0.00011651
0.000119616
0.000123811
0.000129112
0.000135501
0.000142928
0.000151318
0.000160577
0.000170593
0.000181246
0.00019241
0.000203957
0.000215765
0.000227714
0.000239696
0.000251617
0.000263399
0.000274983
0.000286335
0.000297441
0.000308312
0.000318979
0.000329485
0.00033988
0.000350209
0.000360502
0.000370753
0.000380916
0.000390882
0.000400474
0.000409439
0.000417449
0.000424113
0.00042873
0.000430678
0.000430267
0.000426285
0.000418215
0.000405726
0.000388644
0.000367026
0.000341208
0.000311848
0.000279919
0.00024668
0.000213615
0.000182368
0.000154716
0.000132704
0.000119664
0.000120116
0.000150742
0.000305299
0.000374767
0.00018057
0.000131693
0.000113169
0.000105984
0.000104221
0.000105289
0.000107799
0.00011087
0.000113917
0.000116549
0.000118536
0.000119759
0.000120241
0.00012011
0.000119508
0.000118652
0.000117781
0.000117153
0.000116998
0.000117503
0.000118861
0.000121204
0.000124623
0.000129168
0.000134849
0.000141637
0.000149473
0.000158272
0.000167928
0.00017832
0.00018932
0.000200794
0.00021261
0.000224641
0.000236767
0.000248886
0.00026091
0.000272773
0.000284432
0.000295871
0.000307096
0.000318141
0.000329055
0.000339899
0.000350735
0.000361617
0.000372573
0.000383593
0.000394616
0.00040552
0.000416106
0.000426099
0.000435149
0.000442832
0.000448552
0.000451352
0.000451723
0.000448569
0.000441146
0.000429106
0.000412233
0.000390522
0.000364253
0.000334036
0.000300826
0.00026591
0.000230854
0.000197442
0.000167647
0.00014375
0.000129463
0.000129648
0.000162342
0.000328459
0.00040724
0.000195983
0.000142477
0.000121835
0.000113443
0.000110914
0.00011145
0.000113573
0.000116345
0.000119146
0.000121566
0.000123358
0.000124399
0.00012473
0.000124465
0.000123763
0.000122846
0.000121963
0.000121385
0.000121325
0.000121987
0.000123558
0.000126163
0.000129889
0.000134777
0.000140827
0.000148001
0.000156229
0.000165414
0.000175442
0.000186183
0.0001975
0.000209253
0.000221306
0.000233531
0.000245813
0.000258053
0.000270174
0.000282124
0.000293877
0.000305434
0.000316823
0.000328094
0.000339314
0.000350557
0.000361891
0.000373371
0.000385019
0.000396815
0.000408683
0.000420481
0.000431993
0.000442924
0.000452908
0.000461502
0.000468145
0.000471801
0.00047279
0.000470421
0.000463628
0.000452069
0.000435483
0.000413806
0.000387249
0.000356357
0.000322044
0.000285596
0.00024864
0.000213086
0.000181101
0.000155219
0.000139551
0.000139334
0.000173974
0.000351552
0.000440551
0.000211795
0.00015355
0.000130758
0.000121152
0.000117867
0.000117888
0.000119639
0.000122125
0.000124689
0.000126897
0.000128491
0.000129343
0.000129513
0.000129102
0.000128286
0.000127298
0.000126393
0.000125859
0.000125884
0.000126699
0.000128476
0.000131338
0.000135363
0.000140583
0.000146989
0.000154532
0.000163132
0.000172681
0.000183056
0.000194117
0.000205721
0.000217725
0.00022999
0.000242389
0.000254812
0.000267169
0.000279395
0.00029145
0.000303327
0.000315045
0.000326649
0.000338206
0.000349793
0.000361491
0.000373371
0.000385482
0.000397836
0.0004104
0.000423078
0.000435712
0.000448067
0.000459834
0.000470637
0.000480022
0.000487436
0.000491864
0.000493363
0.000491704
0.000485506
0.000474435
0.000458196
0.000436663
0.000409974
0.000378594
0.000343374
0.00030557
0.00026684
0.000229204
0.000195018
0.000167077
0.000149906
0.000149166
0.000185638
0.000374582
0.000474688
0.000227998
0.000164904
0.000139922
0.000129096
0.000125057
0.00012458
0.000125971
0.000128181
0.000130512
0.000132508
0.000133896
0.000134554
0.00013455
0.000133981
0.000133039
0.000131969
0.000131033
0.000130534
0.000130639
0.000131599
0.000133576
0.000136686
0.000141
0.000146541
0.000153288
0.000161182
0.000170132
0.000180022
0.000190717
0.000202073
0.000213941
0.000226173
0.000238633
0.000251196
0.000263758
0.000276239
0.000288587
0.000300779
0.000312822
0.000324752
0.00033663
0.000348533
0.000360546
0.000372752
0.000385218
0.000397984
0.000411049
0.000424361
0.000437807
0.000451211
0.000464323
0.000476822
0.000488328
0.00049838
0.000506432
0.000511517
0.000513438
0.000512393
0.000506732
0.000496132
0.000480267
0.00045896
0.000432271
0.000400578
0.000364648
0.000325681
0.000285334
0.000245712
0.000209344
0.000179296
0.00016052
0.000159144
0.000197338
0.000397563
0.000509641
0.000244586
0.000176531
0.000149319
0.000137261
0.000132468
0.000131504
0.000132545
0.000134486
0.000136587
0.000138369
0.00013954
0.000140001
0.000139807
0.000139067
0.000137988
0.000136824
0.000135849
0.000135376
0.000135556
0.000136655
0.000138824
0.000142174
0.000146766
0.000152614
0.000159686
0.000167913
0.000177192
0.0001874
0.000198394
0.000210023
0.000222134
0.000234581
0.000247226
0.000259952
0.000272662
0.000285288
0.000297789
0.000310159
0.00032242
0.000334621
0.000346835
0.000359146
0.000371643
0.000384406
0.000397494
0.000410933
0.000424705
0.000438742
0.000452912
0.000467021
0.000480808
0.000493944
0.000506046
0.000516651
0.000525222
0.000530845
0.000533106
0.000532563
0.000527359
0.000517181
0.000501683
0.000480641
0.000454047
0.000422189
0.000385734
0.0003458
0.000304014
0.000262528
0.000224029
0.00019185
0.000171385
0.000169271
0.000209086
0.000420518
0.000545398
0.000261553
0.000188423
0.000158938
0.000145634
0.000140087
0.000138644
0.000139343
0.000141019
0.00014289
0.000144454
0.0001454
0.000145655
0.000145256
0.000144332
0.000143104
0.000141837
0.000140813
0.000140356
0.000140609
0.000141838
0.000144192
0.000147772
0.000152631
0.000158773
0.000166154
0.000174695
0.000184285
0.000194791
0.000206065
0.000217951
0.000230294
0.000242948
0.000255781
0.00026868
0.000281558
0.000294359
0.000307056
0.000319656
0.000332193
0.00034473
0.000357345
0.000370129
0.000383166
0.000396531
0.000410271
0.000424397
0.000438874
0.000453613
0.000468466
0.000483226
0.000497619
0.000511311
0.000523919
0.000534979
0.000543964
0.000550012
0.000552544
0.000552376
0.000547532
0.000537696
0.000522514
0.00050173
0.000475276
0.000443357
0.000406533
0.000365822
0.000322781
0.000279577
0.000239025
0.000204716
0.000182496
0.000179552
0.000220892
0.000443475
0.00058195
0.000278892
0.000200574
0.000168772
0.000154206
0.000147903
0.000145985
0.000146347
0.000147761
0.000149401
0.000150737
0.000151451
0.000151487
0.000150869
0.000149749
0.000148361
0.000146981
0.000145903
0.000145455
0.000145774
0.000147127
0.000149658
0.00015346
0.000158575
0.000164997
0.000172672
0.000181511
0.000191395
0.000202184
0.000213724
0.000225857
0.000238429
0.000251294
0.000264325
0.000277418
0.000290496
0.000303514
0.000316457
0.000329346
0.000342225
0.000355166
0.000368251
0.000381569
0.000395202
0.000409213
0.000423635
0.000438462
0.000453641
0.000469066
0.000484573
0.00049994
0.000514887
0.000529075
0.000542123
0.000553562
0.000562875
0.000569245
0.000571998
0.000572067
0.000567472
0.00055787
0.000542909
0.00052232
0.000495994
0.000464062
0.000426985
0.00038566
0.000341549
0.000296789
0.000254287
0.000217874
0.000193849
0.000189993
0.000232771
0.000466463
0.000619285
0.000296597
0.000212978
0.000178813
0.000162968
0.000155905
0.000153513
0.000153544
0.000154695
0.0001561
0.000157196
0.000157677
0.000157475
0.000156625
0.000155297
0.000153738
0.000152237
0.000151099
0.000150655
0.000151034
0.000152506
0.000155208
0.000159223
0.000164584
0.000171274
0.00017923
0.000188354
0.000198519
0.00020958
0.000221379
0.000233757
0.00024656
0.000259648
0.000272899
0.000286217
0.000299536
0.000312822
0.000326072
0.000339315
0.000352607
0.000366021
0.000379644
0.00039356
0.000407842
0.000422541
0.000437675
0.000453221
0.000469106
0.00048521
0.000501353
0.000517303
0.000532773
0.000547422
0.000560867
0.000572637
0.000582219
0.000588825
0.000591739
0.00059193
0.000587461
0.000577958
0.000563086
0.000542575
0.000516299
0.00048434
0.000447067
0.000405255
0.000360241
0.000314094
0.000269765
0.000231297
0.000205437
0.000200602
0.000244738
0.000489514
0.000657393
0.000314662
0.00022563
0.000189055
0.000171913
0.000164084
0.000161215
0.000160919
0.000161806
0.000162971
0.000163815
0.000164055
0.000163599
0.000162504
0.000160956
0.000159217
0.000157588
0.000156386
0.000155942
0.000156379
0.000157966
0.000160833
0.000165054
0.000170652
0.0001776
0.000185827
0.000195225
0.000205663
0.000216991
0.000229048
0.000241677
0.000254725
0.000268057
0.000281558
0.000295142
0.000308752
0.000322364
0.000335986
0.000349655
0.000363431
0.000377392
0.000391621
0.000406195
0.000421179
0.000436609
0.000452487
0.000468772
0.000485377
0.000502163
0.000518941
0.000535469
0.000551453
0.000566551
0.000580378
0.000592459
0.000602281
0.00060906
0.000612067
0.000612297
0.000607826
0.000598269
0.000583317
0.000562717
0.00053635
0.000504275
0.000466796
0.000424571
0.000378797
0.000331428
0.000285411
0.000244961
0.000217253
0.000211384
0.000256804
0.000512656
0.000696262
0.000333081
0.000238523
0.000199492
0.000181033
0.000172434
0.000169082
0.000168461
0.00016908
0.000169995
0.000170582
0.000170566
0.000169841
0.00016849
0.000166712
0.000164785
0.000163023
0.000161756
0.000161308
0.000161801
0.000163501
0.00016653
0.000170953
0.000176782
0.000183981
0.000192471
0.000202138
0.000212846
0.000224441
0.000236763
0.000249655
0.000262969
0.000276575
0.000290367
0.000304265
0.000318223
0.000332226
0.00034629
0.000360458
0.000374794
0.000389373
0.000404275
0.00041957
0.000435308
0.000451512
0.000468168
0.000485219
0.000502562
0.000520047
0.000537473
0.000554591
0.000571102
0.000586662
0.000600882
0.000613282
0.000623344
0.00063026
0.000633306
0.000633514
0.000628915
0.000619147
0.000603921
0.00058302
0.000556357
0.000524005
0.000486233
0.000443605
0.000397169
0.00034873
0.000301175
0.000258835
0.000229288
0.000222342
0.000268982
0.000535913
0.000735882
0.000351848
0.000251652
0.000210119
0.000190322
0.000180944
0.000177106
0.000176159
0.000176505
0.000177157
0.000177484
0.000177193
0.000176188
0.000174568
0.000172552
0.000170433
0.000168535
0.000167203
0.000166752
0.000167302
0.000169115
0.000172305
0.000176926
0.000182983
0.00019043
0.00019918
0.000209116
0.000220096
0.000231965
0.000244565
0.000257741
0.000271351
0.000285269
0.000299398
0.000313666
0.000328036
0.0003425
0.000357079
0.000371822
0.000386791
0.00040206
0.000417702
0.000433775
0.00045032
0.000467342
0.000484813
0.000502661
0.000520771
0.000538981
0.000557083
0.000574821
0.000591891
0.000607947
0.000622595
0.000635346
0.000645674
0.000652722
0.000655778
0.00065592
0.000651086
0.000640951
0.000625246
0.000603798
0.00057658
0.000543715
0.000505483
0.000462386
0.000415332
0.000365948
0.000317002
0.000272885
0.000241526
0.000233475
0.000281278
0.000559304
0.00077624
0.000370957
0.000265013
0.00022093
0.000199775
0.000189609
0.00018528
0.000184
0.000184068
0.000184446
0.000184505
0.000183923
0.000182625
0.000180728
0.000178467
0.000176153
0.000174121
0.000172727
0.000172277
0.000172887
0.000174817
0.000178169
0.00018299
0.000189275
0.000196971
0.000205984
0.000216192
0.000227452
0.00023961
0.000252508
0.000265997
0.000279938
0.000294214
0.000308733
0.000323433
0.000338282
0.000353279
0.000368449
0.000383841
0.000399518
0.000415547
0.000431992
0.000448902
0.000466303
0.000484188
0.000502513
0.000521195
0.000540107
0.000559077
0.000577892
0.000596293
0.00061397
0.000630573
0.000645704
0.000658862
0.000669506
0.000676717
0.000679783
0.000679835
0.000674686
0.000664044
0.000647654
0.000625395
0.000597319
0.000563639
0.000524695
0.000480978
0.000433279
0.000383036
0.000332841
0.000287069
0.000253949
0.00024478
0.000293697
0.000582839
0.000817323
0.000390402
0.0002786
0.00023192
0.000209385
0.000198423
0.000193598
0.000191973
0.000191756
0.000191858
0.000191629
0.000190744
0.000189142
0.000186961
0.000184453
0.000181944
0.000179782
0.000178335
0.000177892
0.00017857
0.000180622
0.000184144
0.00018917
0.000195687
0.000203636
0.000212919
0.00022341
0.000234965
0.000247432
0.000260657
0.000274493
0.000288808
0.000303493
0.000318462
0.000333658
0.000349057
0.00036466
0.000380497
0.000396613
0.000413068
0.000429924
0.000447234
0.000465036
0.000483343
0.000502134
0.000521354
0.000540908
0.00056066
0.000580433
0.000600008
0.000619122
0.000637466
0.000654682
0.000670366
0.000684005
0.000695036
0.000702475
0.000705584
0.000705543
0.000700034
0.000688773
0.000671509
0.000648168
0.000618901
0.000584046
0.00054406
0.000499482
0.000451033
0.000399962
0.000348639
0.000301345
0.00026653
0.000256247
0.000306236
0.000606519
0.000859119
0.000410175
0.000292407
0.000243084
0.000219148
0.000207379
0.000202053
0.000200074
0.000199561
0.000199377
0.000198847
0.000197647
0.000195733
0.000193263
0.000190508
0.000187811
0.000185527
0.000184039
0.000183612
0.00018437
0.000186557
0.000190257
0.000195498
0.000202258
0.000210471
0.000220035
0.000230825
0.000242697
0.000255499
0.000269084
0.000283309
0.000298048
0.000313197
0.000328678
0.00034444
0.00036046
0.000376745
0.000393321
0.000410234
0.000427537
0.000445282
0.000463515
0.000482261
0.00050152
0.00052126
0.000541414
0.000561879
0.000582511
0.000603131
0.000623516
0.000643402
0.000662476
0.000680378
0.000696696
0.000710901
0.00072241
0.000730173
0.000733398
0.000733279
0.000727407
0.000715454
0.000697155
0.000672478
0.000641676
0.000605243
0.000563811
0.00051804
0.000468645
0.000416709
0.000364346
0.000315663
0.000279239
0.00026786
0.00031889
0.000630335
0.000901615
0.00043027
0.000306429
0.000254416
0.000229057
0.000216471
0.000210635
0.000208293
0.000207474
0.000206993
0.000206149
0.000204624
0.000202393
0.000199633
0.000196636
0.00019376
0.000191368
0.000189857
0.000189461
0.000190317
0.000192654
0.000196548
0.000202018
0.000209035
0.000217528
0.000227394
0.000238505
0.00025072
0.000263892
0.000277876
0.000292536
0.000307752
0.000323427
0.000339485
0.000355881
0.000372596
0.000389635
0.000407023
0.000424802
0.000443016
0.000461711
0.00048092
0.000500656
0.00052091
0.000541637
0.000562763
0.000584175
0.000605728
0.000627238
0.000648482
0.000669196
0.000689067
0.000707731
0.000724767
0.000739634
0.000751721
0.00075994
0.000763368
0.000763231
0.000757033
0.00074436
0.000724909
0.00069867
0.000665994
0.000627556
0.000584216
0.000536832
0.000486198
0.000433279
0.000379919
0.000329971
0.000292038
0.0002796
0.000331644
0.000654265
0.000944795
0.00045068
0.000320661
0.000265912
0.000239108
0.000225692
0.000219338
0.000216622
0.00021549
0.000214697
0.000213527
0.00021167
0.00020912
0.000206074
0.000202846
0.000199806
0.000197326
0.000195816
0.00019547
0.000196446
0.000198956
0.000203065
0.000208784
0.00021608
0.000224875
0.000235067
0.000246528
0.00025912
0.0002727
0.000287129
0.000302276
0.000318027
0.000334289
0.000350993
0.000368094
0.000385573
0.000403437
0.000421707
0.000440415
0.0004596
0.000479298
0.00049953
0.0005203
0.000541586
0.000563334
0.000585463
0.000607856
0.000630364
0.000652802
0.00067495
0.000696545
0.000717276
0.000736773
0.000754612
0.000770237
0.00078301
0.000791837
0.000795584
0.000795515
0.000789072
0.000775705
0.000755041
0.000727062
0.000692202
0.000651326
0.000605568
0.000556074
0.000503808
0.000449697
0.000395324
0.000344216
0.000304885
0.000291438
0.00034448
0.000678278
0.000988645
0.000471398
0.000335097
0.000277565
0.000249296
0.000235038
0.000228155
0.000225056
0.000223598
0.000222482
0.000220978
0.000218784
0.000215916
0.000212593
0.00020915
0.000205969
0.000203428
0.000201949
0.000201678
0.000202805
0.000205516
0.000209867
0.000215863
0.000223464
0.000232592
0.00024314
0.000254986
0.000267995
0.000282028
0.000296952
0.000312642
0.000328989
0.000345903
0.00036332
0.000381194
0.000399509
0.000418266
0.00043748
0.000457177
0.000477388
0.000498135
0.000519432
0.000541271
0.000563619
0.000586416
0.000609574
0.000632973
0.000656462
0.00067986
0.000702948
0.000725468
0.000747111
0.000767507
0.000786226
0.000802702
0.000816266
0.000825858
0.000830083
0.00083018
0.000823621
0.000809641
0.000787765
0.000757929
0.00072062
0.000676891
0.000628185
0.000576013
0.000521627
0.000466015