/*--------------------------------*- C++ -*----------------------------------*\
  =========                 |
  \\      /  F ield         | OpenFOAM: The Open Source CFD Toolbox
   \\    /   O peration     | Website:  https://openfoam.org
    \\  /    A nd           | Version:  12
     \\/     M anipulation  |
\*---------------------------------------------------------------------------*/
FoamFile
{
    format      ascii;
    class       volScalarField;
    location    "1";
    object      k;
}
// * * * * * * * * * * * * * * * * * * * * * * * * * * * * * * * * * * * * * //

dimensions      [0 2 -2 0 0 0 0];

internalField   nonuniform List<scalar> 
5625
(
1.37389e-09
9.27105e-09
2.0416e-08
3.32492e-08
4.68638e-08
6.05658e-08
7.37805e-08
8.60314e-08
9.69394e-08
1.06228e-07
1.13726e-07
1.19369e-07
1.23195e-07
1.25329e-07
1.25995e-07
1.2546e-07
1.24024e-07
1.22004e-07
1.19721e-07
1.17473e-07
1.15528e-07
1.14109e-07
1.13401e-07
1.135e-07
1.14494e-07
1.16417e-07
1.19267e-07
1.23013e-07
1.27602e-07
1.32969e-07
1.3904e-07
1.45742e-07
1.53007e-07
1.60769e-07
1.68975e-07
1.77578e-07
1.86537e-07
1.95818e-07
2.05388e-07
2.15216e-07
2.25265e-07
2.35493e-07
2.45847e-07
2.56262e-07
2.66655e-07
2.76921e-07
2.86936e-07
2.96547e-07
3.05574e-07
3.13807e-07
3.21005e-07
3.26898e-07
3.31179e-07
3.3338e-07
3.33657e-07
3.31515e-07
3.26627e-07
3.18808e-07
3.07965e-07
2.94111e-07
2.7738e-07
2.58038e-07
2.36483e-07
2.13228e-07
1.8887e-07
1.64053e-07
1.39416e-07
1.1555e-07
9.29515e-08
7.20081e-08
5.29929e-08
3.60981e-08
2.15113e-08
9.59072e-09
1.4155e-09
1.03777e-08
8.25405e-08
1.83131e-07
2.98741e-07
4.21322e-07
5.44658e-07
6.63589e-07
7.73831e-07
8.71976e-07
9.55533e-07
1.02297e-06
1.07371e-06
1.10809e-06
1.12725e-06
1.13319e-06
1.12834e-06
1.11539e-06
1.0972e-06
1.07665e-06
1.05643e-06
1.03894e-06
1.0262e-06
1.01987e-06
1.0208e-06
1.02979e-06
1.04714e-06
1.07283e-06
1.10658e-06
1.14791e-06
1.19622e-06
1.25087e-06
1.31119e-06
1.37655e-06
1.44639e-06
1.52022e-06
1.5976e-06
1.67819e-06
1.76167e-06
1.84776e-06
1.93616e-06
2.02655e-06
2.11855e-06
2.21169e-06
2.30538e-06
2.39888e-06
2.49125e-06
2.58137e-06
2.66786e-06
2.74911e-06
2.82322e-06
2.88804e-06
2.94114e-06
2.97976e-06
2.99955e-06
3.00199e-06
2.9826e-06
2.93849e-06
2.868e-06
2.7703e-06
2.64552e-06
2.49488e-06
2.32077e-06
2.12676e-06
1.91749e-06
1.69832e-06
1.47505e-06
1.25343e-06
1.03875e-06
8.35495e-07
6.4713e-07
4.76105e-07
3.24127e-07
1.92842e-07
8.53387e-08
1.06894e-08
2.20025e-08
1.88095e-07
4.20088e-07
6.8675e-07
9.69444e-07
1.25383e-06
1.52799e-06
1.78207e-06
2.0082e-06
2.20065e-06
2.3559e-06
2.47262e-06
2.55164e-06
2.59555e-06
2.60904e-06
2.59775e-06
2.56784e-06
2.52596e-06
2.47873e-06
2.43237e-06
2.39241e-06
2.36348e-06
2.34945e-06
2.35214e-06
2.37345e-06
2.41404e-06
2.47386e-06
2.55222e-06
2.64804e-06
2.75992e-06
2.88636e-06
3.02583e-06
3.17689e-06
3.33824e-06
3.50875e-06
3.68745e-06
3.87352e-06
4.06625e-06
4.26497e-06
4.46901e-06
4.67764e-06
4.88996e-06
5.10489e-06
5.32104e-06
5.53669e-06
5.74968e-06
5.95739e-06
6.15665e-06
6.34372e-06
6.51423e-06
6.66322e-06
6.78507e-06
6.87353e-06
6.91796e-06
6.92322e-06
6.878e-06
6.77567e-06
6.61247e-06
6.38655e-06
6.0982e-06
5.75022e-06
5.34816e-06
4.90029e-06
4.41728e-06
3.91157e-06
3.39652e-06
2.88543e-06
2.39051e-06
1.92208e-06
1.4881e-06
1.09417e-06
7.44169e-07
4.41818e-07
1.94258e-07
2.26317e-08
3.59108e-08
3.14589e-07
7.06043e-07
1.15662e-06
1.6344e-06
2.11499e-06
2.57821e-06
3.00735e-06
3.38913e-06
3.71385e-06
3.97558e-06
4.17213e-06
4.30493e-06
4.37837e-06
4.40054e-06
4.381e-06
4.33019e-06
4.25938e-06
4.17978e-06
4.10192e-06
4.0351e-06
3.98714e-06
3.96461e-06
3.97035e-06
4.00766e-06
4.07759e-06
4.17999e-06
4.3137e-06
4.47682e-06
4.66699e-06
4.88165e-06
5.11823e-06
5.3743e-06
5.64767e-06
5.93642e-06
6.23894e-06
6.55384e-06
6.87993e-06
7.21607e-06
7.56114e-06
7.91386e-06
8.27273e-06
8.63586e-06
9.00091e-06
9.36494e-06
9.7243e-06
1.00745e-05
1.04103e-05
1.07253e-05
1.10121e-05
1.12625e-05
1.1467e-05
1.16151e-05
1.16879e-05
1.16961e-05
1.16189e-05
1.1445e-05
1.11684e-05
1.07858e-05
1.02978e-05
9.70892e-06
9.02865e-06
8.27091e-06
7.4538e-06
6.59843e-06
5.72752e-06
4.86364e-06
4.02749e-06
3.23654e-06
2.5042e-06
1.83983e-06
1.24984e-06
7.40464e-07
3.23987e-07
3.68263e-08
5.16484e-08
4.56955e-07
1.02916e-06
1.689e-06
2.38906e-06
3.09326e-06
3.77187e-06
4.40031e-06
4.95907e-06
5.43394e-06
5.81626e-06
6.1029e-06
6.29603e-06
6.4021e-06
6.43328e-06
6.40365e-06
6.32855e-06
6.22458e-06
6.10823e-06
5.99491e-06
5.89824e-06
5.82964e-06
5.79872e-06
5.80938e-06
5.86642e-06
5.97135e-06
6.12384e-06
6.32212e-06
6.56335e-06
6.84403e-06
7.16039e-06
7.50865e-06
7.88524e-06
8.28695e-06
8.71101e-06
9.15503e-06
9.61699e-06
1.00951e-05
1.05877e-05
1.10932e-05
1.16095e-05
1.21346e-05
1.26654e-05
1.31987e-05
1.37301e-05
1.42542e-05
1.47645e-05
1.52533e-05
1.57114e-05
1.61281e-05
1.64915e-05
1.6788e-05
1.7002e-05
1.71055e-05
1.71167e-05
1.70028e-05
1.67478e-05
1.63425e-05
1.57824e-05
1.50678e-05
1.42053e-05
1.32084e-05
1.20977e-05
1.08996e-05
9.64537e-06
8.36854e-06
7.10247e-06
5.87777e-06
4.72016e-06
3.64924e-06
2.67858e-06
1.81735e-06
1.07459e-06
4.68505e-07
5.27201e-08
6.88924e-08
6.1239e-07
1.38268e-06
2.2726e-06
3.21742e-06
4.16794e-06
5.08375e-06
5.93148e-06
6.68469e-06
7.32418e-06
7.8383e-06
8.22293e-06
8.48117e-06
8.62172e-06
8.66157e-06
8.61985e-06
8.5173e-06
8.37653e-06
8.21984e-06
8.06805e-06
7.93953e-06
7.84964e-06
7.81126e-06
7.82921e-06
7.91005e-06
8.05565e-06
8.26541e-06
8.53681e-06
8.86591e-06
9.24794e-06
9.67774e-06
1.01502e-05
1.06604e-05
1.12041e-05
1.17776e-05
1.23775e-05
1.30011e-05
1.36461e-05
1.431e-05
1.49906e-05
1.56852e-05
1.63908e-05
1.71034e-05
1.78185e-05
1.85302e-05
1.92312e-05
1.99131e-05
2.05654e-05
2.11762e-05
2.17313e-05
2.22149e-05
2.26094e-05
2.28933e-05
2.30288e-05
2.30435e-05
2.28905e-05
2.25481e-05
2.20041e-05
2.12517e-05
2.02909e-05
1.91301e-05
1.77871e-05
1.62893e-05
1.46727e-05
1.29797e-05
1.1256e-05
9.54729e-06
7.89537e-06
6.33525e-06
4.89348e-06
3.58818e-06
2.43143e-06
1.43521e-06
6.24072e-07
6.98926e-08
8.74286e-08
7.79135e-07
1.76232e-06
2.90009e-06
4.10894e-06
5.32531e-06
6.49703e-06
7.5811e-06
8.54352e-06
9.35968e-06
1.00147e-05
1.05035e-05
1.08302e-05
1.10061e-05
1.10537e-05
1.09976e-05
1.08646e-05
1.06837e-05
1.04836e-05
1.02911e-05
1.01295e-05
1.00185e-05
9.97426e-06
1.00025e-05
1.01116e-05
1.03036e-05
1.05777e-05
1.09303e-05
1.13564e-05
1.18496e-05
1.24032e-05
1.30107e-05
1.36658e-05
1.43629e-05
1.50972e-05
1.58646e-05
1.66613e-05
1.74842e-05
1.83304e-05
1.91967e-05
2.00796e-05
2.09751e-05
2.18783e-05
2.27831e-05
2.36823e-05
2.45669e-05
2.54261e-05
2.62471e-05
2.70151e-05
2.77126e-05
2.832e-05
2.88155e-05
2.91718e-05
2.93407e-05
2.936e-05
2.91676e-05
2.8735e-05
2.80466e-05
2.70929e-05
2.58728e-05
2.43963e-05
2.26854e-05
2.07746e-05
1.87099e-05
1.65459e-05
1.4342e-05
1.21574e-05
1.00463e-05
8.05422e-06
6.21526e-06
4.55252e-06
3.08109e-06
1.81595e-06
7.8803e-07
8.80379e-08
1.07112e-07
9.5599e-07
2.16514e-06
3.5664e-06
5.05627e-06
6.55567e-06
7.99972e-06
9.33501e-06
1.05194e-05
1.15224e-05
1.23257e-05
1.29234e-05
1.33209e-05
1.3532e-05
1.35859e-05
1.35129e-05
1.33463e-05
1.31223e-05
1.28763e-05
1.26413e-05
1.24461e-05
1.2315e-05
1.22669e-05
1.23089e-05
1.24509e-05
1.26954e-05
1.30407e-05
1.34823e-05
1.40137e-05
1.46269e-05
1.53135e-05
1.60653e-05
1.68746e-05
1.77343e-05
1.86385e-05
1.95818e-05
2.05598e-05
2.15684e-05
2.26037e-05
2.36619e-05
2.47384e-05
2.58284e-05
2.69258e-05
2.80232e-05
2.91119e-05
3.01812e-05
3.12184e-05
3.22085e-05
3.31339e-05
3.39741e-05
3.47059e-05
3.53033e-05
3.57332e-05
3.59371e-05
3.59627e-05
3.57322e-05
3.52094e-05
3.43747e-05
3.32153e-05
3.17287e-05
2.99257e-05
2.78321e-05
2.54898e-05
2.29552e-05
2.0296e-05
1.75859e-05
1.48989e-05
1.2303e-05
9.85502e-06
7.59756e-06
5.55911e-06
3.75792e-06
2.21195e-06
9.58362e-07
1.06918e-07
1.27842e-07
1.14209e-06
2.58907e-06
4.26793e-06
6.05406e-06
7.8519e-06
9.58294e-06
1.11826e-05
1.26e-05
1.37985e-05
1.47563e-05
1.54664e-05
1.59358e-05
1.61813e-05
1.62396e-05
1.61469e-05
1.59436e-05
1.56735e-05
1.53794e-05
1.51007e-05
1.48717e-05
1.47221e-05
1.46728e-05
1.47324e-05
1.49124e-05
1.52152e-05
1.56384e-05
1.61763e-05
1.68206e-05
1.75615e-05
1.83889e-05
1.92927e-05
2.02634e-05
2.12926e-05
2.23729e-05
2.34979e-05
2.46621e-05
2.58603e-05
2.70879e-05
2.83399e-05
2.96111e-05
3.08955e-05
3.21859e-05
3.34738e-05
3.47492e-05
3.6e-05
3.72117e-05
3.83674e-05
3.9447e-05
4.04273e-05
4.12816e-05
4.19799e-05
4.24837e-05
4.27238e-05
4.27574e-05
4.24911e-05
4.18796e-05
4.08992e-05
3.95333e-05
3.77775e-05
3.56426e-05
3.31585e-05
3.03739e-05
2.73557e-05
2.41848e-05
2.09502e-05
1.77416e-05
1.46414e-05
1.17191e-05
9.0264e-06
6.5979e-06
4.45523e-06
2.61937e-06
1.13346e-06
1.26346e-07
1.49542e-07
1.3368e-06
3.03258e-06
5.00199e-06
7.09833e-06
9.20862e-06
1.12399e-05
1.31157e-05
1.47759e-05
1.61773e-05
1.72944e-05
1.81194e-05
1.8661e-05
1.89392e-05
1.89994e-05
1.88839e-05
1.86408e-05
1.83219e-05
1.79777e-05
1.76544e-05
1.73922e-05
1.72261e-05
1.71784e-05
1.72597e-05
1.74828e-05
1.78497e-05
1.83572e-05
1.8998e-05
1.97618e-05
2.06371e-05
2.16116e-05
2.26731e-05
2.38104e-05
2.50136e-05
2.62737e-05
2.7583e-05
2.89349e-05
3.03233e-05
3.17424e-05
3.31864e-05
3.46492e-05
3.61237e-05
3.7602e-05
3.90745e-05
4.05302e-05
4.19556e-05
4.33351e-05
4.465e-05
4.58782e-05
4.69939e-05
4.79672e-05
4.87638e-05
4.93403e-05
4.96167e-05
4.96594e-05
4.93589e-05
4.86605e-05
4.75361e-05
4.59653e-05
4.3941e-05
4.14742e-05
3.85978e-05
3.53673e-05
3.18597e-05
2.81692e-05
2.44e-05
2.06576e-05
1.70402e-05
1.36302e-05
1.049e-05
7.66058e-06
5.16759e-06
3.03511e-06
1.31202e-06
1.46173e-07
1.72156e-07
1.53962e-06
3.49452e-06
5.76656e-06
8.18603e-06
1.06217e-05
1.29654e-05
1.5128e-05
1.70396e-05
1.86501e-05
1.99304e-05
2.08717e-05
2.14848e-05
2.17934e-05
2.18527e-05
2.17109e-05
2.14247e-05
2.10543e-05
2.06583e-05
2.029e-05
1.99954e-05
1.98153e-05
1.97721e-05
1.98794e-05
2.01505e-05
2.05871e-05
2.11847e-05
2.19342e-05
2.28233e-05
2.38382e-05
2.49642e-05
2.61874e-05
2.74945e-05
2.88736e-05
3.03144e-05
3.18079e-05
3.33461e-05
3.49219e-05
3.65286e-05
3.81594e-05
3.98073e-05
4.14646e-05
4.31225e-05
4.47708e-05
4.63975e-05
4.79886e-05
4.95272e-05
5.09931e-05
5.23627e-05
5.36075e-05
5.46944e-05
5.55853e-05
5.62313e-05
5.65423e-05
5.65939e-05
5.62593e-05
5.54748e-05
5.42082e-05
5.2435e-05
5.01457e-05
4.7351e-05
4.40864e-05
4.04134e-05
3.64187e-05
3.22086e-05
2.79024e-05
2.36216e-05
1.94801e-05
1.55745e-05
1.19783e-05
8.74028e-06
5.89056e-06
3.45665e-06
1.49296e-06
1.66278e-07
1.95639e-07
1.75017e-06
3.97399e-06
6.56007e-06
9.31481e-06
1.20879e-05
1.47552e-05
1.72142e-05
1.93849e-05
2.12098e-05
2.2656e-05
2.37143e-05
2.43975e-05
2.47334e-05
2.47884e-05
2.46168e-05
2.4284e-05
2.38595e-05
2.34102e-05
2.29967e-05
2.26706e-05
2.24793e-05
2.24437e-05
2.25813e-05
2.29053e-05
2.34167e-05
2.41094e-05
2.49725e-05
2.59913e-05
2.71496e-05
2.84303e-05
2.98171e-05
3.12949e-05
3.28498e-05
3.44698e-05
3.61447e-05
3.78651e-05
3.96229e-05
4.14104e-05
4.32202e-05
4.50444e-05
4.68748e-05
4.87021e-05
5.05156e-05
5.23029e-05
5.40492e-05
5.5737e-05
5.7345e-05
5.88476e-05
6.02141e-05
6.14082e-05
6.23875e-05
6.30972e-05
6.34387e-05
6.34967e-05
6.31257e-05
6.22541e-05
6.08463e-05
5.8874e-05
5.63251e-05
5.32099e-05
4.95662e-05
4.54606e-05
4.09879e-05
3.6266e-05
3.1428e-05
2.66109e-05
2.19444e-05
1.75399e-05
1.34829e-05
9.83133e-06
6.62052e-06
3.88193e-06
1.67542e-06
1.86562e-07
2.19957e-07
1.96815e-06
4.47028e-06
7.3813e-06
1.04828e-05
1.36047e-05
1.66059e-05
1.93703e-05
2.18067e-05
2.38504e-05
2.54645e-05
2.66396e-05
2.73904e-05
2.77501e-05
2.77972e-05
2.75916e-05
2.72087e-05
2.67276e-05
2.62236e-05
2.57647e-05
2.54085e-05
2.52089e-05
2.51841e-05
2.5356e-05
2.57374e-05
2.63281e-05
2.71204e-05
2.8101e-05
2.92528e-05
3.05567e-05
3.19934e-05
3.35441e-05
3.51915e-05
3.69198e-05
3.87156e-05
4.05668e-05
4.24632e-05
4.43955e-05
4.63554e-05
4.83345e-05
5.03247e-05
5.23173e-05
5.43028e-05
5.62704e-05
5.82073e-05
6.00984e-05
6.19255e-05
6.36661e-05
6.52929e-05
6.67728e-05
6.8066e-05
6.91261e-05
6.98907e-05
7.02559e-05
7.03158e-05
6.9903e-05
6.89415e-05
6.73921e-05
6.52238e-05
6.24221e-05
5.89968e-05
5.49872e-05
5.04639e-05
4.55288e-05
4.03094e-05
3.49511e-05
2.96058e-05
2.44187e-05
1.95161e-05
1.4997e-05
1.09291e-05
7.35458e-06
4.3093e-06
1.85869e-06
2.06946e-07
2.45082e-07
2.19333e-06
4.98284e-06
8.22929e-06
1.16886e-05
1.517e-05
1.8515e-05
2.15927e-05
2.43008e-05
2.65668e-05
2.835e-05
2.96407e-05
3.0456e-05
3.08354e-05
3.08703e-05
3.06265e-05
3.019e-05
2.96496e-05
2.90897e-05
2.85856e-05
2.82008e-05
2.79959e-05
2.79846e-05
2.81949e-05
2.86377e-05
2.93117e-05
3.02071e-05
3.1308e-05
3.25947e-05
3.40453e-05
3.56378e-05
3.73509e-05
3.91651e-05
4.10629e-05
4.30289e-05
4.505e-05
4.71147e-05
4.92127e-05
5.13352e-05
5.34733e-05
5.56187e-05
5.77626e-05
5.98953e-05
6.20062e-05
6.40823e-05
6.61084e-05
6.80652e-05
6.99292e-05
7.16712e-05
7.32552e-05
7.46383e-05
7.57696e-05
7.65774e-05
7.69569e-05
7.7012e-05
7.65489e-05
7.54926e-05
7.38004e-05
7.14388e-05
6.83918e-05
6.46686e-05
6.03093e-05
5.53874e-05
5.00099e-05
4.43124e-05
3.8451e-05
3.25906e-05
2.68914e-05
2.14952e-05
1.6515e-05
1.20301e-05
8.09051e-06
4.7375e-06
2.04222e-06
2.27367e-07
2.70993e-07
2.4255e-06
5.51122e-06
9.10325e-06
1.2931e-05
1.67822e-05
2.04801e-05
2.38786e-05
2.68636e-05
2.93547e-05
3.13071e-05
3.27115e-05
3.35875e-05
3.3982e-05
3.40001e-05
3.37134e-05
3.32196e-05
3.26175e-05
3.20005e-05
3.14515e-05
3.10397e-05
3.08324e-05
3.08376e-05
3.10898e-05
3.15975e-05
3.23581e-05
3.33592e-05
3.45823e-05
3.60047e-05
3.76016e-05
3.93483e-05
4.1221e-05
4.3198e-05
4.52598e-05
4.73896e-05
4.95729e-05
5.17972e-05
5.40518e-05
5.63269e-05
5.86139e-05
6.09041e-05
6.31889e-05
6.5459e-05
6.77036e-05
6.99099e-05
7.20619e-05
7.41399e-05
7.61186e-05
7.79665e-05
7.9645e-05
8.11074e-05
8.2299e-05
8.31359e-05
8.35181e-05
8.35599e-05
8.30355e-05
8.18779e-05
8.00402e-05
7.74876e-05
7.42031e-05
7.0195e-05
6.55038e-05
6.02047e-05
5.44082e-05
4.82555e-05
4.19116e-05
3.55529e-05
2.93536e-05
2.34709e-05
1.80329e-05
1.31318e-05
8.8267e-06
5.16561e-06
2.22561e-06
2.47781e-07
2.9767e-07
2.6645e-06
6.05505e-06
1.00025e-05
1.4209e-05
1.84398e-05
2.24993e-05
2.62255e-05
2.94919e-05
3.22099e-05
3.43311e-05
3.58466e-05
3.67784e-05
3.71835e-05
3.71794e-05
3.68452e-05
3.62902e-05
3.56239e-05
3.49488e-05
3.43553e-05
3.39183e-05
3.37113e-05
3.37357e-05
3.4033e-05
3.46088e-05
3.54584e-05
3.65671e-05
3.79132e-05
3.9471e-05
4.12127e-05
4.31109e-05
4.51393e-05
4.72739e-05
4.94936e-05
5.17801e-05
5.41176e-05
5.64929e-05
5.88948e-05
6.13134e-05
6.37399e-05
6.61658e-05
6.85829e-05
7.09821e-05
7.33526e-05
7.56816e-05
7.79524e-05
8.0144e-05
8.22293e-05
8.41743e-05
8.59371e-05
8.74675e-05
8.87072e-05
8.95581e-05
8.99308e-05
8.99479e-05
8.93501e-05
8.80832e-05
8.60967e-05
8.33545e-05
7.98394e-05
7.55592e-05
7.0554e-05
6.48997e-05
5.87085e-05
5.21255e-05
4.5322e-05
3.84841e-05
3.1799e-05
2.54391e-05
1.9548e-05
1.42323e-05
9.56212e-06
5.59301e-06
2.40859e-06
2.68156e-07
3.25099e-07
2.91021e-06
6.61401e-06
1.09266e-05
1.55217e-05
2.01417e-05
2.4571e-05
2.86311e-05
3.21828e-05
3.51291e-05
3.74176e-05
3.90408e-05
4.0023e-05
4.04336e-05
4.04014e-05
4.00148e-05
3.9395e-05
3.86621e-05
3.7928e-05
3.72906e-05
3.68302e-05
3.66259e-05
3.66725e-05
3.70176e-05
3.76639e-05
3.86045e-05
3.98216e-05
4.12907e-05
4.29826e-05
4.48669e-05
4.6913e-05
4.90924e-05
5.13791e-05
5.37501e-05
5.61859e-05
5.867e-05
6.11883e-05
6.37294e-05
6.62834e-05
6.88417e-05
7.13963e-05
7.39391e-05
7.64612e-05
7.89522e-05
8.13984e-05
8.37825e-05
8.60816e-05
8.82665e-05
9.03e-05
9.21371e-05
9.37239e-05
9.49985e-05
9.5848e-05
9.62021e-05
9.61785e-05
9.54956e-05
9.41106e-05
9.19709e-05
8.90393e-05
8.52991e-05
8.07579e-05
7.54551e-05
6.94664e-05
6.29042e-05
5.59156e-05
4.8676e-05
4.13794e-05
3.42241e-05
2.73973e-05
2.10589e-05
1.5331e-05
1.02963e-05
6.0194e-06
2.59099e-06
2.88474e-07
3.53266e-07
3.1625e-06
7.18784e-06
1.1875e-05
1.68686e-05
2.18868e-05
2.66937e-05
3.10936e-05
3.49337e-05
3.81087e-05
4.05627e-05
4.22893e-05
4.33158e-05
4.37263e-05
4.36601e-05
4.32161e-05
4.25276e-05
4.17259e-05
4.09321e-05
4.02511e-05
3.977e-05
3.95693e-05
3.96422e-05
4.00371e-05
4.07558e-05
4.17885e-05
4.31144e-05
4.47056e-05
4.65299e-05
4.85537e-05
5.07437e-05
5.30692e-05
5.55021e-05
5.80182e-05
6.05967e-05
6.32203e-05
6.58747e-05
6.85484e-05
7.12317e-05
7.39164e-05
7.65947e-05
7.92591e-05
8.19008e-05
8.45089e-05
8.70693e-05
8.9563e-05
9.19652e-05
9.42437e-05
9.63584e-05
9.82604e-05
9.98922e-05
0.000101189
0.000102022
0.000102353
0.000102269
0.00010149
9.99775e-05
9.76792e-05
9.45569e-05
9.0595e-05
8.5801e-05
8.02139e-05
7.39085e-05
6.69965e-05
5.96251e-05
5.19721e-05
4.42368e-05
3.66273e-05
2.93446e-05
2.25651e-05
1.64276e-05
1.10291e-05
6.44473e-06
2.77277e-06
3.08729e-07
3.82161e-07
3.42128e-06
7.7763e-06
1.28474e-05
1.82488e-05
2.36742e-05
2.88661e-05
3.36109e-05
3.77422e-05
4.11456e-05
4.37622e-05
4.55874e-05
4.66516e-05
4.70558e-05
4.69496e-05
4.64431e-05
4.56822e-05
4.48095e-05
4.39554e-05
4.32317e-05
4.27325e-05
4.25372e-05
4.26385e-05
4.30854e-05
4.38781e-05
4.50037e-05
4.64381e-05
4.81502e-05
5.01045e-05
5.22643e-05
5.45941e-05
5.70608e-05
5.96347e-05
6.22901e-05
6.50055e-05
6.77631e-05
7.05485e-05
7.33503e-05
7.61591e-05
7.8967e-05
8.17671e-05
8.45517e-05
8.7312e-05
9.00367e-05
9.27103e-05
9.5312e-05
9.78145e-05
0.000100182
0.000102372
0.000104331
0.000105998
0.000107305
0.00010811
0.000108411
0.000108251
0.000107365
0.000105716
0.000103253
9.99361e-05
9.57527e-05
9.07102e-05
8.48476e-05
7.82385e-05
7.09935e-05
6.32587e-05
5.52124e-05
4.70573e-05
3.90092e-05
3.12815e-05
2.40672e-05
1.75228e-05
1.1761e-05
6.86919e-06
2.95398e-06
3.28925e-07
4.11773e-07
3.68644e-06
8.37918e-06
1.38433e-05
1.96619e-05
2.55031e-05
3.1087e-05
3.61814e-05
4.06057e-05
4.42367e-05
4.70123e-05
4.89307e-05
5.00251e-05
5.04169e-05
5.02644e-05
4.96902e-05
4.88534e-05
4.79079e-05
4.69932e-05
4.62277e-05
4.57128e-05
4.55248e-05
4.56567e-05
4.61575e-05
4.70254e-05
4.82441e-05
4.97865e-05
5.16177e-05
5.36994e-05
5.5992e-05
5.84576e-05
6.10611e-05
6.37713e-05
6.65615e-05
6.94095e-05
7.22973e-05
7.52107e-05
7.81383e-05
8.10713e-05
8.40025e-05
8.69248e-05
8.9831e-05
9.27119e-05
9.55549e-05
9.83432e-05
0.000101054
0.000103656
0.000106111
0.000108372
0.000110381
0.000112076
0.000113384
0.000114151
0.000114416
0.000114167
0.000113164
0.00011137
0.000108734
0.000105218
0.00010081
9.55181e-05
8.93827e-05
8.24769e-05
7.49099e-05
6.68261e-05
5.84028e-05
4.98442e-05
4.13717e-05
3.32095e-05
2.55665e-05
1.86175e-05
1.24928e-05
7.29315e-06
3.13474e-06
3.49077e-07
4.42091e-07
3.95791e-06
8.99629e-06
1.48623e-05
2.11072e-05
2.73724e-05
3.3355e-05
3.88032e-05
4.35219e-05
4.73789e-05
5.03093e-05
5.23145e-05
5.34313e-05
5.38043e-05
5.35991e-05
5.29523e-05
5.20363e-05
5.10164e-05
5.00411e-05
4.92352e-05
4.87072e-05
4.8528e-05
4.86927e-05
4.92492e-05
5.01931e-05
5.15051e-05
5.31544e-05
5.51032e-05
5.73097e-05
5.97321e-05
6.233e-05
6.50667e-05
6.79097e-05
7.08317e-05
7.38099e-05
7.68262e-05
7.98668e-05
8.29206e-05
8.59794e-05
8.90363e-05
9.20845e-05
9.51164e-05
9.81221e-05
0.000101088
0.000103994
0.000106816
0.000109519
0.000112062
0.000114392
0.00011645
0.000118167
0.00011947
0.000120193
0.000120416
0.00012007
0.000118943
0.000116995
0.000114178
0.000110454
0.000105813
0.000100266
9.38541e-05
8.66511e-05
7.87658e-05
7.03409e-05
6.1552e-05
5.26028e-05
4.37181e-05
3.51309e-05
2.70647e-05
1.97132e-05
1.32253e-05
7.71713e-06
3.31524e-06
3.69203e-07
4.73109e-07
4.2356e-06
9.62741e-06
1.59043e-05
2.25843e-05
2.92816e-05
3.56689e-05
4.14746e-05
4.64884e-05
5.05691e-05
5.36493e-05
5.57345e-05
5.68654e-05
5.7213e-05
5.69488e-05
5.62246e-05
5.52263e-05
5.41309e-05
5.30955e-05
5.22507e-05
5.17124e-05
5.15439e-05
5.17435e-05
5.23572e-05
5.3378e-05
5.47832e-05
5.65386e-05
5.86032e-05
6.09325e-05
6.34821e-05
6.62097e-05
6.90772e-05
7.20511e-05
7.51034e-05
7.82113e-05
8.13569e-05
8.45264e-05
8.77095e-05
9.08984e-05
9.40862e-05
9.72663e-05
0.000100431
0.000103568
0.000106663
0.000109694
0.000112632
0.000115441
0.000118073
0.000120474
0.00012258
0.000124319
0.000125613
0.000126289
0.000126469
0.00012602
0.000124761
0.000122653
0.000119645
0.000115702
0.000110817
0.000105003
9.83031e-05
9.07945e-05
8.25864e-05
7.38208e-05
6.46714e-05
5.53401e-05
4.60526e-05
3.70483e-05
2.85639e-05
2.08114e-05
1.39597e-05
8.14174e-06
3.49572e-06
3.89328e-07
5.04815e-07
4.51943e-06
1.02724e-05
1.69687e-05
2.40926e-05
3.12295e-05
3.80275e-05
4.41938e-05
4.95026e-05
5.3804e-05
5.70286e-05
5.91859e-05
6.03225e-05
6.06382e-05
6.03088e-05
5.95027e-05
5.84197e-05
5.72481e-05
5.61533e-05
5.52717e-05
5.4726e-05
5.45701e-05
5.48069e-05
5.54795e-05
5.6578e-05
5.80764e-05
5.99373e-05
6.21164e-05
6.45669e-05
6.7242e-05
7.00978e-05
7.30951e-05
7.61995e-05
7.93829e-05
8.26222e-05
8.59e-05
8.92028e-05
9.25208e-05
9.58465e-05
9.91732e-05
0.000102494
0.0001058
0.000109078
0.000112311
0.000115475
0.000118537
0.000121456
0.000124183
0.000126659
0.000128817
0.000130581
0.000131865
0.000132496
0.000132633
0.000132079
0.000130685
0.000128409
0.000125202
0.000121028
0.000115882
0.000109782
0.000102777
9.49456e-05
8.64011e-05
7.72868e-05
6.77746e-05
5.80642e-05
4.83799e-05
3.89648e-05
3.00662e-05
2.19139e-05
1.46972e-05
8.56765e-06
3.67642e-06
4.09481e-07
5.37201e-07
4.80932e-06
1.0931e-05
1.80553e-05
2.56315e-05
3.32155e-05
4.04293e-05
4.69588e-05
5.25621e-05
5.70805e-05
6.04433e-05
6.26642e-05
6.37978e-05
6.40753e-05
6.36747e-05
6.27826e-05
6.16129e-05
6.0365e-05
5.92125e-05
5.82965e-05
5.77466e-05
5.76055e-05
5.78819e-05
5.86152e-05
5.97924e-05
6.13843e-05
6.33503e-05
6.56433e-05
6.82141e-05
7.10141e-05
7.39981e-05
7.71256e-05
8.03622e-05
8.36792e-05
8.7054e-05
9.04693e-05
9.39122e-05
9.73732e-05
0.000100845
0.000104321
0.000107793
0.000111251
0.000114681
0.000118063
0.000121369
0.000124564
0.000127604
0.000130434
0.000132993
0.000135209
0.000137007
0.00013828
0.000138874
0.00013897
0.000138312
0.000136782
0.000134333
0.000130917
0.000126496
0.000121071
0.000114663
0.000107326
9.91468e-05
9.02433e-05
8.07628e-05
7.08776e-05
6.07847e-05
5.07054e-05
4.08834e-05
3.15737e-05
2.30221e-05
1.54388e-05
8.99551e-06
3.85759e-06
4.29687e-07
5.70259e-07
5.10519e-06
1.1603e-05
1.91637e-05
2.72004e-05
3.52385e-05
4.28731e-05
4.97675e-05
5.56639e-05
6.03951e-05
6.38898e-05
6.61645e-05
6.72869e-05
6.75199e-05
6.70425e-05
6.60608e-05
6.48031e-05
6.34796e-05
6.22715e-05
6.13243e-05
6.07738e-05
6.065e-05
6.09689e-05
6.17648e-05
6.30221e-05
6.47082e-05
6.67795e-05
6.91866e-05
7.18779e-05
7.48034e-05
7.79168e-05
8.11769e-05
8.4549e-05
8.80044e-05
9.15209e-05
9.50813e-05
9.86733e-05
0.000102288
0.000105917
0.000109553
0.00011319
0.000116813
0.000120408
0.000123951
0.000127412
0.000130751
0.000133922
0.000136865
0.000139517
0.000141802
0.000143642
0.000144913
0.000145479
0.000145538
0.000144782
0.000143117
0.000140492
0.000136857
0.000132176
0.00012645
0.000119706
0.000112006
0.000103444
9.41494e-05
8.42757e-05
7.39982e-05
6.35123e-05
5.30349e-05
4.28071e-05
3.30882e-05
2.41374e-05
1.61856e-05
9.42592e-06
4.03948e-06
4.49972e-07
6.03978e-07
5.40694e-06
1.22883e-05
2.02935e-05
2.87987e-05
3.72975e-05
4.53572e-05
5.26179e-05
5.88053e-05
6.37441e-05
6.73636e-05
6.96824e-05
7.07854e-05
7.09679e-05
7.04084e-05
6.93345e-05
6.79883e-05
6.65907e-05
6.53299e-05
6.43553e-05
6.38085e-05
6.37048e-05
6.40693e-05
6.49305e-05
6.62697e-05
6.80513e-05
7.0229e-05
7.27511e-05
7.55643e-05
7.86172e-05
8.18628e-05
8.52596e-05
8.87725e-05
9.23731e-05
9.60394e-05
9.97547e-05
0.000103507
0.000107286
0.000111086
0.000114898
0.000118712
0.000122515
0.000126288
0.000130006
0.000133634
0.000137131
0.000140445
0.000143515
0.000146272
0.000148639
0.000150534
0.000151815
0.000152365
0.000152394
0.000151547
0.000149752
0.00014695
0.000143088
0.000138131
0.000132082
0.000124971
0.00011687
0.000107886
9.81587e-05
8.7855e-05
7.71565e-05
6.6259e-05
5.53748e-05
4.47391e-05
3.46112e-05
2.52609e-05
1.69385e-05
9.85941e-06
4.22228e-06
4.70359e-07
6.38348e-07
5.71449e-06
1.29866e-05
2.14444e-05
3.04256e-05
3.93914e-05
4.788e-05
5.55076e-05
6.19833e-05
6.71239e-05
7.08602e-05
7.32137e-05
7.42893e-05
7.44153e-05
7.37692e-05
7.26012e-05
7.1167e-05
6.96978e-05
6.83881e-05
6.73907e-05
6.68525e-05
6.67723e-05
6.71863e-05
6.81159e-05
6.95394e-05
7.14185e-05
7.37046e-05
7.63437e-05
7.92814e-05
8.24652e-05
8.58475e-05
8.93866e-05
9.30475e-05
9.6802e-05
0.000100628
0.00010451
0.000108435
0.000112393
0.000116378
0.000120379
0.000124386
0.000128384
0.00013235
0.000136258
0.000140068
0.000143737
0.000147208
0.000150418
0.000153295
0.000155758
0.000157722
0.000159032
0.000159579
0.000159586
0.00015866
0.00015674
0.000153762
0.000149669
0.000144423
0.000138027
0.000130517
0.000121975
0.000112521
0.000102313
9.15326e-05
8.03747e-05
6.90384e-05
5.77319e-05
4.66821e-05
3.6144e-05
2.63933e-05
1.7698e-05
1.02964e-05
4.40615e-06
4.90863e-07
6.7336e-07
6.02775e-06
1.36977e-05
2.26158e-05
3.20806e-05
4.15192e-05
5.04398e-05
5.84341e-05
6.51945e-05
7.05303e-05
7.43751e-05
7.67534e-05
7.77951e-05
7.78586e-05
7.71222e-05
7.58591e-05
7.43386e-05
7.28014e-05
7.14478e-05
7.0433e-05
6.99091e-05
6.98566e-05
7.03246e-05
7.13263e-05
7.28375e-05
7.4817e-05
7.72143e-05
7.99738e-05
8.30398e-05
8.63594e-05
8.98845e-05
9.35733e-05
9.7391e-05
0.00010131
0.000105308
0.000109368
0.00011348
0.000117633
0.000121817
0.000126024
0.00013024
0.000134447
0.000138622
0.000142734
0.000146741
0.000150596
0.00015424
0.000157605
0.000160617
0.000163192
0.000165241
0.0001666
0.00016716
0.000167153
0.000166162
0.000164128
0.000160978
0.000156651
0.000151104
0.00014434
0.0001364
0.000127374
0.000117399
0.000106654
9.53427e-05
8.3677e-05
7.18655e-05
6.01139e-05
4.86393e-05
3.76874e-05
2.75349e-05
1.84644e-05
1.0737e-05
4.59117e-06
5.11493e-07
7.09003e-07
6.34661e-06
1.44213e-05
2.38074e-05
3.37627e-05
4.36795e-05
5.30348e-05
6.13949e-05
6.84355e-05
7.39595e-05
7.79037e-05
8.02966e-05
8.13001e-05
8.12942e-05
8.0465e-05
7.91073e-05
7.75034e-05
7.5903e-05
7.45114e-05
7.3486e-05
7.29828e-05
7.29629e-05
7.34904e-05
7.45689e-05
7.61718e-05
7.82558e-05
8.07683e-05
8.36527e-05
8.68524e-05
9.0314e-05
9.39894e-05
9.78368e-05
0.000101822
0.000105916
0.000110098
0.000114353
0.000118666
0.000123028
0.000127428
0.000131856
0.000136296
0.000140729
0.000145128
0.000149459
0.000153678
0.000157733
0.000161564
0.0001651
0.000168263
0.000170966
0.000173116
0.000174546
0.000175136
0.000175127
0.000174086
0.000171949
0.000168635
0.000164075
0.00015822
0.000151071
0.000142671
0.000133118
0.000122569
0.000111226
9.93209e-05
8.70898e-05
7.47569e-05
6.25294e-05
5.06138e-05
3.9242e-05
2.86856e-05
1.92376e-05
1.11813e-05
4.77736e-06
5.32252e-07
7.45265e-07
6.67097e-06
1.51573e-05
2.50186e-05
3.54712e-05
4.5871e-05
5.56628e-05
6.43871e-05
7.17029e-05
7.74071e-05
8.14415e-05
8.38393e-05
8.48007e-05
8.47188e-05
8.3796e-05
8.23455e-05
8.06625e-05
7.9005e-05
7.75828e-05
7.65551e-05
7.60797e-05
7.60985e-05
7.66918e-05
7.78528e-05
7.95526e-05
8.1746e-05
8.4379e-05
8.7394e-05
9.0734e-05
9.43453e-05
9.81799e-05
0.000102196
0.00010636
0.000110643
0.000115023
0.000119485
0.000124015
0.000128602
0.000133235
0.000137899
0.000142579
0.000147252
0.000151889
0.000156453
0.000160898
0.000165168
0.000169201
0.000172922
0.00017625
0.000179097
0.000181366
0.000182887
0.000183525
0.000183525
0.000182452
0.000180226
0.000176759
0.00017197
0.000165805
0.000158257
0.000149371
0.000139253
0.000128077
0.000116073
0.000103504
9.06412e-05
7.77312e-05
6.49883e-05
5.26092e-05
4.08082e-05
2.98448e-05
2.00172e-05
1.16292e-05
4.96465e-06
5.53129e-07
7.82135e-07
7.00073e-06
1.59052e-05
2.6249e-05
3.72053e-05
4.80923e-05
5.83218e-05
6.74079e-05
7.49929e-05
8.08689e-05
8.49841e-05
8.73776e-05
8.82923e-05
8.81304e-05
8.71141e-05
8.55741e-05
8.38181e-05
8.21112e-05
8.06668e-05
7.96471e-05
7.92065e-05
7.92726e-05
7.99386e-05
8.11887e-05
8.29917e-05
8.53008e-05
8.80608e-05
9.12135e-05
9.47015e-05
9.84715e-05
0.000102475
0.000106672
0.000111026
0.000115512
0.000120105
0.00012479
0.000129552
0.000134379
0.000139259
0.000144175
0.000149109
0.000154036
0.000158924
0.000163734
0.000168417
0.000172916
0.000177162
0.000181082
0.00018459
0.000187595
0.000189997
0.000191631
0.000192334
0.000192354
0.000191267
0.000188969
0.000185361
0.000180353
0.00017388
0.000165926
0.000156535
0.000145817
0.000133964
0.000121234
0.000107929
9.43609e-05
8.08087e-05
6.75017e-05
5.46298e-05
4.23863e-05
3.10117e-05
2.08024e-05
1.20802e-05
5.15287e-06
5.74108e-07
8.19601e-07
7.33578e-06
1.6665e-05
2.74981e-05
3.89638e-05
5.03418e-05
6.10094e-05
7.04539e-05
7.83015e-05
8.43404e-05
8.8527e-05
9.09077e-05
9.17715e-05
9.15271e-05
9.04191e-05
8.87948e-05
8.69734e-05
8.52265e-05
8.37695e-05
8.27711e-05
8.23704e-05
8.24971e-05
8.32428e-05
8.45897e-05
8.65034e-05
8.89356e-05
9.18303e-05
9.51288e-05
9.87741e-05
0.000102713
0.000106897
0.000111286
0.000115845
0.000120546
0.000125366
0.000130289
0.000135299
0.000140381
0.000145521
0.000150702
0.000155903
0.000161096
0.000166248
0.000171315
0.000176247
0.000180984
0.000185455
0.000189584
0.000193284
0.000196459
0.000199008
0.000200772
0.000201557
0.00020161
0.000200526
0.000198173
0.00019444
0.000189227
0.000182454
0.000174095
0.000164185
0.000152841
0.000140266
0.000126748
0.000112633
9.82792e-05
8.40113e-05
7.00823e-05
5.66804e-05
4.39765e-05
3.21849e-05
2.15922e-05
1.25337e-05
5.34178e-06
5.95161e-07
8.57651e-07
7.67599e-06
1.74362e-05
2.87651e-05
4.07459e-05
5.26178e-05
6.37231e-05
7.35219e-05
8.16246e-05
8.78172e-05
9.20657e-05
9.44257e-05
9.52351e-05
9.49076e-05
9.37114e-05
9.20098e-05
9.01326e-05
8.8357e-05
8.68996e-05
8.59368e-05
8.55835e-05
8.57817e-05
8.66176e-05
8.80705e-05
9.01038e-05
9.26677e-05
9.5706e-05
9.91599e-05
0.000102972
0.000107091
0.000111467
0.000116061
0.000120838
0.000125769
0.000130831
0.000136005
0.000141276
0.000146627
0.000152041
0.0001575
0.000162978
0.000168448
0.000173872
0.000179205
0.000184394
0.000189376
0.00019408
0.000198427
0.000202327
0.000205682
0.000208387
0.000210296
0.000211179
0.000211275
0.000210211
0.00020782
0.000203981
0.00019858
0.000191521
0.000182763
0.000172333
0.000160343
0.000147009
0.000132647
0.000117648
0.000102426
8.7362e-05