/*--------------------------------*- C++ -*----------------------------------*\
  =========                 |
  \\      /  F ield         | OpenFOAM: The Open Source CFD Toolbox
   \\    /   O peration     | Website:  https://openfoam.org
    \\  /    A nd           | Version:  12
     \\/     M anipulation  |
\*---------------------------------------------------------------------------*/
FoamFile
{
    format      ascii;
    class       volScalarField;
    location    "1";
    object      nut;
}
// * * * * * * * * * * * * * * * * * * * * * * * * * * * * * * * * * * * * * //

dimensions      [0 2 -1 0 0 0 0];

internalField   nonuniform List<scalar> 
5625
(
2.6818e-14
1.80968e-13
3.98511e-13
6.49005e-13
9.14748e-13
1.18221e-12
1.44017e-12
1.67936e-12
1.8924e-12
2.07393e-12
2.22065e-12
2.33135e-12
2.40681e-12
2.44954e-12
2.46385e-12
2.45509e-12
2.42904e-12
2.39196e-12
2.35002e-12
2.30905e-12
2.2742e-12
2.24981e-12
2.23941e-12
2.24472e-12
2.26752e-12
2.30839e-12
2.36723e-12
2.44342e-12
2.53589e-12
2.64335e-12
2.76438e-12
2.89758e-12
3.0416e-12
3.19523e-12
3.35744e-12
3.52733e-12
3.70414e-12
3.88723e-12
4.07598e-12
4.26976e-12
4.4679e-12
4.66956e-12
4.87371e-12
5.07905e-12
5.28394e-12
5.48635e-12
5.68379e-12
5.87323e-12
6.05113e-12
6.21333e-12
6.35508e-12
6.47101e-12
6.555e-12
6.59793e-12
6.60295e-12
6.56003e-12
6.46284e-12
6.3077e-12
6.09281e-12
5.8184e-12
5.48715e-12
5.10432e-12
4.67776e-12
4.21762e-12
3.73572e-12
3.24478e-12
2.75745e-12
2.28537e-12
1.8384e-12
1.42417e-12
1.04809e-12
7.13948e-13
4.25452e-13
1.89688e-13
2.79962e-14
8.10283e-13
2.65147e-11
6.57765e-11
1.09821e-10
1.56114e-10
2.02517e-10
2.47171e-10
2.88509e-10
3.25275e-10
3.56554e-10
3.81785e-10
4.00765e-10
4.13637e-10
4.20834e-10
4.23121e-10
4.21421e-10
4.16739e-10
4.10155e-10
4.02742e-10
3.95506e-10
3.89336e-10
3.84978e-10
3.83049e-10
3.83826e-10
3.87619e-10
3.94522e-10
4.04516e-10
4.17486e-10
4.33247e-10
4.5157e-10
4.72211e-10
4.94921e-10
5.1947e-10
5.4565e-10
5.73281e-10
6.02211e-10
6.32313e-10
6.63477e-10
6.95603e-10
7.28588e-10
7.62321e-10
7.96667e-10
8.31458e-10
8.6648e-10
9.01465e-10
9.36076e-10
9.69901e-10
1.00244e-09
1.03308e-09
1.06114e-09
1.08581e-09
1.10617e-09
1.1212e-09
1.12911e-09
1.13057e-09
1.12384e-09
1.10775e-09
1.08167e-09
1.04526e-09
9.98507e-10
9.41855e-10
8.76191e-10
8.02868e-10
7.23648e-10
6.40601e-10
5.55955e-10
4.71931e-10
3.90566e-10
3.13575e-10
2.42262e-10
1.77511e-10
1.19864e-10
6.96959e-11
2.76119e-11
8.45672e-13
1.71793e-12
1.41401e-10
4.49053e-10
8.01407e-10
1.16726e-09
1.53089e-09
1.87895e-09
2.19993e-09
2.48449e-09
2.72581e-09
2.91976e-09
3.06497e-09
3.16269e-09
3.21638e-09
3.23225e-09
3.21751e-09
3.17999e-09
3.1281e-09
3.07016e-09
3.01392e-09
2.96621e-09
2.9327e-09
2.91814e-09
2.92435e-09
2.9537e-09
3.0068e-09
3.08339e-09
3.18247e-09
3.30252e-09
3.44175e-09
3.5982e-09
3.76997e-09
3.95528e-09
4.15256e-09
4.36046e-09
4.57788e-09
4.80389e-09
5.03774e-09
5.27873e-09
5.5262e-09
5.77939e-09
6.0374e-09
6.29908e-09
6.56297e-09
6.8272e-09
7.08937e-09
7.34652e-09
7.595e-09
7.83042e-09
8.04756e-09
8.24035e-09
8.40183e-09
8.52498e-09
8.5928e-09
8.61452e-09
8.57424e-09
8.46198e-09
8.2723e-09
8.00189e-09
7.65018e-09
7.21996e-09
6.7178e-09
6.15414e-09
5.54286e-09
4.90049e-09
4.24492e-09
3.594e-09
2.96401e-09
2.36844e-09
1.81714e-09
1.31608e-09
8.67774e-10
4.73145e-10
1.47089e-10
1.79043e-12
2.80386e-12
3.29975e-10
1.33839e-09
2.62904e-09
3.98499e-09
5.32648e-09
6.60317e-09
7.77461e-09
8.80848e-09
9.68134e-09
1.03794e-08
1.08986e-08
1.12446e-08
1.14304e-08
1.14799e-08
1.14195e-08
1.12779e-08
1.10858e-08
1.08733e-08
1.06683e-08
1.04951e-08
1.03737e-08
1.03211e-08
1.03424e-08
1.0446e-08
1.06334e-08
1.0903e-08
1.12509e-08
1.16712e-08
1.2157e-08
1.27013e-08
1.32972e-08
1.39383e-08
1.46192e-08
1.53353e-08
1.60829e-08
1.68592e-08
1.76618e-08
1.84888e-08
1.93383e-08
2.02084e-08
2.10964e-08
2.19991e-08
2.29122e-08
2.38299e-08
2.47447e-08
2.56471e-08
2.65251e-08
2.73639e-08
2.81458e-08
2.88495e-08
2.94501e-08
2.99285e-08
3.02043e-08
3.03314e-08
3.02408e-08
2.98931e-08
2.92664e-08
2.83461e-08
2.71272e-08
2.56174e-08
2.38391e-08
2.18298e-08
1.96405e-08
1.73328e-08
1.4974e-08
1.26308e-08
1.03638e-08
8.2223e-09
6.24046e-09
4.43679e-09
2.81797e-09
1.40278e-09
3.43025e-10
2.91332e-12
4.03261e-12
5.54347e-10
2.69469e-09
5.85519e-09
9.32543e-09
1.27865e-08
1.60753e-08
1.90814e-08
2.17226e-08
2.39418e-08
2.57066e-08
2.70101e-08
2.7869e-08
2.83185e-08
2.84232e-08
2.82511e-08
2.7876e-08
2.73765e-08
2.68287e-08
2.63026e-08
2.5859e-08
2.55469e-08
2.54075e-08
2.54514e-08
2.56976e-08
2.61487e-08
2.67993e-08
2.76377e-08
2.86482e-08
2.98132e-08
3.11144e-08
3.25347e-08
3.40585e-08
3.56729e-08
3.73671e-08
3.91331e-08
4.09649e-08
4.28579e-08
4.4809e-08
4.68151e-08
4.8873e-08
5.09783e-08
5.31251e-08
5.53049e-08
5.75058e-08
5.97119e-08
6.19019e-08
6.40485e-08
6.6117e-08
6.80648e-08
6.98403e-08
7.13821e-08
7.2657e-08
7.34122e-08
7.38397e-08
7.37336e-08
7.29901e-08
7.15497e-08
6.937e-08
6.64334e-08
6.27546e-08
5.83874e-08
5.34253e-08
4.79985e-08
4.2265e-08
3.63977e-08
3.05682e-08
2.49305e-08
1.96077e-08
1.4683e-08
1.02014e-08
6.19717e-09
2.80718e-09
5.74664e-10
4.17056e-12
5.37896e-12
7.97648e-10
4.37618e-09
1.0396e-08
1.74375e-08
2.4619e-08
3.14817e-08
3.77511e-08
4.32435e-08
4.7839e-08
5.14745e-08
5.41406e-08
5.58781e-08
5.67637e-08
5.69398e-08
5.65478e-08
5.57427e-08
5.46872e-08
5.35382e-08
5.2438e-08
5.15086e-08
5.08472e-08
5.0537e-08
5.05908e-08
5.1046e-08
5.19043e-08
5.31511e-08
5.47604e-08
5.66986e-08
5.89287e-08
6.14137e-08
6.4119e-08
6.70145e-08
7.00753e-08
7.32822e-08
7.66211e-08
8.00824e-08
8.366e-08
8.73504e-08
9.11506e-08
9.50575e-08
9.90661e-08
1.03168e-07
1.0735e-07
1.11593e-07
1.15867e-07
1.20135e-07
1.24343e-07
1.28427e-07
1.32301e-07
1.35863e-07
1.38992e-07
1.41638e-07
1.43216e-07
1.44202e-07
1.44128e-07
1.42779e-07
1.40034e-07
1.35804e-07
1.30051e-07
1.22802e-07
1.14166e-07
1.04332e-07
9.35659e-08
8.2186e-08
7.05413e-08
5.8976e-08
4.77974e-08
3.72491e-08
2.74977e-08
1.86478e-08
1.0835e-08
4.52216e-09
8.224e-10
5.52884e-12
6.82618e-12
1.0546e-09
6.26266e-09
1.59857e-08
2.81464e-08
4.09534e-08
5.33503e-08
6.47184e-08
7.46731e-08
8.29799e-08
8.95231e-08
9.42916e-08
9.7368e-08
9.88969e-08
9.91518e-08
9.83877e-08
9.68882e-08
9.49476e-08
9.28464e-08
9.08369e-08
8.91324e-08
8.78995e-08
8.72861e-08
8.72966e-08
8.79974e-08
8.93848e-08
9.14283e-08
9.40779e-08
9.72721e-08
1.00945e-07
1.05031e-07
1.09471e-07
1.14216e-07
1.19225e-07
1.24467e-07
1.29922e-07
1.35578e-07
1.41428e-07
1.47471e-07
1.53707e-07
1.60135e-07
1.66749e-07
1.73541e-07
1.80491e-07
1.87569e-07
1.94728e-07
2.01904e-07
2.0901e-07
2.15929e-07
2.22515e-07
2.28586e-07
2.33943e-07
2.38487e-07
2.41167e-07
2.42866e-07
2.42734e-07
2.40398e-07
2.35657e-07
2.28371e-07
2.18485e-07
2.06068e-07
1.91309e-07
1.74537e-07
1.56208e-07
1.36866e-07
1.171e-07
9.74904e-08
7.85501e-08
6.06879e-08
4.41931e-08
2.92909e-08
1.63567e-08
6.4037e-09
1.07879e-09
6.96392e-12
8.36297e-12
1.32354e-09
8.28266e-09
2.23437e-08
4.1045e-08
6.14635e-08
8.15876e-08
1.00186e-07
1.16509e-07
1.30119e-07
1.40808e-07
1.48558e-07
1.53515e-07
1.55923e-07
1.56256e-07
1.54928e-07
1.52411e-07
1.49185e-07
1.45706e-07
1.42378e-07
1.39539e-07
1.37451e-07
1.36345e-07
1.36206e-07
1.37139e-07
1.39129e-07
1.42121e-07
1.46031e-07
1.50758e-07
1.56197e-07
1.62246e-07
1.68814e-07
1.75826e-07
1.83224e-07
1.90964e-07
1.99022e-07
2.07381e-07
2.1604e-07
2.25e-07
2.34266e-07
2.43841e-07
2.53721e-07
2.63894e-07
2.74332e-07
2.84988e-07
2.95791e-07
3.06636e-07
3.17384e-07
3.2785e-07
3.37799e-07
3.46944e-07
3.54954e-07
3.61655e-07
3.65506e-07
3.67789e-07
3.67232e-07
3.63257e-07
3.55596e-07
3.44066e-07
3.28618e-07
3.09375e-07
2.86659e-07
2.6099e-07
2.33062e-07
2.03693e-07
1.73759e-07
1.44112e-07
1.15509e-07
8.85581e-08
6.37153e-08
4.1407e-08
2.23812e-08
8.35969e-09
1.34055e-09
8.4569e-12
9.9814e-12
1.60381e-09
1.03997e-08
2.92517e-08
5.56774e-08
8.55775e-08
1.15662e-07
1.43761e-07
1.68539e-07
1.89218e-07
2.05435e-07
2.1715e-07
2.24591e-07
2.28133e-07
2.28536e-07
2.26424e-07
2.22521e-07
2.17558e-07
2.12219e-07
2.07107e-07
2.02716e-07
1.99444e-07
1.97599e-07
1.97152e-07
1.98248e-07
2.00858e-07
2.0489e-07
2.10215e-07
2.16688e-07
2.24151e-07
2.32456e-07
2.41476e-07
2.51106e-07
2.61266e-07
2.71902e-07
2.82982e-07
2.94491e-07
3.06429e-07
3.18804e-07
3.31626e-07
3.449e-07
3.58623e-07
3.72776e-07
3.87316e-07
4.02169e-07
4.17223e-07
4.32322e-07
4.47252e-07
4.61732e-07
4.75414e-07
4.87872e-07
4.98613e-07
5.07276e-07
5.12039e-07
5.14393e-07
5.12668e-07
5.06066e-07
4.94286e-07
4.77148e-07
4.54648e-07
4.27016e-07
3.94745e-07
3.58579e-07
3.19481e-07
2.78565e-07
2.37005e-07
1.95939e-07
1.56373e-07
1.19131e-07
8.48695e-08
5.42911e-08
2.86149e-08
1.03378e-08
1.60573e-09
9.99305e-12
1.16756e-11
1.89502e-09
1.25966e-08
3.65645e-08
7.16469e-08
1.12663e-07
1.54815e-07
1.94677e-07
2.30044e-07
2.5963e-07
2.82828e-07
2.99547e-07
3.10104e-07
3.15044e-07
3.15505e-07
3.12369e-07
3.06685e-07
2.99501e-07
2.91789e-07
2.84397e-07
2.77992e-07
2.73195e-07
2.70323e-07
2.69374e-07
2.70528e-07
2.73732e-07
2.7885e-07
2.85696e-07
2.94057e-07
3.03724e-07
3.145e-07
3.26214e-07
3.38727e-07
3.5194e-07
3.65784e-07
3.80223e-07
3.95244e-07
4.10852e-07
4.27056e-07
4.43872e-07
4.61304e-07
4.79344e-07
4.97957e-07
5.17075e-07
5.36586e-07
5.5632e-07
5.76041e-07
5.95433e-07
6.14094e-07
6.3153e-07
6.47155e-07
6.60303e-07
6.70263e-07
6.75249e-07
6.76818e-07
6.7285e-07
6.6238e-07
6.45144e-07
6.21019e-07
5.90102e-07
5.52772e-07
5.09719e-07
4.61937e-07
4.10663e-07
3.57301e-07
3.03313e-07
2.50104e-07
1.9892e-07
1.50796e-07
1.0661e-07
6.73865e-08
3.48628e-08
1.23092e-08
1.87287e-09
1.15605e-11
1.34411e-11
2.19689e-09
1.48654e-08
4.41936e-08
8.86516e-08
1.42147e-07
1.98247e-07
2.51981e-07
3.00008e-07
3.40329e-07
3.71965e-07
3.94726e-07
4.09026e-07
4.15621e-07
4.16119e-07
4.1171e-07
4.03842e-07
3.93948e-07
3.83345e-07
3.73172e-07
3.64295e-07
3.57633e-07
3.53419e-07
3.51742e-07
3.52807e-07
3.56529e-07
3.62723e-07
3.7114e-07
3.81494e-07
3.93511e-07
4.06933e-07
4.21544e-07
4.3717e-07
4.53687e-07
4.71012e-07
4.89103e-07
5.07948e-07
5.27551e-07
5.47928e-07
5.6909e-07
5.91039e-07
6.13748e-07
6.37159e-07
6.6116e-07
6.85581e-07
7.10173e-07
7.34597e-07
7.58412e-07
7.81072e-07
8.01918e-07
8.20184e-07
8.35028e-07
8.45396e-07
8.49281e-07
8.49153e-07
8.41665e-07
8.25993e-07
8.01977e-07
7.69623e-07
7.29169e-07
6.81173e-07
6.26543e-07
5.66516e-07
5.02595e-07
4.3645e-07
3.69803e-07
3.04295e-07
2.41387e-07
1.8231e-07
1.28166e-07
8.0312e-08
4.10066e-08
1.42576e-08
2.14076e-09
1.31497e-11
1.52745e-11
2.50921e-09
1.72028e-08
5.20887e-08
1.06479e-07
1.73563e-07
2.45226e-07
3.14724e-07
3.77316e-07
4.30077e-07
4.71531e-07
5.0134e-07
5.19987e-07
5.28478e-07
5.28987e-07
5.23055e-07
5.12601e-07
4.99512e-07
4.85507e-07
4.72049e-07
4.60263e-07
4.51387e-07
4.45534e-07
4.42926e-07
4.43771e-07
4.47951e-07
4.55216e-07
4.65242e-07
4.7767e-07
4.92149e-07
5.08361e-07
5.26036e-07
5.44963e-07
5.64991e-07
5.86022e-07
6.08006e-07
6.30927e-07
6.54789e-07
6.79605e-07
7.05379e-07
7.32096e-07
7.59703e-07
7.88099e-07
8.17114e-07
8.46496e-07
8.75893e-07
9.04843e-07
9.3276e-07
9.58932e-07
9.82522e-07
1.00259e-06
1.0181e-06
1.02779e-06
1.02909e-06
1.02608e-06
1.01391e-06
9.91763e-07
9.59797e-07
9.18207e-07
8.67404e-07
8.08137e-07
7.41529e-07
6.69049e-07
5.92439e-07
5.13603e-07
4.34484e-07
3.56929e-07
2.82582e-07
2.12849e-07
1.49039e-07
9.28346e-08
4.69804e-08
1.61735e-08
2.40844e-09
1.47527e-11
1.7173e-11
2.83176e-09
1.96074e-08
6.02222e-08
1.24991e-07
2.06559e-07
2.95138e-07
3.82043e-07
4.60897e-07
5.27644e-07
5.80177e-07
6.17936e-07
6.41456e-07
6.52038e-07
6.52512e-07
6.44803e-07
6.31381e-07
6.14646e-07
5.96774e-07
5.79564e-07
5.64512e-07
5.5312e-07
5.45354e-07
5.41634e-07
5.42146e-07
5.46727e-07
5.55059e-07
5.66734e-07
5.81308e-07
5.98353e-07
6.1748e-07
6.38365e-07
6.60755e-07
6.8447e-07
7.09396e-07
7.3547e-07
7.6267e-07
7.90993e-07
8.20442e-07
8.51004e-07
8.82636e-07
9.15245e-07
9.48668e-07
9.82657e-07
1.01686e-06
1.0508e-06
1.08387e-06
1.11532e-06
1.14428e-06
1.16972e-06
1.19055e-06
1.20557e-06
1.21328e-06
1.21091e-06
1.20326e-06
1.18566e-06
1.15596e-06
1.1151e-06
1.06354e-06
1.00187e-06
9.31048e-07
8.52379e-07
7.67545e-07
6.78495e-07
5.87336e-07
4.96195e-07
4.0709e-07
3.2182e-07
2.41943e-07
1.68956e-07
1.04829e-07
5.27517e-08
1.80517e-08
2.67511e-09
1.63633e-11
1.91345e-11
3.16439e-09
2.20789e-08
6.85797e-08
1.44099e-07
2.40883e-07
3.47499e-07
4.53202e-07
5.49784e-07
6.3187e-07
6.96587e-07
7.43086e-07
7.71931e-07
7.84755e-07
7.85127e-07
7.75393e-07
7.5864e-07
7.37844e-07
7.15684e-07
6.9431e-07
6.75679e-07
6.61529e-07
6.5162e-07
6.46651e-07
6.4675e-07
6.51704e-07
6.61117e-07
6.7449e-07
6.91288e-07
7.10996e-07
7.33155e-07
7.57381e-07
7.83376e-07
8.10931e-07
8.39907e-07
8.70229e-07
9.01862e-07
9.34789e-07
9.68995e-07
1.00444e-06
1.04103e-06
1.07863e-06
1.11699e-06
1.15577e-06
1.19449e-06
1.23254e-06
1.26915e-06
1.30341e-06
1.33427e-06
1.36056e-06
1.38102e-06
1.39438e-06
1.39882e-06
1.3917e-06
1.37821e-06
1.35407e-06
1.31625e-06
1.26577e-06
1.20377e-06
1.13099e-06
1.04855e-06
9.57949e-07
8.6105e-07
7.59977e-07
6.57005e-07
5.54418e-07
4.54374e-07
3.58802e-07
2.69391e-07
1.87799e-07
1.16248e-07
5.83062e-08
1.98891e-08
2.94013e-09
1.79766e-11
2.11572e-11
3.50694e-09
2.46173e-08
7.71546e-08
1.63752e-07
2.76358e-07
4.01942e-07
5.27607e-07
6.43155e-07
7.41727e-07
8.19562e-07
8.75457e-07
9.09984e-07
9.25144e-07
9.25324e-07
9.13318e-07
8.92901e-07
8.67671e-07
8.40854e-07
8.14994e-07
7.9251e-07
7.75431e-07
7.63205e-07
7.56901e-07
7.5655e-07
7.61882e-07
7.72414e-07
7.8755e-07
8.06656e-07
8.29129e-07
8.5443e-07
8.82117e-07
9.11843e-07
9.43365e-07
9.76519e-07
1.01121e-06
1.04739e-06
1.08501e-06
1.12403e-06
1.16437e-06
1.2059e-06
1.24837e-06
1.29147e-06
1.33473e-06
1.37754e-06
1.41914e-06
1.4586e-06
1.49485e-06
1.52668e-06
1.55279e-06
1.57182e-06
1.5824e-06
1.58242e-06
1.56953e-06
1.54966e-06
1.51754e-06
1.47151e-06
1.41092e-06
1.33818e-06
1.25421e-06
1.16025e-06
1.05796e-06
9.49371e-07
8.36752e-07
7.2252e-07
6.09088e-07
4.98733e-07
3.93494e-07
2.95171e-07
2.05558e-07
1.27088e-07
6.36425e-08
2.16847e-08
3.20307e-09
1.95889e-11
2.32399e-11
3.85928e-09
2.72228e-08
8.59441e-08
1.83922e-07
3.12867e-07
4.58196e-07
6.04792e-07
7.40331e-07
8.56335e-07
9.48048e-07
1.01386e-06
1.05432e-06
1.07186e-06
1.07171e-06
1.0572e-06
1.03282e-06
1.00283e-06
9.71027e-07
9.40459e-07
9.13915e-07
8.93793e-07
8.79143e-07
8.71471e-07
8.70675e-07
8.76425e-07
8.88141e-07
9.0512e-07
9.26629e-07
9.51967e-07
9.80519e-07
1.01178e-06
1.04534e-06
1.08094e-06
1.11837e-06
1.15752e-06
1.19831e-06
1.24067e-06
1.28452e-06
1.32971e-06
1.37606e-06
1.42323e-06
1.47078e-06
1.51814e-06
1.56454e-06
1.60908e-06
1.65066e-06
1.68806e-06
1.71995e-06
1.74492e-06
1.76154e-06
1.76842e-06
1.76304e-06
1.74364e-06
1.71689e-06
1.67591e-06
1.62135e-06
1.55052e-06
1.4669e-06
1.37176e-06
1.26644e-06
1.15275e-06
1.03284e-06
9.09127e-07
7.84151e-07
6.60432e-07
5.40347e-07
4.26027e-07
3.19372e-07
2.22286e-07
1.37376e-07
6.87684e-08
2.34387e-08
3.46364e-09
2.11979e-11
2.53812e-11
4.2213e-09
2.98956e-08
9.49487e-08
2.0459e-07
3.50332e-07
5.16066e-07
6.84395e-07
8.40767e-07
9.74963e-07
1.08115e-06
1.15726e-06
1.2038e-06
1.2237e-06
1.22308e-06
1.20583e-06
1.1772e-06
1.14219e-06
1.10512e-06
1.0697e-06
1.03897e-06
1.01573e-06
9.98635e-07
9.89605e-07
9.88412e-07
9.94651e-07
1.00764e-06
1.02656e-06
1.05057e-06
1.07888e-06
1.11078e-06
1.14571e-06
1.18322e-06
1.22297e-06
1.26476e-06
1.30843e-06
1.35387e-06
1.40098e-06
1.44961e-06
1.49957e-06
1.55057e-06
1.6022e-06
1.65388e-06
1.70491e-06
1.75439e-06
1.80123e-06
1.84423e-06
1.88201e-06
1.91314e-06
1.93614e-06
1.94953e-06
1.95196e-06
1.94043e-06
1.91414e-06
1.88001e-06
1.82977e-06
1.76606e-06
1.68528e-06
1.59066e-06
1.4844e-06
1.36788e-06
1.24302e-06
1.11211e-06
9.77684e-07
8.42394e-07
7.08855e-07
5.79531e-07
4.56636e-07
3.4215e-07
2.38077e-07
1.47154e-07
7.36977e-08
2.51525e-08
3.7217e-09
2.2802e-11
2.75802e-11
4.5929e-09
3.26359e-08
1.04169e-07
2.25747e-07
3.88705e-07
5.75413e-07
7.66144e-07
9.44025e-07
1.09701e-06
1.2181e-06
1.30477e-06
1.35744e-06
1.37961e-06
1.37836e-06
1.35814e-06
1.32503e-06
1.28477e-06
1.24224e-06
1.20185e-06
1.16692e-06
1.14049e-06
1.12106e-06
1.11069e-06
1.10919e-06
1.11601e-06
1.13038e-06
1.15135e-06
1.17797e-06
1.20935e-06
1.24471e-06
1.2834e-06
1.32492e-06
1.36892e-06
1.41513e-06
1.46336e-06
1.51346e-06
1.56529e-06
1.61864e-06
1.67324e-06
1.72872e-06
1.78453e-06
1.84001e-06
1.89429e-06
1.94632e-06
1.9949e-06
2.03868e-06
2.07618e-06
2.10588e-06
2.12624e-06
2.13579e-06
2.13318e-06
2.11495e-06
2.08177e-06
2.03965e-06
1.98019e-06
1.90673e-06
1.81626e-06
1.71058e-06
1.59324e-06
1.46562e-06
1.32975e-06
1.18805e-06
1.04317e-06
8.97873e-07
7.54861e-07
6.16675e-07
4.85605e-07
3.63701e-07
2.53044e-07
1.56476e-07
7.84498e-08
2.68285e-08
3.97727e-09
2.4401e-11
2.98359e-11
4.97398e-09
3.54437e-08
1.13607e-07
2.47389e-07
4.27959e-07
6.36136e-07
8.49828e-07
1.04976e-06
1.22197e-06
1.35828e-06
1.45566e-06
1.51437e-06
1.53871e-06
1.53664e-06
1.51323e-06
1.47542e-06
1.42975e-06
1.38161e-06
1.33621e-06
1.29713e-06
1.26753e-06
1.24582e-06
1.23425e-06
1.23255e-06
1.24009e-06
1.25595e-06
1.27909e-06
1.30843e-06
1.34298e-06
1.38188e-06
1.42443e-06
1.47005e-06
1.51835e-06
1.56902e-06
1.62184e-06
1.67661e-06
1.73312e-06
1.79111e-06
1.85022e-06
1.90997e-06
1.96972e-06
2.02866e-06
2.08579e-06
2.13994e-06
2.18976e-06
2.2338e-06
2.2705e-06
2.29826e-06
2.31553e-06
2.32081e-06
2.31279e-06
2.28755e-06
2.24751e-06
2.19707e-06
2.12838e-06
2.04493e-06
1.94482e-06
1.82803e-06
1.69961e-06
1.56091e-06
1.41407e-06
1.26165e-06
1.10643e-06
9.51282e-07
7.99003e-07
6.52207e-07
5.13246e-07
3.84234e-07
2.67312e-07
1.65398e-07
8.30453e-08
2.84699e-08
4.23049e-09
2.5995e-11
3.21476e-11
5.36446e-09
3.8319e-08
1.23263e-07
2.69512e-07
4.6808e-07
6.98156e-07
9.35284e-07
1.15769e-06
1.34946e-06
1.50115e-06
1.60931e-06
1.67387e-06
1.70024e-06
1.69715e-06
1.67034e-06
1.62765e-06
1.57644e-06
1.52261e-06
1.47223e-06
1.42911e-06
1.3964e-06
1.37254e-06
1.3599e-06
1.35815e-06
1.36654e-06
1.38403e-06
1.40946e-06
1.44163e-06
1.47947e-06
1.52201e-06
1.56848e-06
1.61827e-06
1.67093e-06
1.72611e-06
1.78354e-06
1.84296e-06
1.90412e-06
1.96666e-06
2.03015e-06
2.09401e-06
2.15746e-06
2.21957e-06
2.27923e-06
2.33513e-06
2.38582e-06
2.42975e-06
2.46529e-06
2.49079e-06
2.50468e-06
2.50546e-06
2.49186e-06
2.45949e-06
2.41269e-06
2.35377e-06
2.27584e-06
2.18233e-06
2.07247e-06
1.94456e-06
1.80496e-06
1.65507e-06
1.49716e-06
1.33393e-06
1.16833e-06
1.00334e-06
8.41853e-07
6.86562e-07
5.39877e-07
4.03964e-07
2.81012e-07
1.73987e-07
8.75049e-08
3.00804e-08
4.48161e-09
2.75853e-11
3.45145e-11
5.76424e-09
4.12618e-08
1.33138e-07
2.92118e-07
5.09048e-07
7.6142e-07
1.02238e-06
1.2676e-06
1.47912e-06
1.64626e-06
1.76517e-06
1.83528e-06
1.86357e-06
1.85923e-06
1.82882e-06
1.78111e-06
1.72427e-06
1.66477e-06
1.60944e-06
1.56245e-06
1.52673e-06
1.5009e-06
1.48736e-06
1.48572e-06
1.49512e-06
1.51439e-06
1.54223e-06
1.57736e-06
1.61856e-06
1.66483e-06
1.71532e-06
1.76935e-06
1.82643e-06
1.88616e-06
1.94822e-06
2.0123e-06
2.07806e-06
2.1451e-06
2.21286e-06
2.28067e-06
2.34763e-06
2.41271e-06
2.47465e-06
2.53205e-06
2.58337e-06
2.62697e-06
2.66115e-06
2.68426e-06
2.69468e-06
2.69092e-06
2.67171e-06
2.63221e-06
2.57884e-06
2.51141e-06
2.42424e-06
2.32066e-06
2.20088e-06
2.06174e-06
1.91079e-06
1.74947e-06
1.58023e-06
1.40595e-06
1.22975e-06
1.05476e-06
8.83974e-07
7.20171e-07
5.65811e-07
4.23102e-07
2.94269e-07
1.82304e-07
9.18504e-08
3.16645e-08
4.73096e-09
2.91734e-11
3.6936e-11
6.17323e-09
4.42718e-08
1.43232e-07
3.15205e-07
5.50848e-07
8.25886e-07
1.11102e-06
1.37928e-06
1.61068e-06
1.79326e-06
1.92277e-06
1.99808e-06
2.02815e-06
2.02232e-06
1.98813e-06
1.93529e-06
1.8728e-06
1.8077e-06
1.74748e-06
1.69684e-06
1.65827e-06
1.63065e-06
1.61641e-06
1.61507e-06
1.62565e-06
1.64685e-06
1.67724e-06
1.71542e-06
1.76012e-06
1.81021e-06
1.86479e-06
1.92314e-06
1.98469e-06
2.04902e-06
2.11574e-06
2.18449e-06
2.25485e-06
2.32633e-06
2.3983e-06
2.46995e-06
2.54031e-06
2.60821e-06
2.67229e-06
2.73107e-06
2.7829e-06
2.8261e-06
2.85892e-06
2.87966e-06
2.88669e-06
2.8785e-06
2.85375e-06
2.80729e-06
2.74756e-06
2.67168e-06
2.57533e-06
2.46163e-06
2.33167e-06
2.18118e-06
2.01857e-06
1.84546e-06
1.66448e-06
1.47874e-06
1.29156e-06
1.10623e-06
9.25914e-07
7.53446e-07
5.91346e-07
4.41852e-07
3.07208e-07
1.90412e-07
9.6104e-08
3.32268e-08
4.97892e-09
3.07614e-11
3.94113e-11
6.59135e-09
4.73488e-08
1.53546e-07
3.38772e-07
5.93468e-07
8.91514e-07
1.2011e-06
1.49258e-06
1.74389e-06
1.94182e-06
2.08165e-06
2.16184e-06
2.19349e-06
2.18595e-06
2.14781e-06
2.08977e-06
2.02162e-06
1.95103e-06
1.88611e-06
1.83205e-06
1.79082e-06
1.76164e-06
1.74691e-06
1.74607e-06
1.75801e-06
1.78128e-06
1.81436e-06
1.85573e-06
1.90401e-06
1.95802e-06
2.01679e-06
2.07953e-06
2.14565e-06
2.21463e-06
2.28606e-06
2.35951e-06
2.43448e-06
2.5104e-06
2.58654e-06
2.662e-06
2.73569e-06
2.80636e-06
2.87256e-06
2.93269e-06
2.98508e-06
3.02795e-06
3.05954e-06
3.0781e-06
3.08198e-06
3.06963e-06
3.03943e-06
2.9863e-06
2.92045e-06
2.83624e-06
2.73077e-06
2.60696e-06
2.46644e-06
2.30443e-06
2.12975e-06
1.94435e-06
1.75108e-06
1.5533e-06
1.35458e-06
1.15845e-06
9.68198e-07
7.86781e-07
6.16764e-07
4.60404e-07
3.19945e-07
1.9837e-07
1.00288e-07
3.47718e-08
5.22592e-09
3.23513e-11
4.19398e-11
7.0185e-09
5.04923e-08
1.64079e-07
3.62817e-07
6.36892e-07
9.58273e-07
1.29254e-06
1.60735e-06
1.87851e-06
2.09169e-06
2.24137e-06
2.32618e-06
2.35919e-06
2.34971e-06
2.30749e-06
2.24422e-06
2.17046e-06
2.09453e-06
2.02513e-06
1.96792e-06
1.92422e-06
1.89375e-06
1.87877e-06
1.87864e-06
1.89211e-06
1.91763e-06
1.95354e-06
1.99821e-06
2.0502e-06
2.10823e-06
2.17128e-06
2.23852e-06
2.30927e-06
2.383e-06
2.45921e-06
2.5374e-06
2.61703e-06
2.69741e-06
2.77774e-06
2.85703e-06
2.93409e-06
3.00757e-06
3.07594e-06
3.13755e-06
3.19064e-06
3.23341e-06
3.26402e-06
3.28072e-06
3.2818e-06
3.26573e-06
3.23011e-06
3.17076e-06
3.09902e-06
3.00664e-06
2.89211e-06
2.75819e-06
2.60676e-06
2.43293e-06
2.24567e-06
2.04737e-06
1.84111e-06
1.63057e-06
1.41962e-06
1.21203e-06
1.01132e-06
8.20545e-07
6.42329e-07
4.78935e-07
3.32588e-07
2.06234e-07
1.04422e-07
3.63043e-08
5.47236e-09
3.39454e-11
4.45207e-11
7.45456e-09
5.37018e-08
1.74829e-07
3.87333e-07
6.81098e-07
1.02614e-06
1.38525e-06
1.72343e-06
2.01436e-06
2.2426e-06
2.40161e-06
2.49071e-06
2.52488e-06
2.51324e-06
2.46684e-06
2.39834e-06
2.31906e-06
2.23799e-06
2.16437e-06
2.10433e-06
2.05839e-06
2.0269e-06
2.01193e-06
2.01273e-06
2.02793e-06
2.05586e-06
2.09474e-06
2.14285e-06
2.19866e-06
2.26084e-06
2.32829e-06
2.40012e-06
2.47561e-06
2.55418e-06
2.63526e-06
2.71829e-06
2.80264e-06
2.88757e-06
2.97216e-06
3.05536e-06
3.13589e-06
3.21231e-06
3.28303e-06
3.34632e-06
3.40038e-06
3.44335e-06
3.47336e-06
3.4886e-06
3.48732e-06
3.46796e-06
3.42725e-06
3.36207e-06
3.28464e-06
3.18429e-06
3.06074e-06
2.91667e-06
2.75409e-06
2.56795e-06
2.36756e-06
2.15566e-06
1.93561e-06
1.71145e-06
1.48741e-06
1.26759e-06
1.05574e-06
8.55081e-07
6.68283e-07
4.97607e-07
3.45237e-07
2.14055e-07
1.08527e-07
3.78284e-08
5.71862e-09
3.55458e-11
4.71533e-11
7.89944e-09
5.69766e-08
1.85794e-07
4.12315e-07
7.26072e-07
1.09506e-06
1.47914e-06
1.8407e-06
2.15123e-06
2.3942e-06
2.5621e-06
2.65513e-06
2.69025e-06
2.67623e-06
2.62556e-06
2.55189e-06
2.46723e-06
2.38127e-06
2.30371e-06
2.24119e-06
2.19328e-06
2.16106e-06
2.14636e-06
2.14832e-06
2.16546e-06
2.19597e-06
2.23798e-06
2.28968e-06
2.34944e-06
2.41589e-06
2.48785e-06
2.5644e-06
2.64476e-06
2.72828e-06
2.81435e-06
2.90233e-06
2.99152e-06
3.08111e-06
3.1701e-06
3.25734e-06
3.34151e-06
3.42107e-06
3.49439e-06
3.55967e-06
3.61506e-06
3.65863e-06
3.68848e-06
3.70273e-06
3.69958e-06
3.67737e-06
3.6321e-06
3.56146e-06
3.47848e-06
3.37038e-06
3.23786e-06
3.08362e-06
2.90962e-06
2.71064e-06
2.49652e-06
2.27022e-06
2.03549e-06
1.79674e-06
1.55864e-06
1.32568e-06
1.1019e-06
8.90709e-07
6.9485e-07
5.16567e-07
3.57979e-07
2.21879e-07
1.12619e-07
3.93481e-08
5.96506e-09
3.71541e-11
4.98368e-11
8.353e-09
6.03159e-08
1.96971e-07
4.37756e-07
7.71795e-07
1.16498e-06
1.57414e-06
1.959e-06
2.28896e-06
2.54617e-06
2.72258e-06
2.81916e-06
2.85498e-06
2.8384e-06
2.78341e-06
2.70464e-06
2.6148e-06
2.52425e-06
2.44309e-06
2.37846e-06
2.32883e-06
2.29621e-06
2.28207e-06
2.28544e-06
2.30472e-06
2.338e-06
2.38329e-06
2.43872e-06
2.50259e-06
2.57344e-06
2.65007e-06
2.73147e-06
2.81684e-06
2.90546e-06
2.99665e-06
3.08972e-06
3.1839e-06
3.2783e-06
3.37186e-06
3.46336e-06
3.55138e-06
3.63437e-06
3.71059e-06
3.77823e-06
3.83535e-06
3.88e-06
3.91018e-06
3.92395e-06
3.91944e-06
3.89488e-06
3.84564e-06
3.76991e-06
3.6815e-06
3.56588e-06
3.42444e-06
3.25997e-06
3.07433e-06
2.86196e-06
2.63348e-06
2.39196e-06
2.14157e-06
1.88719e-06
1.63396e-06
1.38683e-06
1.1502e-06
9.27726e-07
7.22236e-07
5.35949e-07
3.70897e-07
2.29748e-07
1.16715e-07
4.08666e-08
6.21192e-09
3.87717e-11
5.25705e-11
8.81513e-09
6.37191e-08
2.08359e-07
4.63645e-07
8.18239e-07
1.23584e-06
1.67016e-06
2.07819e-06
2.42731e-06
2.69829e-06
2.88272e-06
2.98255e-06
3.01878e-06
2.99946e-06
2.94015e-06
2.85642e-06
2.76161e-06
2.66681e-06
2.58245e-06
2.51609e-06
2.46504e-06
2.43236e-06
2.41907e-06
2.4241e-06
2.44574e-06
2.48198e-06
2.53074e-06
2.59007e-06
2.65819e-06
2.7336e-06
2.81504e-06
2.90146e-06
2.99199e-06
3.08586e-06
3.18234e-06
3.28068e-06
3.38003e-06
3.47943e-06
3.57777e-06
3.67375e-06
3.76591e-06
3.85263e-06
3.93213e-06
4.00252e-06
4.06184e-06
4.10804e-06
4.13908e-06
4.15291e-06
4.14755e-06
4.12114e-06
4.06858e-06
3.98815e-06
3.89437e-06
3.77149e-06
3.62119e-06
3.44643e-06
3.24892e-06
3.02268e-06
2.77918e-06
2.52161e-06
2.25456e-06
1.98344e-06
1.71392e-06
1.4515e-06
1.20101e-06
9.66403e-07
7.50627e-07
5.55874e-07
3.8406e-07
2.37697e-07
1.20827e-07
4.23868e-08
6.45938e-09
4.03993e-11
5.53535e-11
9.28569e-09
6.71849e-08
2.19952e-07
4.89972e-07
8.65377e-07
1.30756e-06
1.76712e-06
2.19815e-06
2.56596e-06
2.85034e-06
3.04219e-06
3.14511e-06
3.18135e-06
3.15916e-06
3.09555e-06
3.00703e-06
2.90753e-06
2.80888e-06
2.72172e-06
2.65407e-06
2.6019e-06
2.56952e-06
2.55738e-06
2.56434e-06
2.58858e-06
2.62798e-06
2.6804e-06
2.74379e-06
2.81633e-06
2.89647e-06
2.98289e-06
3.0745e-06
3.17036e-06
3.26967e-06
3.37162e-06
3.4754e-06
3.58011e-06
3.68474e-06
3.78809e-06
3.88883e-06
3.98543e-06
4.07622e-06
4.15938e-06
4.23297e-06
4.29494e-06
4.3432e-06
4.37561e-06
4.39002e-06
4.38433e-06
4.35655e-06
4.30134e-06
4.2166e-06
4.11751e-06
3.98761e-06
3.82855e-06
3.64341e-06
3.43382e-06
3.19332e-06
2.93417e-06
2.65972e-06
2.37502e-06
2.08602e-06
1.79903e-06
1.52012e-06
1.25467e-06
1.00699e-06
7.80194e-07
5.76449e-07
3.9753e-07
2.45757e-07
1.24967e-07
4.39106e-08
6.70752e-09
4.2037e-11
5.8185e-11
9.76454e-09
7.07124e-08
2.31747e-07
5.16724e-07
9.13175e-07
1.38009e-06
1.86488e-06
2.31868e-06
2.70476e-06
3.00203e-06
3.20072e-06
3.30656e-06
3.34237e-06
3.31723e-06
3.24939e-06
3.15631e-06
3.05241e-06
2.95035e-06
2.86088e-06
2.79233e-06
2.73939e-06
2.70769e-06
2.69703e-06
2.7062e-06
2.73327e-06
2.77606e-06
2.83232e-06
2.89996e-06
2.97711e-06
3.06216e-06
3.15374e-06
3.25071e-06
3.3521e-06
3.45702e-06
3.56464e-06
3.67407e-06
3.78436e-06
3.89444e-06
4.00306e-06
4.10883e-06
4.21019e-06
4.3054e-06
4.39261e-06
4.46981e-06
4.5349e-06
4.58569e-06
4.61996e-06
4.63544e-06
4.62991e-06
4.60121e-06
4.54401e-06
4.45536e-06
4.35099e-06
4.21436e-06
4.04664e-06
3.85104e-06
3.62918e-06
3.37417e-06
3.09878e-06
2.80667e-06
2.50336e-06
2.19538e-06
1.88968e-06
1.59305e-06
1.31148e-06
1.04971e-06
8.11089e-07
5.97769e-07
4.11361e-07
2.53955e-07
1.29143e-07
4.54393e-08
6.95631e-09
4.36842e-11
6.1064e-11
1.02515e-08
7.43005e-08
2.43739e-07
5.43886e-07
9.61599e-07
1.45336e-06
1.96331e-06
2.4396e-06
2.84348e-06
3.1531e-06
3.35805e-06
3.46651e-06
3.50156e-06
3.4734e-06
3.40145e-06
3.30406e-06
3.19611e-06
3.09109e-06
2.99989e-06
2.9308e-06
2.87753e-06
2.84686e-06
2.83802e-06
2.84969e-06
2.87986e-06
2.92625e-06
2.98656e-06
3.05866e-06
3.1406e-06
3.23074e-06
3.32767e-06
3.4302e-06
3.5373e-06
3.64804e-06
3.76152e-06
3.87681e-06
3.99291e-06
4.10866e-06
4.2228e-06
4.33389e-06
4.4403e-06
4.54028e-06
4.6319e-06
4.71311e-06
4.78173e-06
4.8355e-06
4.87207e-06
4.88908e-06
4.88413e-06
4.85494e-06
4.79636e-06
4.7042e-06
4.5946e-06
4.45151e-06
4.2753e-06
4.0691e-06
3.83492e-06
3.5652e-06
3.2731e-06
2.96265e-06
2.63984e-06
2.31179e-06
1.98619e-06
1.67059e-06
1.37168e-06
1.09476e-06
8.4345e-07
6.19918e-07
4.25599e-07
2.62311e-07
1.33362e-07
4.69735e-08
7.20557e-09
4.53395e-11
6.39897e-11
1.07465e-08
7.79479e-08
2.55923e-07
5.71441e-07
1.01061e-06
1.52729e-06
2.06229e-06
2.56069e-06
2.98187e-06
3.30324e-06
3.51386e-06
3.62462e-06
3.65863e-06
3.62741e-06
3.55148e-06
3.45008e-06
3.33844e-06
3.23098e-06
3.13875e-06
3.06921e-06
3.01637e-06
2.98702e-06
2.98033e-06
2.9948e-06
3.02833e-06
3.07856e-06
3.14316e-06
3.21991e-06
3.30685e-06
3.40228e-06
3.50476e-06
3.61303e-06
3.72604e-06
3.84279e-06
3.96233e-06
4.08369e-06
4.20579e-06
4.32745e-06
4.44735e-06
4.56401e-06
4.67576e-06
4.78081e-06
4.87717e-06
4.96273e-06
5.03525e-06
5.09236e-06
5.13163e-06
5.15053e-06
5.14655e-06
5.11722e-06
5.05781e-06
4.96255e-06
4.84778e-06
4.69851e-06
4.514e-06
4.29713e-06
4.05063e-06
3.76616e-06
3.45697e-06
3.12762e-06
2.78453e-06
2.43543e-06
2.08877e-06
1.75296e-06
1.4355e-06
1.14231e-06
8.77392e-07
6.42966e-07
4.40282e-07
2.70841e-07
1.37626e-07
4.8513e-08
7.45505e-09
4.70006e-11
6.69611e-11
1.12493e-08
8.16533e-08
2.68294e-07
5.9937e-07
1.06016e-06
1.60179e-06
2.16165e-06
2.68174e-06
3.11966e-06
3.45214e-06
3.66781e-06
3.78052e-06
3.81325e-06
3.77893e-06
3.69921e-06
3.59415e-06
3.47923e-06
3.36991e-06
3.27734e-06
3.20757e-06
3.15564e-06
3.12807e-06
3.12389e-06
3.14148e-06
3.17865e-06
3.23298e-06
3.30208e-06
3.3837e-06
3.47584e-06
3.57677e-06
3.68498e-06
3.7992e-06
3.9183e-06
4.04125e-06
4.16705e-06
4.29465e-06
4.42296e-06
4.55073e-06
4.6766e-06
4.79904e-06
4.91637e-06
5.02673e-06
5.1281e-06
5.21829e-06
5.295e-06
5.35576e-06
5.39802e-06
5.41914e-06
5.41643e-06
5.38723e-06
5.32745e-06
5.2295e-06
5.10964e-06
4.95448e-06
4.76194e-06
4.53439e-06
4.27555e-06
3.9765e-06
3.64999e-06
3.30131e-06
2.93729e-06
2.56628e-06
2.19751e-06
1.8403e-06
1.50307e-06