/*--------------------------------*- C++ -*----------------------------------*\
  =========                 |
  \\      /  F ield         | OpenFOAM: The Open Source CFD Toolbox
   \\    /   O peration     | Website:  https://openfoam.org
    \\  /    A nd           | Version:  12
     \\/     M anipulation  |
\*---------------------------------------------------------------------------*/
FoamFile
{
    format      ascii;
    class       volScalarField;
    location    "1";
    object      p;
}
// * * * * * * * * * * * * * * * * * * * * * * * * * * * * * * * * * * * * * //

dimensions      [0 2 -2 0 0 0 0];

internalField   nonuniform List<scalar> 
5625
(
2.03298e-07
-4.06138e-05
-0.00015977
-0.000344074
-0.000573537
-0.000833611
-0.00111237
-0.0014011
-0.00169407
-0.001988
-0.00228151
-0.0025746
-0.00286825
-0.00316402
-0.00346372
-0.00376919
-0.00408211
-0.00440387
-0.00473552
-0.00507767
-0.00543048
-0.00579364
-0.00616633
-0.00654719
-0.00693426
-0.00732497
-0.00771599
-0.00810321
-0.00848155
-0.00884481
-0.00918556
-0.0094949
-0.00976228
-0.00997531
-0.0101196
-0.0101784
-0.010133
-0.00996178
-0.00964098
-0.0091443
-0.00844326
-0.00750746
-0.00630514
-0.00480388
-0.00297159
-0.000777738
0.00180509
0.00479942
0.00822079
0.0120757
0.0163597
0.0210482
0.0261065
0.0314919
0.0371237
0.0429104
0.048745
0.0545046
0.0600563
0.0652631
0.0699921
0.0741229
0.0775566
0.0802241
0.0820929
0.0831717
0.0835109
0.0832009
0.0823665
0.0811602
0.0797542
0.0783337
0.0770946
0.0762476
0.0759096
-2.07401e-05
-5.87196e-05
-0.000169304
-0.000341134
-0.000556032
-0.000801075
-0.00106554
-0.00134136
-0.00162308
-0.00190739
-0.00219269
-0.00247873
-0.00276615
-0.00305616
-0.00335028
-0.00365005
-0.00395688
-0.00427195
-0.00459611
-0.00492981
-0.00527309
-0.00562552
-0.00598619
-0.00635364
-0.00672589
-0.00710029
-0.00747351
-0.00784142
-0.00819895
-0.00853997
-0.00885714
-0.0091417
-0.00938331
-0.00956983
-0.00968722
-0.00971928
-0.00964761
-0.00945145
-0.00910769
-0.00859095
-0.00787373
-0.00692672
-0.00571936
-0.0042205
-0.00239932
-0.000226626
0.00232378
0.0052733
0.00863657
0.0124194
0.0166175
0.0212043
0.0261498
0.0314137
0.0369102
0.0425565
0.0482487
0.0538682
0.0592871
0.0643741
0.0690017
0.0730549
0.0764395
0.0790899
0.0809761
0.0821069
0.0825314
0.0823365
0.0816415
0.0805913
0.0793487
0.0780868
0.0769844
0.0762329
0.0759353
-3.23161e-05
-6.64702e-05
-0.000168918
-0.000329253
-0.000529885
-0.000759619
-0.00100908
-0.00127103
-0.00154039
-0.00181389
-0.00208981
-0.00236761
-0.00264765
-0.00293079
-0.00321822
-0.00351116
-0.00381077
-0.00411798
-0.00443342
-0.00475737
-0.00508973
-0.00542993
-0.00577697
-0.00612933
-0.00648493
-0.00684112
-0.00719454
-0.00754107
-0.00787571
-0.00819242
-0.00848399
-0.00874186
-0.00895595
-0.00911449
-0.00920384
-0.00920837
-0.00911029
-0.00888961
-0.00852408
-0.00798929
-0.00725884
-0.00630461
-0.00509726
-0.00360694
-0.00180413
0.000339137
0.00284794
0.00574272
0.00903741
0.0127375
0.0168386
0.0213135
0.0261401
0.031272
0.036627
0.0421289
0.0476763
0.0531552
0.0584427
0.0634125
0.0679425
0.0719222
0.0752617
0.0778986
0.0798045
0.0809888
0.0814989
0.0814183
0.0808612
0.079965
0.0788826
0.077774
0.0767998
0.0761296
0.0758486
-2.40133e-05
-5.6256e-05
-0.000153331
-0.000305638
-0.000495775
-0.000713592
-0.0009508
-0.00120096
-0.00145941
-0.00172304
-0.00199011
-0.00225994
-0.00253265
-0.00280888
-0.00308954
-0.00337563
-0.00366804
-0.0039675
-0.00427446
-0.00458906
-0.00491103
-0.00523973
-0.00557405
-0.00591241
-0.00625272
-0.0065923
-0.00692781
-0.00725519
-0.00756951
-0.00786488
-0.00813426
-0.00836934
-0.00856035
-0.0086959
-0.00876282
-0.00874602
-0.00862836
-0.00839058
-0.00801125
-0.00746686
-0.00673196
-0.00577944
-0.00458098
-0.00310771
-0.00133105
0.000776159
0.00323835
0.00607555
0.00930157
0.012922
0.0169324
0.0213094
0.0260326
0.0310495
0.0362899
0.0416768
0.047112
0.0524851
0.0576766
0.0625636
0.067027
0.0709593
0.0742727
0.0769063
0.0788325
0.0800605
0.0806367
0.0806421
0.0801871
0.0794036
0.0784364
0.0774349
0.0765449
0.0759161
0.0756184
6.53852e-06
-2.85314e-05
-0.000123755
-0.000271133
-0.000453893
-0.000662604
-0.000889867
-0.00112998
-0.00137876
-0.00163334
-0.00189203
-0.00215409
-0.00241953
-0.00268881
-0.00296264
-0.00324179
-0.003527
-0.00381879
-0.00411746
-0.00442299
-0.00473501
-0.00505279
-0.00537514
-0.00570046
-0.00602663
-0.00635098
-0.00667024
-0.00698042
-0.00727673
-0.00755344
-0.00780376
-0.00801965
-0.00819171
-0.00830896
-0.00835875
-0.00832656
-0.0081959
-0.00794823
-0.00756293
-0.0070173
-0.00628674
-0.00534498
-0.00416453
-0.00271723
-0.000975113
0.00108857
0.00349804
0.0062734
0.00942882
0.0129706
0.0168951
0.0211831
0.0258116
0.0307314
0.0358776
0.0411735
0.0465237
0.0518203
0.056946
0.0617799
0.0662045
0.0701132
0.0734187
0.0760603
0.0780103
0.079277
0.0799058
0.0799761
0.0795954
0.0788915
0.0780032
0.0770709
0.0762289
0.0756076
0.0752662
5.71078e-05
1.53706e-05
-8.15095e-05
-0.000226696
-0.000404568
-0.000606355
-0.00082545
-0.00105687
-0.00129692
-0.00154305
-0.00179369
-0.00204814
-0.00230632
-0.00256857
-0.00283546
-0.0031076
-0.00338555
-0.00366968
-0.00396013
-0.00425678
-0.00455914
-0.00486641
-0.00517735
-0.00549033
-0.00580325
-0.00611347
-0.00641782
-0.00671241
-0.00699264
-0.007253
-0.00748696
-0.00768684
-0.00784363
-0.00794684
-0.00798436
-0.00794229
-0.00780481
-0.00755413
-0.00717037
-0.00663163
-0.00591406
-0.00499214
-0.00383897
-0.00242692
-0.000728319
0.00128348
0.00363288
0.00634047
0.00942124
0.0128826
0.0167226
0.020925
0.0254659
0.0303003
0.0353665
0.0405889
0.0458746
0.0511174
0.0562015
0.0610068
0.0654159
0.069322
0.0726371
0.0752993
0.0772797
0.0785853
0.0792603
0.0793824
0.0790573
0.0784098
0.0775738
0.0766827
0.075861
0.0752212
0.0748155
0.000125949
7.41257e-05
-2.7643e-05
-0.000173137
-0.00034835
-0.000545135
-0.000757639
-0.000981577
-0.00121379
-0.00145205
-0.00169501
-0.00194201
-0.00219299
-0.00244821
-0.00270814
-0.00297324
-0.00324393
-0.00352045
-0.00380283
-0.00409081
-0.00438384
-0.00468104
-0.00498115
-0.00528253
-0.00558312
-0.00588036
-0.00617117
-0.00645186
-0.00671801
-0.00696439
-0.00718481
-0.00737197
-0.00751733
-0.00761093
-0.00764124
-0.00759503
-0.00745719
-0.00721065
-0.00683628
-0.00631293
-0.00561743
-0.00472483
-0.00360872
-0.00224171
-0.00059621
0.00135467
0.00363586
0.00626883
0.0092698
0.0126478
0.0164025
0.0205209
0.0249799
0.0297375
0.034735
0.0398986
0.0451373
0.0503462
0.0554101
0.060209
0.0646246
0.0685487
0.0718913
0.0745883
0.0766086
0.0779572
0.0786765
0.0788428
0.0785602
0.0779513
0.0771464
0.0762736
0.0754495
0.0747703
0.074285
0.000211372
0.000146398
3.6842e-05
-0.000111295
-0.000285887
-0.000479436
-0.000686819
-0.000904434
-0.00112967
-0.00136068
-0.00159634
-0.00183616
-0.00208008
-0.00232835
-0.00258135
-0.00283947
-0.00310299
-0.00337205
-0.00364656
-0.00392617
-0.00421027
-0.00449793
-0.00478788
-0.00507851
-0.0053678
-0.00565332
-0.00593213
-0.00620074
-0.006455
-0.00669
-0.00689992
-0.00707793
-0.00721599
-0.00730473
-0.00733328
-0.00728907
-0.00715774
-0.00692295
-0.00656633
-0.00606736
-0.00540351
-0.00455026
-0.00348149
-0.00216989
-0.000587619
0.00129273
0.00349694
0.00604773
0.00896293
0.0122535
0.0159213
0.0199564
0.0243371
0.0290246
0.0339632
0.0390806
0.0442876
0.0494805
0.054544
0.0593574
0.0638008
0.0677636
0.0711526
0.0739005
0.0759728
0.0773718
0.0781374
0.0783443
0.0780953
0.0775114
0.0767205
0.0758467
0.0750014
0.0742661
0.07369
0.000311526
0.000230701
0.000110805
-4.20899e-05
-0.000217912
-0.000409835
-0.000613451
-0.000825833
-0.00104492
-0.0012693
-0.00149812
-0.00173105
-0.00196812
-0.00220959
-0.0024558
-0.00270706
-0.00296358
-0.00322538
-0.0034923
-0.00376392
-0.00403957
-0.00431829
-0.00459884
-0.00487964
-0.00515878
-0.00543396
-0.00570242
-0.00596094
-0.00620566
-0.00643205
-0.00663475
-0.00680741
-0.00694258
-0.00703153
-0.00706407
-0.00702837
-0.00691082
-0.00669582
-0.0063657
-0.00590057
-0.00527838
-0.00447496
-0.0034643
-0.0022189
-0.000710474
0.0010892
0.00320711
0.00566753
0.00849021
0.0116884
0.0152665
0.0192175
0.0235222
0.0281446
0.0330318
0.0381136
0.0433024
0.0484951
0.0535763
0.0584239
0.0629159
0.0669381
0.0703932
0.0732098
0.0753487
0.0768085
0.077626
0.0778739
0.0776536
0.077085
0.0762949
0.0754047
0.0745224
0.0737184
0.0730436
0.00042453
0.000325499
0.000193007
3.34677e-05
-0.000145248
-0.000336995
-0.00053808
-0.000746243
-0.000959996
-0.00117835
-0.00140079
-0.00162718
-0.00185767
-0.00209256
-0.00233217
-0.00257679
-0.00282653
-0.00308136
-0.00334104
-0.00360511
-0.00387285
-0.00414331
-0.00441529
-0.00468728
-0.00495748
-0.00522379
-0.00548368
-0.00573421
-0.0059719
-0.00619264
-0.00639157
-0.00656291
-0.00669985
-0.00679434
-0.00683693
-0.00681657
-0.00672039
-0.00653356
-0.00623904
-0.00581754
-0.0052474
-0.00450463
-0.00356314
-0.0023951
-0.000971492
0.000736997
0.00275882
0.00512011
0.00784285
0.0109428
0.0144273
0.0182924
0.0225216
0.027082
0.0319237
0.0369784
0.0421603
0.0473667
0.052482
0.0573824
0.0619428
0.066045
0.0695869
0.0724913
0.0747136
0.0762475
0.0771259
0.0774188
0.077226
0.0766669
0.0758676
0.0749489
0.0740175
0.073135
0.0723562
0.000548474
0.00042918
0.000282133
0.000114276
-6.88131e-05
-0.000261682
-0.000461357
-0.000666242
-0.000875422
-0.00108838
-0.00130492
-0.00152516
-0.00174938
-0.00197797
-0.00221126
-0.00244949
-0.00269276
-0.00294097
-0.00319383
-0.00345083
-0.00371128
-0.00397422
-0.00423852
-0.00450278
-0.00476536
-0.00502436
-0.00527755
-0.00552233
-0.00575564
-0.00597384
-0.00617263
-0.00634687
-0.00649045
-0.00659605
-0.006655
-0.00665705
-0.00659013
-0.00644009
-0.00619057
-0.00582274
-0.00531524
-0.00464416
-0.00378316
-0.00270382
-0.00137621
0.000230316
0.00214595
0.00439892
0.00701372
0.0100089
0.0133949
0.017171
0.0213238
0.0258238
0.0306237
0.035658
0.0408421
0.0460743
0.0512385
0.0562088
0.0608568
0.0650597
0.0687093
0.071722
0.0740466
0.0756705
0.0766217
0.0769668
0.0768038
0.0762516
0.0754368
0.0744805
0.0734903
0.072522
0.071636
0.000681475
0.000540122
0.000376811
0.000199163
1.0389e-05
-0.00018476
-0.000384038
-0.000586513
-0.000791851
-0.00100001
-0.00121116
-0.00142568
-0.00164401
-0.00186663
-0.00209392
-0.00232611
-0.00256326
-0.00280525
-0.00305176
-0.00330227
-0.00355608
-0.0038123
-0.00406988
-0.00432755
-0.00458389
-0.00483725
-0.00508571
-0.00532708
-0.00555875
-0.00577766
-0.00598011
-0.00616165
-0.0063169
-0.00643937
-0.0065212
-0.00655295
-0.00652332
-0.00641891
-0.00622392
-0.00591995
-0.00548582
-0.00489754
-0.00412838
-0.00314916
-0.0019288
-0.000435118
0.00136403
0.00349921
0.00599763
0.00888087
0.0121626
0.0158456
0.0199198
0.024359
0.0291193
0.0341377
0.0393314
0.0445997
0.0498256
0.0548817
0.0596357
0.0639595
0.0677383
0.0708809
0.0733282
0.0750603
0.076099
0.0765066
0.0763787
0.0758339
0.0749999
0.0739997
0.0729436
0.0718839
0.0708888
0.000821636
0.000656666
0.000475604
0.000286875
9.12633e-05
-0.000107192
-0.000306984
-0.000507848
-0.000710036
-0.000913992
-0.00112027
-0.00132952
-0.00154238
-0.00175943
-0.00198109
-0.00220763
-0.00243908
-0.00267531
-0.00291599
-0.00316061
-0.0034085
-0.00365885
-0.00391072
-0.00416302
-0.00441456
-0.00466399
-0.00490977
-0.00515014
-0.00538305
-0.00560602
-0.00581603
-0.00600938
-0.0061815
-0.00632673
-0.00643807
-0.00650691
-0.00652276
-0.00647288
-0.006342
-0.00611207
-0.00576201
-0.00526759
-0.00460154
-0.00373376
-0.00263183
-0.00126184
0.000410481
0.00241823
0.00479147
0.007555
0.0107259
0.0143106
0.0183026
0.0226794
0.0274005
0.0324057
0.0376144
0.0429268
0.048226
0.0533822
0.0582594
0.062724
0.0666536
0.0699485
0.0725405
0.074401
0.0755444
0.0760274
0.0759428
0.0754088
0.0745546
0.0735065
0.0723793
0.0712241
0.0701188
0.000967094
0.00077714
0.000577031
0.000376095
0.000172637
-3.00296e-05
-0.000231152
-0.000431139
-0.000630834
-0.000831176
-0.00103312
-0.00123758
-0.00144542
-0.00165732
-0.00187379
-0.00209511
-0.00232133
-0.00255231
-0.00278773
-0.0030271
-0.00326983
-0.00351519
-0.0037624
-0.00401058
-0.0042588
-0.00450606
-0.00475126
-0.00499314
-0.00523021
-0.00546066
-0.00568222
-0.00589198
-0.00608623
-0.00626018
-0.00640772
-0.0065211
-0.00659058
-0.00660409
-0.00654684
-0.00640103
-0.00614555
-0.00575586
-0.00520396
-0.00445869
-0.00348614
-0.00225051
-0.000715264
0.00115536
0.00339443
0.00603005
0.00908287
0.0125632
0.0164683
0.0207795
0.02546
0.0304528
0.0356799
0.0410428
0.0464245
0.0516936
0.0567103
0.0613347
0.0654368
0.068907
0.071667
0.0736779
0.0749452
0.0755192
0.0754888
0.0749714
0.0740985
0.0730008
0.071799
0.0705451
0.0693287
0.00111597
0.00089984
0.000679556
0.000465434
0.00025325
4.55786e-05
-0.000157602
-0.000357384
-0.000555206
-0.000752507
-0.00095064
-0.00115083
-0.00135412
-0.00156135
-0.00177309
-0.00198967
-0.00221115
-0.00243743
-0.00266818
-0.00290299
-0.00314133
-0.00338262
-0.00362623
-0.00387156
-0.00411798
-0.00436488
-0.00461163
-0.00485753
-0.00510172
-0.00534312
-0.00558024
-0.00581104
-0.00603269
-0.00624132
-0.00643172
-0.006597
-0.00672818
-0.0068138
-0.00683949
-0.00678761
-0.00663694
-0.00636247
-0.00593539
-0.00532331
-0.00449073
-0.00339983
-0.0020117
-0.00028783
0.00180795
0.00430715
0.00723414
0.0106032
0.0144155
0.0186564
0.0232933
0.0282726
0.0335195
0.0389371
0.0444089
0.049802
0.0549728
0.0597753
0.064071
0.0677399
0.0706921
0.072877
0.0742897
0.0749724
0.0750094
0.0745171
0.0736293
0.072482
0.0712035
0.0698488
0.06852
0.00126642
0.00102304
0.000781597
0.00055344
0.00033177
0.0001184
-8.74866e-05
-0.000287676
-0.000484207
-0.000679025
-0.000873885
-0.00107031
-0.00126956
-0.00147261
-0.00168012
-0.00189247
-0.00210975
-0.00233187
-0.00255859
-0.00278952
-0.00302427
-0.00326239
-0.0035035
-0.00374725
-0.00399338
-0.00424172
-0.00449215
-0.00474458
-0.00499886
-0.00525466
-0.00551135
-0.00576777
-0.00602204
-0.00627122
-0.00651104
-0.00673544
-0.00693617
-0.00710235
-0.00721996
-0.00727144
-0.00723535
-0.00708612
-0.006794
-0.00632528
-0.00564276
-0.00470654
-0.00347524
-0.00190756
3.582e-05
0.00238987
0.00518275
0.00843289
0.0121453
0.0163101
0.0208987
0.0258618
0.0311277
0.0366022
0.0421695
0.0476956
0.0530337
0.0580314
0.0625413
0.0664322
0.0696015
0.0719853
0.0735667
0.0743782
0.0744983
0.0740416
0.0731448
0.0719497
0.0705939
0.0691367
0.0676939
0.00141657
0.001145
0.000881518
0.000638589
0.000406778
0.00018711
-2.20553e-05
-0.000223208
-0.000418996
-0.000611871
-0.000803988
-0.000997175
-0.0011929
-0.00139229
-0.00159608
-0.00180471
-0.00201833
-0.00223688
-0.00246017
-0.00268792
-0.00291986
-0.00315573
-0.00339539
-0.00363882
-0.00388616
-0.00413771
-0.00439393
-0.00465538
-0.00492266
-0.00519626
-0.00547643
-0.00576297
-0.00605495
-0.00635042
-0.00664599
-0.00693647
-0.00721429
-0.0074691
-0.00768716
-0.00785092
-0.00793862
-0.00792402
-0.00777637
-0.00746054
-0.00693755
-0.0061654
-0.00510022
-0.00369786
-0.00191588
0.000284165
0.00293432
0.00605725
0.0096621
0.0137434
0.0182777
0.0232199
0.0285022
0.0340335
0.0396995
0.0453657
0.0508821
0.0560905
0.0608342
0.0649703
0.0683819
0.0709907
0.0727657
0.0737282
0.0739492
0.0735411
0.072643
0.0714037
0.069971
0.0684098
0.0668511
0.00156453
0.00126391
0.000977637
0.000719303
0.000476787
0.000250301
3.73546e-05
-0.000165266
-0.000360821
-0.000552269
-0.000742166
-0.000932636
-0.00112536
-0.0013216
-0.0015222
-0.00172764
-0.00193813
-0.00215368
-0.00237415
-0.00259939
-0.00282928
-0.00306378
-0.00330302
-0.00354734
-0.00379733
-0.00405381
-0.00431785
-0.00459074
-0.00487384
-0.00516853
-0.00547599
-0.00579698
-0.00613159
-0.00647881
-0.0068362
-0.00719935
-0.00756139
-0.00791241
-0.00823889
-0.00852322
-0.00874323
-0.00887194
-0.0088775
-0.00872333
-0.00836866
-0.00776931
-0.00687896
-0.00565067
-0.00403886
-0.00200165
0.000496892
0.003484
0.00697261
0.0109621
0.0154346
0.0203496
0.0256438
0.0312296
0.0369951
0.042806
0.0485098
0.0539425
0.0589384
0.0633419
0.0670213
0.0698818
0.0718768
0.0730142
0.0733563
0.0730118
0.0721223
0.0708439
0.0693356
0.0676694
0.0659925
0.00170841
0.00137796
0.00106821
0.000793924
0.000540225
0.000306476
8.93088e-05
-0.000115233
-0.000311028
-0.00050154
-0.000689721
-0.000877986
-0.00106822
-0.00126183
-0.00145974
-0.00166251
-0.0018704
-0.00208348
-0.00230171
-0.00252508
-0.00275363
-0.00298758
-0.00322737
-0.00347374
-0.00372774
-0.00399078
-0.00426459
-0.0045512
-0.00485282
-0.00517174
-0.0055101
-0.00586967
-0.00625154
-0.00665568
-0.00708056
-0.00752256
-0.00797543
-0.00842965
-0.00887187
-0.00928432
-0.00964437
-0.00992423
-0.0100909
-0.0101063
-0.00992791
-0.00950936
-0.00880191
-0.00775588
-0.00632264
-0.00445701
-0.00211903
0.000723337
0.00408608
0.00797479
0.0123769
0.0172568
0.0225563
0.0281923
0.0340558
0.0400136
0.0459114
0.0515799
0.0568444
0.0615366
0.0655087
0.0686482
0.0708908
0.0722291
0.0727143
0.0724508
0.0715816
0.0702706
0.0686889
0.0669169
0.0651191
0.00184628
0.00148529
0.00115145
0.000860739
0.000595449
0.000354061
0.000132291
-7.4576e-05
-0.000271045
-0.000461083
-0.000648029
-0.000834581
-0.00102282
-0.00121429
-0.00141
-0.00161058
-0.00181635
-0.00202746
-0.00224399
-0.00246606
-0.00269392
-0.00292808
-0.0031693
-0.00341876
-0.00367803
-0.00394915
-0.00423454
-0.00453702
-0.00485969
-0.00520576
-0.0055784
-0.00598039
-0.00641383
-0.00687968
-0.00737728
-0.00790377
-0.00845347
-0.00901722
-0.00958174
-0.0101291
-0.010636
-0.0110739
-0.0114087
-0.0116007
-0.0116056
-0.0113749
-0.0108577
-0.0100015
-0.00875472
-0.00706897
-0.00490011
-0.00221216
0.00101386
0.00479334
0.00911536
0.0139507
0.0192473
0.0249269
0.0308845
0.0369887
0.0430843
0.0489976
0.0545451
0.0595457
0.0638348
0.0672807
0.0697994
0.0713659
0.0720185
0.0718552
0.0710199
0.0696843
0.0680327
0.0661542
0.0642322
0.00197619
0.00158398
0.00122551
0.000917957
0.000640735
0.000391391
0.000164693
-4.48555e-05
-0.000242391
-0.00043238
-0.00061854
-0.00080384
-0.000990551
-0.00118033
-0.0013743
-0.00157313
-0.00177721
-0.0019868
-0.00220207
-0.00242333
-0.00265107
-0.00288607
-0.00312949
-0.00338298
-0.00364866
-0.00392921
-0.00422782
-0.00454812
-0.00489414
-0.00527007
-0.00568007
-0.00612799
-0.00661692
-0.0071488
-0.00772383
-0.00833986
-0.00899173
-0.00967057
-0.0103631
-0.0110511
-0.0117109
-0.0123128
-0.0128216
-0.0131962
-0.0133904
-0.0133539
-0.0130333
-0.0123737
-0.0113206
-0.00982201
-0.00782914
-0.00530735
-0.00222576
0.00143363
0.00566389
0.0104441
0.0157277
0.0214423
0.0274876
0.0337351
0.0400295
0.0461936
0.0520361
0.0573626
0.0619917
0.065771
0.0685949
0.0704184
0.0712645
0.0712227
0.0704369
0.0690862
0.0673688
0.0653836
0.0633341
0.00209613
0.00167207
0.00128846
0.000963725
0.000674285
0.000416724
0.000184826
-2.7711e-05
-0.00022666
-0.000416983
-0.000602765
-0.000787232
-0.000972831
-0.00116134
-0.00135394
-0.00155139
-0.00175416
-0.00196256
-0.00217695
-0.0023978
-0.00262585
-0.00286222
-0.00310849
-0.00336678
-0.00363983
-0.003931
-0.00424426
-0.00458412
-0.00495553
-0.0053637
-0.00581383
-0.00631079
-0.0068587
-0.00746043
-0.00811702
-0.00882697
-0.00958561
-0.0103843
-0.0112097
-0.0120434
-0.0128608
-0.0136316
-0.0143193
-0.0148814
-0.01527
-0.0154328
-0.0153144
-0.0148573
-0.0140041
-0.0126994
-0.0108929
-0.0085446
-0.00561557
-0.00208886
0.00203903
0.00675263
0.012012
0.0177513
0.0238756
0.0302603
0.0367515
0.0431695
0.0493157
0.0549835
0.0599737
0.0641126
0.0672709
0.0693813
0.0704486
0.0705517
0.0698328
0.0684781
0.0667001
0.064608
0.0624275
0.00220406
0.00174754
0.00133834
0.00099611
0.000694218
0.000428233
0.000190912
-2.48693e-05
-0.00022553
-0.00041652
-0.000602278
-0.000786275
-0.000971117
-0.00115869
-0.00135025
-0.00154661
-0.00174831
-0.00195579
-0.00216954
-0.00239024
-0.00261893
-0.00285704
-0.00310662
-0.00337032
-0.00365152
-0.00395428
-0.0042834
-0.00464428
-0.00504284
-0.00548531
-0.00597794
-0.00652663
-0.00713651
-0.00781135
-0.00855299
-0.00936056
-0.0102298
-0.0111522
-0.0121144
-0.0130976
-0.0140766
-0.0150201
-0.0158904
-0.0166438
-0.0172306
-0.0175969
-0.0176851
-0.0174354
-0.016788
-0.0156846
-0.014073
-0.0119039
-0.00913853
-0.00575375
-0.00173933
0.00289561
0.00811836
0.0138701
0.0200624
0.0265758
0.0332587
0.0399302
0.0463857
0.052407
0.0577773
0.0623005
0.0658222
0.06825
0.0695677
0.0698409
0.0692083
0.0678622
0.0660298
0.0638314
0.0615161
0.00229789
0.00180832
0.0013731
0.00101311
0.000698579
0.000424011
0.000181098
-3.81298e-05
-0.000240743
-0.000432672
-0.0006187
-0.000802519
-0.000986885
-0.00117377
-0.00136451
-0.00155996
-0.00176075
-0.00196744
-0.00218066
-0.00240133
-0.00263078
-0.00287085
-0.00312403
-0.00339355
-0.00368344
-0.00399853
-0.00434445
-0.00472753
-0.00515468
-0.00563315
-0.00617024
-0.00677288
-0.00744718
-0.00819781
-0.00902732
-0.00993543
-0.0109182
-0.0119674
-0.0130694
-0.0142049
-0.0153482
-0.0164671
-0.0175228
-0.01847
-0.0192579
-0.0198306
-0.0201286
-0.0200903
-0.0196532
-0.0187565
-0.0173443
-0.0153631
-0.0127708
-0.00953804
-0.00564852
-0.00110477
0.00406806
0.00981875
0.0160663
0.0226971
0.0295635
0.0364847
0.0432515
0.049635
0.0554015
0.0603319
0.0642451
0.067021
0.0686196
0.06909
0.0685648
0.0672416
0.065362
0.0630581
0.0606046
0.00237548
0.00185228
0.00139062
0.00101264
0.000685327
0.000402065
0.000153445
-6.93734e-05
-0.000274116
-0.000467188
-0.000653698
-0.000837546
-0.00102162
-0.00120797
-0.00139799
-0.00159259
-0.00179248
-0.00199834
-0.00221098
-0.00243158
-0.00266177
-0.0029038
-0.00316066
-0.00343618
-0.00373507
-0.00406296
-0.00442634
-0.00483248
-0.0052893
-0.00580507
-0.00638814
-0.00704646
-0.00778709
-0.00861553
-0.00953505
-0.0105459
-0.0116444
-0.0128224
-0.0140661
-0.0153558
-0.0166652
-0.017961
-0.0192035
-0.0203461
-0.0213365
-0.0221174
-0.0226274
-0.022803
-0.0225796
-0.0218937
-0.0206857
-0.0188994
-0.0164883
-0.013417
-0.00966347
-0.00522341
-0.000114249
0.00562091
0.0119091
0.0186437
0.0256824
0.032846
0.0399222
0.0466729
0.0528484
0.0582064
0.0625377
0.0656923
0.0676031
0.0682992
0.0679045
0.0666199
0.0647017
0.0622939
0.0596988
0.00243463
0.0018772
0.00138872
0.000992548
0.000652342
0.000360325
0.00010594
-0.000120548
-0.000327523
-0.00052186
-0.000708972
-0.000892955
-0.00107681
-0.00126265
-0.00145191
-0.00164557
-0.00184441
-0.00204924
-0.00226108
-0.00248135
-0.00271204
-0.00295582
-0.00321621
-0.00349767
-0.00380563
-0.00414651
-0.0045277
-0.00495743
-0.00544461
-0.00599858
-0.00662869
-0.00734389
-0.00815216
-0.00905981
-0.0100708
-0.0111857
-0.0124012
-0.0137092
-0.0150956
-0.0165403
-0.0180163
-0.0194896
-0.0209191
-0.0222574
-0.0234507
-0.0244403
-0.0251633
-0.0255542
-0.0255465
-0.0250742
-0.0240746
-0.0224886
-0.0202653
-0.0173641
-0.013757
-0.00943278
-0.00440112
0.00130335
0.00761626
0.0144392
0.021636
0.0290312
0.036411
0.04353
0.0501232
0.055926
0.0607001
0.0642634
0.066518
0.0674697
0.0672302
0.0660019
0.0640548
0.0615453
0.0588054
0.00247307
0.00188081
0.00136511
0.000950575
0.000597412
0.000296632
3.64854e-05
-0.000193677
-0.000402904
-0.000598527
-0.000786255
-0.000970354
-0.00115392
-0.00133913
-0.00152744
-0.00171989
-0.00191735
-0.00212077
-0.00233137
-0.00255085
-0.00278158
-0.00302667
-0.0032902
-0.00357728
-0.00389407
-0.00424784
-0.00464686
-0.00510035
-0.00561823
-0.00621084
-0.00688858
-0.00766135
-0.008538
-0.0095256
-0.0106287
-0.0118483
-0.0131813
-0.0146194
-0.0161486
-0.0177482
-0.0193903
-0.0210403
-0.0226562
-0.0241892
-0.0255845
-0.0267821
-0.0277175
-0.0283238
-0.0285325
-0.0282755
-0.0274871
-0.0261054
-0.0240754
-0.0213516
-0.0179002
-0.0137033
-0.00876266
-0.00310428
0.00321662
0.0101105
0.0174491
0.0250617
0.0327355
0.0402194
0.0472351
0.0534963
0.0587351
0.0627354
0.0653656
0.0666038
0.066546
0.065393
0.063428
0.0608199
0.0579326
0.00248847
0.00186076
0.00131745
0.000884391
0.000518246
0.000208747
-5.70873e-05
-0.000290844
-0.000502243
-0.000699064
-0.000887293
-0.00107135
-0.00125441
-0.0014387
-0.00162569
-0.00181647
-0.00201202
-0.00221342
-0.00242212
-0.00264013
-0.00287019
-0.0031159
-0.00338191
-0.00367401
-0.00399912
-0.00436536
-0.00478191
-0.00525897
-0.00580747
-0.00643876
-0.00716422
-0.00799469
-0.00893987
-0.0100075
-0.0112027
-0.0125268
-0.0139769
-0.0155447
-0.0172157
-0.0189688
-0.0207757
-0.0226006
-0.0244009
-0.0261266
-0.0277219
-0.0291254
-0.0302717
-0.031092
-0.0315164
-0.0314747
-0.0308988
-0.0297239
-0.0278912
-0.0253507
-0.0220631
-0.0180038
-0.013167
-0.00756991
-0.00125821
0.00568822
0.0131499
0.0209629
0.0289171
0.0367583
0.0441967
0.0509256
0.0566479
0.0611119
0.0641487
0.065705
0.0658566
0.0647997
0.0628294
0.0601266
0.0570896
0.00247844
0.00181461
0.00124328
0.000791564
0.00041245
9.43387e-05
-0.00017703
-0.000414205
-0.000627582
-0.000825381
-0.00101385
-0.00119754
-0.00137971
-0.00156258
-0.00174767
-0.00193612
-0.002129
-0.00232755
-0.00253346
-0.00274905
-0.00297748
-0.00322284
-0.00349041
-0.00378665
-0.00411927
-0.00449724
-0.00493069
-0.00543077
-0.00600941
-0.00667896
-0.00745177
-0.00833958
-0.00935286
-0.0105
-0.0117867
-0.0132144
-0.0147803
-0.0164762
-0.0182872
-0.0201918
-0.0221608
-0.024158
-0.0261396
-0.0280548
-0.0298468
-0.0314532
-0.0328072
-0.033839
-0.034477
-0.0346493
-0.0342855
-0.0333181
-0.0316852
-0.0293322
-0.0262149
-0.0223023
-0.0175811
-0.0120597
-0.00577431
0.0012055
0.00877008
0.0167639
0.0249816
0.0331681
0.0410248
0.0482264
0.0544471
0.0593987
0.062872
0.0647782
0.0651681
0.0642298
0.0622678
0.0594754
0.0562872
0.00244047
0.00173982
0.00114006
0.000669563
0.000277539
-4.90084e-05
-0.000325667
-0.000565972
-0.000781
-0.000979406
-0.00116768
-0.0013505
-0.00153117
-0.00171194
-0.00189433
-0.00207954
-0.00226874
-0.00246335
-0.00266531
-0.00287729
-0.00310286
-0.00334666
-0.00361457
-0.00391378
-0.00425279
-0.00464145
-0.00509081
-0.00561299
-0.00622092
-0.0069279
-0.00774722
-0.00869147
-0.00977185
-0.0109974
-0.0123742
-0.0139038
-0.0155835
-0.0174053
-0.0193537
-0.0214066
-0.0235345
-0.0257001
-0.027859
-0.0299595
-0.0319439
-0.0337487
-0.0353063
-0.0365456
-0.0373936
-0.037777
-0.0376232
-0.0368626
-0.0354301
-0.0332672
-0.0303248
-0.0265662
-0.0219708
-0.0165386
-0.010296
-0.00330211
0.00434427
0.0124973
0.0209584
0.0294742
0.0377401
0.0454146
0.0521443
0.0576041
0.0615423
0.0638299
0.064488
0.0636919
0.0617536
0.0588776
0.0555373
0.00237202
0.00163377
0.00100512
0.000515747
0.000110921
-0.000223808
-0.000505405
-0.000748422
-0.000964622
-0.00116309
-0.00135055
-0.00153179
-0.00171014
-0.00188786
-0.0020665
-0.00224731
-0.00243157
-0.00262089
-0.00281748
-0.00302437
-0.00324558
-0.0034863
-0.00375306
-0.00405377
-0.00439777
-0.00479575
-0.00525971
-0.00580274
-0.00643871
-0.00718188
-0.00804642
-0.00904572
-0.0101917
-0.0114939
-0.0129588
-0.0145881
-0.016379
-0.0183235
-0.0204058
-0.0226032
-0.0248856
-0.027215
-0.0295462
-0.0318268
-0.0339981
-0.0359959
-0.0377516
-0.0391931
-0.0402463
-0.0408363
-0.0408891
-0.0403327
-0.0390993
-0.0371271
-0.0343626
-0.0307634
-0.0263023
-0.0209711
-0.0147868
-0.00779749
-9.08423e-05
0.0081983
0.0168802
0.0257058
0.0343673
0.0425098
0.0497547
0.0557397
0.0601685
0.0628683
0.0638251
0.0631965
0.0612985
0.0583461
0.0548535
0.0022704
0.0014937
0.000835695
0.000327358
-9.01028e-05
-0.000432667
-0.000718728
-0.000963885
-0.0011806
-0.00137839
-0.00156419
-0.00174289
-0.00191785
-0.00209134
-0.00226492
-0.00243988
-0.00261766
-0.00280006
-0.00298957
-0.00318962
-0.00340468
-0.00364053
-0.00390437
-0.00420484
-0.00455211
-0.00495775
-0.0054347
-0.00599697
-0.00665938
-0.0074371
-0.00834515
-0.00939769
-0.0106072
-0.0119839
-0.0135344
-0.0152604
-0.017159
-0.0192225
-0.0214346
-0.0237719
-0.0262037
-0.0286914
-0.031189
-0.0336435
-0.0359953
-0.0381796
-0.0401268
-0.041764
-0.0430161
-0.0438071
-0.0440612
-0.0437048
-0.0426677
-0.0408848
-0.0382988
-0.0348624
-0.030542
-0.0253219
-0.0192096
-0.0122427
-0.00449696
0.00390462
0.0127829
0.0218956
0.030935
0.0395359
0.0472969
0.0538201
0.0587623
0.0619038
0.06319
0.062755
0.0609155
0.057895
0.0542508
0.00213286
0.00131676
0.000628872
0.000101506
-0.000328357
-0.000678298
-0.000968204
-0.00121475
-0.00143113
-0.00162726
-0.00181032
-0.00198527
-0.00215551
-0.00232328
-0.00249018
-0.00265758
-0.00282704
-0.00300058
-0.00318103
-0.00337219
-0.00357905
-0.00380796
-0.00406682
-0.00436503
-0.00471359
-0.00512495
-0.00561295
-0.00619255
-0.00687946
-0.00768975
-0.00863922
-0.00974272
-0.0110134
-0.0124617
-0.0140949
-0.0159141
-0.0179164
-0.0200946
-0.0224315
-0.0249034
-0.0274788
-0.0301185
-0.0327759
-0.0353972
-0.0379223
-0.0402856
-0.0424167
-0.0442421
-0.0456856
-0.0466703
-0.0471192
-0.046957
-0.0461113
-0.0445145
-0.0421057
-0.0388333
-0.0346578
-0.0295565
-0.023528
-0.0165996
-0.00883503
-0.000344654
0.00870446
0.0180791
0.0274749
0.0365201
0.0447933
0.0518629
0.057338
0.0609488
0.0625948
0.0623808
0.0606192
0.0575401
0.0537459
0.00195651
0.00109994
0.0003816
-0.000164837
-0.00060679
-0.000963522
-0.00125648
-0.00150347
-0.00171841
-0.00191167
-0.00209062
-0.00226032
-0.00242418
-0.00258446
-0.00274277
-0.00290057
-0.00305956
-0.00322204
-0.00339113
-0.00357109
-0.0037674
-0.00398704
-0.0042386
-0.00453227
-0.00487986
-0.00529472
-0.00579159
-0.00638631
-0.0070955
-0.00793603
-0.00892446
-0.0100763
-0.0114052
-0.012922
-0.0146345
-0.0165429
-0.0186441
-0.0209321
-0.0233886
-0.0259891
-0.0287016
-0.0314865
-0.0342963
-0.0370768
-0.0397671
-0.0423009
-0.0446075
-0.0466124
-0.0482388
-0.0494089
-0.0500445
-0.050069
-0.0494083
-0.0479924
-0.0457575
-0.0426478
-0.0386191
-0.0336419
-0.0277067
-0.0208307
-0.0130659
-0.00450959
0.0046845
0.0142945
0.0240222
0.0334932
0.0422698
0.0498894
0.0559128
0.0600181
0.0620539
0.0620886
0.0604257
0.0572989
0.0533571
0.00173832
0.000840093
9.06583e-05
-0.000474862
-0.000928495
-0.00129128
-0.0015863
-0.00183254
-0.00204469
-0.00223355
-0.00240673
-0.00256936
-0.00272487
-0.00287555
-0.00302303
-0.00316886
-0.00331495
-0.00346382
-0.00361899
-0.00378514
-0.0039683
-0.00417606
-0.00441777
-0.00470436
-0.00504851
-0.00546442
-0.0059677
-0.0065751
-0.00730405
-0.00817222
-0.00919686
-0.0103941
-0.011778
-0.0133597
-0.0151478
-0.0171409
-0.0193357
-0.0217283
-0.0242985
-0.0270212
-0.0298639
-0.0327864
-0.0357407
-0.0386719
-0.0415186
-0.044214
-0.0466867
-0.0488616
-0.0506614
-0.0520073
-0.0528204
-0.0530229
-0.052539
-0.0512971
-0.0492305
-0.0462804
-0.0423977
-0.0375472
-0.0317121
-0.0248999
-0.0171513