/*--------------------------------*- C++ -*----------------------------------*\
  =========                 |
  \\      /  F ield         | OpenFOAM: The Open Source CFD Toolbox
   \\    /   O peration     | Website:  https://openfoam.org
    \\  /    A nd           | Version:  12
     \\/     M anipulation  |
\*---------------------------------------------------------------------------*/
FoamFile
{
    format      ascii;
    class       surfaceScalarField;
    location    "1";
    object      phi;
}
// * * * * * * * * * * * * * * * * * * * * * * * * * * * * * * * * * * * * * //

dimensions      [0 3 -1 0 0 0 0];

internalField   nonuniform List<scalar> 
11100
(
3.67721e-10
-3.70376e-10
9.80403e-10
-6.12512e-10
1.47347e-09
-4.9295e-10
1.66784e-09
-1.9426e-10
1.50298e-09
1.64976e-10
9.7928e-10
5.23807e-10
1.27459e-10
8.51895e-10
-1.00909e-09
1.13659e-09
-2.38455e-09
1.3755e-09
-3.95639e-09
1.57187e-09
-5.68863e-09
1.73226e-09
-7.55341e-09
1.86479e-09
-9.5314e-09
1.97801e-09
-1.16116e-08
2.08019e-09
-1.37905e-08
2.1789e-09
-1.60713e-08
2.28081e-09
-1.84629e-08
2.3916e-09
-2.09789e-08
2.51608e-09
-2.36372e-08
2.65821e-09
-2.64584e-08
2.82129e-09
-2.94665e-08
3.00807e-09
-3.26874e-08
3.22087e-09
-3.61491e-08
3.46171e-09
-3.98814e-08
3.73233e-09
-4.39157e-08
4.03429e-09
-4.82846e-08
4.36893e-09
-5.3022e-08
4.73733e-09
-5.81623e-08
5.14031e-09
-6.37405e-08
5.57825e-09
-6.97915e-08
6.05099e-09
-7.63492e-08
6.5577e-09
-8.34458e-08
7.09658e-09
-9.11106e-08
7.66477e-09
-9.93686e-08
8.25798e-09
-1.08239e-07
8.87035e-09
-1.17733e-07
9.49406e-09
-1.27852e-07
1.01191e-08
-1.38585e-07
1.07332e-08
-1.49906e-07
1.1321e-08
-1.61771e-07
1.18646e-08
-1.74114e-07
1.2343e-08
-1.86846e-07
1.27319e-08
-1.9985e-07
1.30043e-08
-2.1298e-07
1.31304e-08
-2.26059e-07
1.30782e-08
-2.38873e-07
1.28143e-08
-2.51178e-07
1.2305e-08
-2.62696e-07
1.15176e-08
-2.73118e-07
1.04223e-08
-2.82112e-07
8.99433e-09
-2.89319e-07
7.20714e-09
-2.94379e-07
5.05931e-09
-2.9698e-07
2.60155e-09
-2.96772e-07
-2.0827e-10
-2.9347e-07
-3.30213e-09
-2.86869e-07
-6.60096e-09
-2.76845e-07
-1.00238e-08
-2.63389e-07
-1.34566e-08
-2.46622e-07
-1.67664e-08
-2.26817e-07
-1.98056e-08
-2.04397e-07
-2.24194e-08
-1.79941e-07
-2.44565e-08
-1.54159e-07
-2.57816e-08
-1.27871e-07
-2.62883e-08
-1.01959e-07
-2.59113e-08
-7.73239e-08
-2.46356e-08
-5.48225e-08
-2.25014e-08
-3.52191e-08
-1.96034e-08
-1.91345e-08
-1.60846e-08
-7.00658e-09
-1.21279e-08
9.44969e-10
-7.95155e-09
4.7713e-09
-3.82633e-09
4.89346e-09
-1.22158e-10
2.47011e-09
2.42334e-09
2.47011e-09
8.13458e-10
-1.18354e-09
2.08791e-09
-1.88665e-09
3.01992e-09
-1.42474e-09
3.17103e-09
-3.4519e-10
2.37157e-09
9.64614e-10
6.03899e-10
2.29163e-09
-2.06673e-09
3.52263e-09
-5.53618e-09
4.60611e-09
-9.68869e-09
5.52805e-09
-1.44139e-08
6.29709e-09
-1.96167e-08
6.93508e-09
-2.52224e-08
7.47051e-09
-3.11786e-08
7.9342e-09
-3.74548e-08
8.35647e-09
-4.40414e-08
8.76546e-09
-5.09468e-08
9.18621e-09
-5.81955e-08
9.6404e-09
-6.58258e-08
1.01464e-08
-7.38872e-08
1.07196e-08
-8.24387e-08
1.13727e-08
-9.15472e-08
1.21166e-08
-1.01287e-07
1.29602e-08
-1.11736e-07
1.39113e-08
-1.2298e-07
1.49763e-08
-1.35107e-07
1.6161e-08
-1.48208e-07
1.74699e-08
-1.62377e-07
1.89065e-08
-1.7771e-07
2.0473e-08
-1.94301e-07
2.21696e-08
-2.12244e-07
2.39943e-08
-2.31629e-07
2.59422e-08
-2.52537e-07
2.80045e-08
-2.7504e-07
3.0168e-08
-2.99196e-07
3.24141e-08
-3.25044e-07
3.47178e-08
-3.52596e-07
3.70468e-08
-3.81837e-07
3.93603e-08
-4.12713e-07
4.16085e-08
-4.45123e-07
4.37315e-08
-4.78918e-07
4.56589e-08
-5.13884e-07
4.73094e-08
-5.49743e-07
4.85912e-08
-5.86141e-07
4.94021e-08
-6.22643e-07
4.96317e-08
-6.58727e-07
4.9163e-08
-6.93788e-07
4.78754e-08
-7.27133e-07
4.56497e-08
-7.57989e-07
4.23731e-08
-7.85512e-07
3.79458e-08
-8.08806e-07
3.22886e-08
-8.26941e-07
2.53417e-08
-8.38942e-07
1.70601e-08
-8.43995e-07
7.65441e-09
-8.41269e-07
-2.9337e-09
-8.30069e-07
-1.45023e-08
-8.09897e-07
-2.67725e-08
-7.80511e-07
-3.94099e-08
-7.41962e-07
-5.20053e-08
-6.94648e-07
-6.40813e-08
-6.39341e-07
-7.51123e-08
-5.77208e-07
-8.45524e-08
-5.09793e-07
-9.18717e-08
-4.38976e-07
-9.65981e-08
-3.66903e-07
-9.83614e-08
-2.9588e-07
-9.69346e-08
-2.28249e-07
-9.22662e-08
-1.66253e-07
-8.44978e-08
-1.11891e-07
-7.3965e-08
-6.67947e-08
-6.11813e-08
-3.2108e-08
-4.68146e-08
-8.38063e-09
-3.16789e-08
4.57797e-09
-1.67849e-08
7.97264e-09
-3.51683e-09
4.58017e-09
5.81581e-09
7.05028e-09
1.05379e-09
-2.23746e-09
2.55763e-09
-3.39046e-09
3.45539e-09
-2.32246e-09
3.16129e-09
-5.1032e-11
1.41933e-09
2.70669e-09
-1.81181e-09
5.52287e-09
-6.44858e-09
8.15948e-09
-1.23445e-08
1.05021e-08
-1.93316e-08
1.25151e-08
-2.72463e-08
1.42118e-08
-3.59461e-08
1.56349e-08
-4.53178e-08
1.68423e-08
-5.52816e-08
1.7898e-08
-6.57907e-08
1.88656e-08
-7.68303e-08
1.9805e-08
-8.8414e-08
2.07699e-08
-1.0058e-07
2.18069e-08
-1.1339e-07
2.2956e-08
-1.26921e-07
2.42509e-08
-1.41268e-07
2.57195e-08
-1.56537e-07
2.73855e-08
-1.72845e-07
2.92684e-08
-1.90319e-07
3.1385e-08
-2.09092e-07
3.37492e-08
-2.29303e-07
3.63727e-08
-2.51098e-07
3.92645e-08
-2.74623e-07
4.2431e-08
-3.00025e-07
4.58751e-08
-3.2745e-07
4.95953e-08
-3.57041e-07
5.35848e-08
-3.88928e-07
5.78297e-08
-4.23232e-07
6.23079e-08
-4.60051e-07
6.6987e-08
-4.99459e-07
7.18225e-08
-5.41497e-07
7.67559e-08
-5.86163e-07
8.17126e-08
-6.33403e-07
8.66001e-08
-6.83101e-07
9.13061e-08
-7.35066e-07
9.56974e-08
-7.89026e-07
9.96187e-08
-8.44609e-07
1.02893e-07
-9.01339e-07
1.05321e-07
-9.58622e-07
1.06685e-07
-1.01574e-06
1.06751e-07
-1.07185e-06
1.05275e-07
-1.12599e-06
1.02008e-07
-1.17704e-06
9.67081e-08
-1.22382e-06
8.91505e-08
-1.26502e-06
7.91425e-08
-1.29927e-06
6.65392e-08
-1.32518e-06
5.12565e-08
-1.34134e-06
3.3213e-08
-1.34649e-06
1.28057e-08
-1.3395e-06
-9.92543e-09
-1.31937e-06
-3.46247e-08
-1.28548e-06
-6.0672e-08
-1.23752e-06
-8.73615e-08
-1.17569e-06
-1.13839e-07
-1.10065e-06
-1.39118e-07
-1.01364e-06
-1.62122e-07
-9.16456e-07
-1.8174e-07
-8.11431e-07
-1.96897e-07
-7.01391e-07
-2.06639e-07
-5.89536e-07
-2.10216e-07
-4.793e-07
-2.07171e-07
-3.7417e-07
-1.97396e-07
-2.7749e-07
-1.81178e-07
-1.92254e-07
-1.59201e-07
-1.20909e-07
-1.32526e-07
-6.51757e-08
-1.02548e-07
-2.58646e-08
-7.09901e-08
-2.66071e-09
-3.99888e-08
6.2378e-09
-1.24153e-08
4.69971e-09
7.3539e-09
1.175e-08
1.10966e-09
-3.34701e-09
2.51823e-09
-4.79891e-09
3.0107e-09
-2.8148e-09
1.91998e-09
1.03982e-09
-1.059e-09
5.68583e-09
-5.98225e-09
1.04463e-08
-1.27533e-08
1.49307e-08
-2.11949e-08
1.89437e-08
-3.10991e-08
2.24194e-08
-4.22615e-08
2.53742e-08
-5.45018e-08
2.78752e-08
-6.7676e-08
3.00165e-08
-8.16819e-08
3.19039e-08
-9.64601e-08
3.36439e-08
-1.11992e-07
3.53371e-08
-1.28297e-07
3.70747e-08
-1.45427e-07
3.89366e-08
-1.63462e-07
4.09913e-08
-1.82508e-07
4.32968e-08
-2.0269e-07
4.59018e-08
-2.24151e-07
4.88468e-08
-2.47049e-07
5.21657e-08
-2.71551e-07
5.58869e-08
-2.97835e-07
6.0034e-08
-3.26089e-07
6.46258e-08
-3.565e-07
6.96763e-08
-3.89264e-07
7.51944e-08
-4.24571e-07
8.11823e-08
-4.6261e-07
8.7634e-08
-5.03558e-07
9.45335e-08
-5.47581e-07
1.01853e-07
-5.94821e-07
1.09548e-07
-6.45391e-07
1.17557e-07
-6.99367e-07
1.25798e-07
-7.56774e-07
1.34163e-07
-8.17579e-07
1.42517e-07
-8.81674e-07
1.50695e-07
-9.48865e-07
1.58497e-07
-1.01886e-06
1.6569e-07
-1.09124e-06
1.72003e-07
-1.16548e-06
1.77131e-07
-1.24089e-06
1.80735e-07
-1.31665e-06
1.82446e-07
-1.39177e-06
1.81872e-07
-1.46511e-06
1.78611e-07
-1.53536e-06
1.72255e-07
-1.60107e-06
1.62417e-07
-1.66066e-06
1.48742e-07
-1.71245e-06
1.30937e-07
-1.7547e-06
1.08791e-07
-1.78565e-06
8.22059e-08
-1.80362e-06
5.11753e-08
-1.80697e-06
1.61561e-08
-1.79434e-06
-2.25526e-08
-1.76463e-06
-6.43324e-08
-1.71712e-06
-1.08181e-07
-1.65157e-06
-1.52915e-07
-1.56829e-06
-1.97117e-07
-1.46824e-06
-2.39171e-07
-1.35304e-06
-2.77323e-07
-1.225e-06
-3.09772e-07
-1.08712e-06
-3.34782e-07
-9.42947e-07
-3.5081e-07
-7.96516e-07
-3.56647e-07
-6.52142e-07
-3.51545e-07
-5.14214e-07
-3.35324e-07
-3.8695e-07
-3.08442e-07
-2.74143e-07
-2.72008e-07
-1.78911e-07
-2.27758e-07
-1.03453e-07
-1.78006e-07
-4.88136e-08
-1.2563e-07
-1.46127e-08
-7.41897e-08
1.3287e-09
-2.83567e-08
3.53092e-09
5.15168e-09
1.52809e-08
1.02333e-09
-4.37044e-09
2.0612e-09
-5.83683e-09
1.83488e-09
-2.58851e-09
-3.60321e-10
3.23503e-09
-4.84861e-09
1.01742e-08
-1.16883e-08
1.72861e-08
-2.07693e-08
2.40117e-08
-3.18892e-08
3.00637e-08
-4.4809e-08
3.53392e-08
-5.92917e-08
3.9857e-08
-7.51274e-08
4.37109e-08
-9.21477e-08
4.70368e-08
-1.10233e-07
4.99893e-08
-1.29314e-07
5.27253e-08
-1.49372e-07
5.53943e-08
-1.70429e-07
5.81325e-08
-1.92553e-07
6.10599e-08
-2.15841e-07
6.42799e-08
-2.40425e-07
6.78803e-08
-2.66458e-07
7.19348e-08
-2.94116e-07
7.6505e-08
-3.23593e-07
8.16421e-08
-3.55094e-07
8.73884e-08
-3.88838e-07
9.37783e-08
-4.25051e-07
1.00839e-07
-4.63964e-07
1.08589e-07
-5.05807e-07
1.17038e-07
-5.5081e-07
1.26185e-07
-5.99193e-07
1.36017e-07
-6.51164e-07
1.46504e-07
-7.06905e-07
1.57594e-07
-7.66573e-07
1.69215e-07
-8.30281e-07
1.81265e-07
-8.98091e-07
1.93609e-07
-9.70003e-07
2.06075e-07
-1.04593e-06
2.18448e-07
-1.12571e-06
2.3047e-07
-1.20904e-06
2.41832e-07
-1.29553e-06
2.52172e-07
-1.3846e-06
2.6108e-07
-1.47557e-06
2.68093e-07
-1.56753e-06
2.72704e-07
-1.65945e-06
2.74365e-07
-1.75008e-06
2.72503e-07
-1.838e-06
2.66531e-07
-1.92162e-06
2.55868e-07
-1.99917e-06
2.39968e-07
-2.06877e-06
2.18344e-07
-2.12844e-06
1.90603e-07
-2.17613e-06
1.56487e-07
-2.20983e-06
1.15906e-07
-2.22762e-06
6.89656e-08
-2.22769e-06
1.62174e-08
-2.2085e-06
-4.17343e-08
-2.16892e-06
-1.03918e-07
-2.10821e-06
-1.68892e-07
-2.0262e-06
-2.34918e-07
-1.92339e-06
-2.99936e-07
-1.80094e-06
-3.61613e-07
-1.66083e-06
-4.17434e-07
-1.50578e-06
-4.6482e-07
-1.33927e-06
-5.01293e-07
-1.16544e-06
-5.24646e-07
-9.88942e-07
-5.33144e-07
-8.14782e-07
-5.25705e-07
-6.48053e-07
-5.02053e-07
-4.93673e-07
-4.62823e-07
-3.56085e-07
-4.09596e-07
-2.38965e-07
-3.44877e-07
-1.44933e-07
-2.72039e-07
-7.52658e-08
-1.95297e-07
-2.96022e-08
-1.19853e-07
-5.58329e-09
-5.23756e-08
1.59701e-09
-2.02863e-09
1.68779e-08
8.1949e-10
-5.18988e-09
1.25902e-09
-6.27631e-09
4.44683e-11
-1.37392e-09
-3.52736e-09
6.80695e-09
-9.77568e-09
1.64226e-08
-1.87476e-08
2.62581e-08
-3.03152e-08
3.55795e-08
-4.42531e-08
4.40016e-08
-6.0296e-08
5.13822e-08
-7.81809e-08
5.77418e-08
-9.7674e-08
6.3204e-08
-1.18588e-07
6.7951e-08
-1.40791e-07
7.21917e-08
-1.64206e-07
7.61403e-08
-1.88813e-07
8.00017e-08
-2.14644e-07
8.39635e-08
-2.41776e-07
8.81919e-08
-2.70327e-07
9.28306e-08
-3.00448e-07
9.8002e-08
-3.32322e-07
1.03809e-07
-3.66154e-07
1.10337e-07
-4.02168e-07
1.17656e-07
-4.40606e-07
1.25826e-07
-4.8172e-07
1.34893e-07
-5.25772e-07
1.44891e-07
-5.73026e-07
1.55842e-07
-6.23745e-07
1.67757e-07
-6.78187e-07
1.80628e-07
-7.36598e-07
1.94428e-07
-7.992e-07
2.09106e-07
-8.66191e-07
2.24584e-07
-9.37724e-07
2.40748e-07
-1.0139e-06
2.57444e-07
-1.09476e-06
2.7447e-07
-1.18026e-06
2.91575e-07
-1.27026e-06
3.08448e-07
-1.36451e-06
3.24714e-07
-1.46261e-06
3.39933e-07
-1.56403e-06
3.53595e-07
-1.66808e-06
3.65124e-07
-1.77386e-06
3.73876e-07
-1.88031e-06
3.79154e-07
-1.98616e-06
3.80211e-07
-2.08993e-06
3.76274e-07
-2.18996e-06
3.66561e-07
-2.2844e-06
3.5031e-07
-2.37124e-06
3.26814e-07
-2.44836e-06
2.95458e-07
-2.51352e-06
2.55768e-07
-2.56449e-06
2.07456e-07
-2.59906e-06
1.50476e-07
-2.61516e-06
8.5065e-08
-2.61087e-06
1.19308e-08
-2.58462e-06
-6.79908e-08
-2.53522e-06
-1.53313e-07
-2.46201e-06
-2.42106e-07
-2.3649e-06
-3.32027e-07
-2.24452e-06
-4.20318e-07
-2.10225e-06
-5.03876e-07
-1.94032e-06
-5.79369e-07
-1.76175e-06
-6.43387e-07
-1.5704e-06
-6.92648e-07
-1.37082e-06
-7.24228e-07
-1.16815e-06
-7.35814e-07
-9.67908e-07
-7.25942e-07
-7.75753e-07
-6.94208e-07
-5.97159e-07
-6.41416e-07
-4.37114e-07
-5.6964e-07
-2.99779e-07
-4.82212e-07
-1.8816e-07
-3.83658e-07
-1.03788e-07
-2.79669e-07
-4.64099e-08
-1.77231e-07
-1.36658e-08
-8.51197e-08
-7.57258e-10
-1.49372e-08
1.61207e-08
5.23762e-10
-5.7137e-09
1.75617e-10
-5.92823e-09
-2.25999e-09
1.06162e-09
-7.45187e-09
1.19988e-08
-1.5691e-08
2.46618e-08
-2.70004e-08
3.75675e-08
-4.12287e-08
4.98079e-08
-5.81264e-08
6.08993e-08
-7.74046e-08
7.06604e-08
-9.87781e-08
7.91153e-08
-1.21994e-07
8.64202e-08
-1.46851e-07
9.28077e-08
-1.73206e-07
9.85466e-08
-2.00979e-07
1.03914e-07
-2.30152e-07
1.09175e-07
-2.60764e-07
1.14575e-07
-2.92904e-07
1.20331e-07
-3.26706e-07
1.26633e-07
-3.62343e-07
1.3364e-07
-4.00022e-07
1.41487e-07
-4.39974e-07
1.50288e-07
-4.82453e-07
1.60135e-07
-5.27729e-07
1.71103e-07
-5.76087e-07
1.8325e-07
-6.27815e-07
1.96619e-07
-6.83207e-07
2.11234e-07
-7.42551e-07
2.27101e-07
-8.06127e-07
2.44203e-07
-8.74194e-07
2.62495e-07
-9.46987e-07
2.81899e-07
-1.0247e-06
3.02298e-07
-1.10748e-06
3.23527e-07
-1.1954e-06
3.45369e-07
-1.28848e-06
3.67543e-07
-1.3866e-06
3.897e-07
-1.48957e-06
4.11413e-07
-1.59703e-06
4.32177e-07
-1.70849e-06
4.51398e-07
-1.8233e-06
4.68398e-07
-1.94059e-06
4.82415e-07
-2.05932e-06
4.92607e-07
-2.17823e-06
4.98069e-07
-2.29587e-06
4.97844e-07
-2.41054e-06
4.90948e-07
-2.52038e-06
4.76401e-07
-2.62333e-06
4.53261e-07
-2.71719e-06
4.20669e-07
-2.79963e-06
3.77898e-07
-2.86827e-06
3.2441e-07
-2.92073e-06
2.59916e-07
-2.95469e-06
1.84442e-07
-2.96801e-06
9.83839e-08
-2.95874e-06
2.6538e-09
-2.92527e-06
-1.01457e-07
-2.86647e-06
-2.12113e-07
-2.78172e-06
-3.26861e-07
-2.67102e-06
-4.42724e-07
-2.53512e-06
-5.56219e-07
-2.37555e-06
-6.63445e-07
-2.1947e-06
-7.60221e-07
-1.99581e-06
-8.4227e-07
-1.78299e-06
-9.05469e-07
-1.56109e-06
-9.46131e-07
-1.33559e-06
-9.6131e-07
-1.11242e-06
-9.49114e-07
-8.9766e-07
-9.0897e-07
-6.97255e-07
-8.41821e-07
-5.16664e-07
-7.50232e-07
-3.60487e-07
-6.38388e-07
-2.3211e-07
-5.12035e-07
-1.33355e-07
-3.78425e-07
-6.41664e-08
-2.46419e-07
-2.23359e-08
-1.2695e-07
-3.29558e-09
-3.39776e-08
1.28251e-08
1.55489e-10
-5.86916e-09
-1.13822e-09
-4.63453e-09
-4.99681e-09
4.92022e-09
-1.20253e-08
1.90273e-08
-2.24669e-08
3.51036e-08
-3.63073e-08
5.1408e-08
-5.33644e-08
6.6865e-08
-7.33621e-08
8.08971e-08
-9.59883e-08
9.32867e-08
-1.20938e-07
1.04065e-07
-1.47943e-07
1.13425e-07
-1.76789e-07
1.21654e-07
-2.07328e-07
1.29085e-07
-2.39477e-07
1.36063e-07
-2.73222e-07
1.42919e-07
-3.08607e-07
1.49961e-07
-3.45736e-07
1.5746e-07
-3.84759e-07
1.65655e-07
-4.25866e-07
1.74747e-07
-4.69287e-07
1.84908e-07
-5.15277e-07
1.96278e-07
-5.64114e-07
2.08973e-07
-6.16096e-07
2.23085e-07
-6.7153e-07
2.38684e-07
-7.3073e-07
2.5582e-07
-7.94012e-07
2.74516e-07
-8.61683e-07
2.94772e-07
-9.34035e-07
3.16555e-07
-1.01134e-06
3.39796e-07
-1.09382e-06
3.64383e-07
-1.18167e-06
3.90152e-07
-1.27502e-06
4.16876e-07
-1.37391e-06
4.44261e-07
-1.4783e-06
4.71933e-07
-1.58804e-06
4.9943e-07
-1.70282e-06
5.26196e-07
-1.82221e-06
5.51573e-07
-1.94561e-06
5.74799e-07
-2.07223e-06
5.95012e-07
-2.20106e-06
6.11246e-07
-2.3309e-06
6.22451e-07
-2.46034e-06
6.27503e-07
-2.58772e-06
6.25226e-07
-2.7112e-06
6.14428e-07
-2.82873e-06
5.93933e-07
-2.9381e-06
5.62629e-07
-3.03695e-06
5.1952e-07
-3.12284e-06
4.63788e-07
-3.19329e-06
3.94856e-07
-3.24583e-06
3.12461e-07
-3.27812e-06
2.16727e-07
-3.28797e-06
1.08233e-07
-3.27345e-06
-1.18681e-08
-3.23299e-06
-1.41915e-07
-3.16549e-06
-2.79609e-07
-3.07039e-06
-4.21958e-07
-2.94778e-06
-5.65341e-07
-2.79845e-06
-7.05544e-07
-2.62404e-06
-8.3786e-07
-2.42701e-06
-9.57244e-07
-2.21075e-06
-1.05854e-06
-1.97948e-06
-1.13674e-06
-1.73826e-06
-1.18735e-06
-1.49281e-06
-1.20676e-06
-1.24935e-06
-1.19257e-06
-1.01433e-06
-1.144e-06
-7.94074e-07
-1.06207e-06
-5.94479e-07
-9.49826e-07
-4.20566e-07
-8.12301e-07
-2.7611e-07
-6.56492e-07
-1.6327e-07
-4.91265e-07
-8.22782e-08
-3.27411e-07
-3.12046e-08
-1.78024e-07
-5.87277e-09
-5.93093e-08
6.95229e-09
-2.69274e-10
-5.59993e-09
-2.6403e-09
-2.26357e-09
-8.09742e-09
1.03773e-08
-1.71563e-08
2.80862e-08
-2.99941e-08
4.79414e-08
-4.65465e-08
6.79604e-08
-6.65926e-08
8.69112e-08
-8.98259e-08
1.0413e-07
-1.1591e-07
1.19371e-07
-1.44522e-07
1.32677e-07
-1.75379e-07
1.44282e-07
-2.08257e-07
1.54533e-07
-2.43004e-07
1.63832e-07
-2.79538e-07
1.72597e-07
-3.17847e-07
1.81229e-07
-3.57986e-07
1.901e-07
-4.00069e-07
1.99543e-07
-4.44259e-07
2.09845e-07
-4.90767e-07
2.21256e-07
-5.3984e-07
2.33981e-07
-5.91754e-07
2.48192e-07
-6.46811e-07
2.64029e-07
-7.05326e-07
2.81601e-07
-7.67631e-07
3.00989e-07
-8.34057e-07
3.22246e-07
-9.04936e-07
3.45394e-07
-9.80585e-07
3.70421e-07
-1.06131e-06
3.97275e-07
-1.14736e-06
4.25855e-07
-1.23899e-06
4.56006e-07
-1.33634e-06
4.87508e-07
-1.43953e-06
5.20062e-07
-1.54855e-06
5.53284e-07
-1.66331e-06
5.86693e-07
-1.78358e-06
6.19702e-07
-1.909e-06
6.51607e-07
-2.03901e-06
6.81586e-07
-2.1729e-06
7.08695e-07
-2.30976e-06
7.31869e-07
-2.44845e-06
7.49935e-07
-2.58762e-06
7.61623e-07
-2.72571e-06
7.65586e-07
-2.86091e-06
7.60434e-07
-2.99125e-06
7.44768e-07
-3.11455e-06
7.1723e-07
-3.22847e-06
6.76553e-07
-3.33058e-06
6.21626e-07
-3.41835e-06
5.51562e-07
-3.48927e-06
4.65772e-07
-3.54085e-06
3.64043e-07
-3.57075e-06
2.46623e-07
-3.5768e-06
1.14289e-07
-3.55713e-06
-3.15425e-08
-3.51021e-06
-1.88837e-07
-3.43498e-06
-3.54834e-07
-3.33094e-06
-5.26004e-07
-3.19818e-06
-6.98094e-07
-3.03756e-06
-8.66168e-07
-2.8507e-06
-1.02472e-06
-2.6401e-06
-1.16785e-06
-2.40915e-06
-1.28948e-06
-2.16215e-06
-1.38373e-06
-1.90424e-06
-1.44526e-06
-1.64131e-06
-1.46969e-06
-1.3798e-06
-1.45409e-06
-1.12643e-06
-1.39736e-06
-8.87921e-07
-1.30058e-06
-6.70549e-07
-1.1672e-06
-4.79766e-07
-1.00308e-06
-3.19766e-07
-8.16492e-07
-1.931e-07
-6.1793e-07
-1.0037e-07
-4.20141e-07
-4.00297e-08
-2.38364e-07
-8.39963e-09
-9.09394e-08
-1.44734e-09
-7.3898e-10
-4.86094e-09
-4.29864e-09
1.29607e-09
-1.15071e-08
1.75857e-08
-2.27694e-08
3.93485e-08
-3.81799e-08
6.3352e-08
-5.76118e-08
8.73925e-08
-8.07974e-08
1.10097e-07
-1.07395e-07
1.30728e-07
-1.37043e-07
1.49019e-07
-1.69397e-07
1.65031e-07
-2.04163e-07
1.79048e-07
-2.41111e-07
1.9148e-07
-2.80083e-07
2.02805e-07
-3.21e-07
2.13513e-07
-3.63855e-07
2.24083e-07
-4.0871e-07
2.34955e-07
-4.55691e-07
2.46523e-07
-5.04975e-07
2.5913e-07
-5.5679e-07
2.7307e-07
-6.11397e-07
2.88588e-07
-6.69092e-07
3.05887e-07
-7.30194e-07
3.2513e-07
-7.95037e-07
3.46444e-07
-8.63966e-07
3.69918e-07
-9.37329e-07
3.95608e-07
-1.01546e-06
4.23529e-07
-1.0987e-06
4.53654e-07
-1.18733e-06
4.85904e-07
-1.28161e-06
5.20142e-07
-1.38177e-06
5.56161e-07
-1.48793e-06
5.93673e-07
-1.60017e-06
6.32298e-07
-1.71844e-06
6.71551e-07
-1.84257e-06
7.10831e-07
-1.97228e-06
7.4941e-07
-2.1071e-06
7.86426e-07
-2.24639e-06
8.2088e-07
-2.38933e-06
8.51634e-07
-2.53488e-06
8.77415e-07
-2.68178e-06
8.96833e-07
-2.82855e-06
9.08397e-07
-2.97351e-06
9.10542e-07
-3.11474e-06
9.01667e-07
-3.25015e-06
8.80182e-07
-3.37748e-06
8.44561e-07
-3.49434e-06
7.93405e-07
-3.59822e-06
7.2551e-07
-3.6866e-06
6.39946e-07
-3.75697e-06
5.36138e-07
-3.80687e-06
4.13945e-07
-3.834e-06
2.73752e-07
-3.83626e-06
1.16549e-07
-3.81182e-06
-5.59798e-08
-3.75923e-06
-2.41434e-07
-3.67745e-06
-4.36609e-07
-3.566e-06
-6.37459e-07
-3.42497e-06
-8.39118e-07
-3.25518e-06
-1.03596e-06
-3.05821e-06
-1.2217e-06
-2.83648e-06
-1.38957e-06
-2.59335e-06
-1.53262e-06
-2.33307e-06
-1.64401e-06
-2.06081e-06
-1.71752e-06
-1.78253e-06
-1.74797e-06
-1.50484e-06
-1.73178e-06
-1.23473e-06
-1.66748e-06
-9.79232e-07
-1.55608e-06
-7.45041e-07
-1.40139e-06
-5.38048e-07
-1.21008e-06
-3.62905e-07
-9.91635e-07
-2.2262e-07
-7.58216e-07
-1.18236e-07
-5.24525e-07
-4.86795e-08
-3.07921e-07
-1.08318e-08
-1.28787e-07
-1.22791e-08
-1.24473e-09
-3.61623e-09
-6.08724e-09
6.13852e-09
-1.51808e-08
2.66793e-08
-2.88013e-08
5.29689e-08
-4.69447e-08
8.14955e-08
-6.94104e-08
1.09858e-07
-9.58755e-08
1.36562e-07
-1.25958e-07
1.6081e-07
-1.59266e-07
1.82327e-07
-1.95437e-07
2.01203e-07
-2.34164e-07
2.17775e-07
-2.75209e-07
2.32525e-07
-3.18414e-07
2.46009e-07
-3.637e-07
2.58799e-07
-4.11067e-07
2.7145e-07
-4.60585e-07
2.84473e-07
-5.12389e-07
2.98328e-07
-5.66673e-07
3.13413e-07
-6.23673e-07
3.30071e-07
-6.8367e-07
3.48584e-07
-7.46971e-07
3.69189e-07
-8.13911e-07
3.9207e-07
-8.84837e-07
4.1737e-07
-9.60106e-07
4.45187e-07
-1.04007e-06
4.75574e-07
-1.12508e-06
5.08537e-07
-1.21545e-06
5.44027e-07
-1.31148e-06
5.81935e-07
-1.41342e-06
6.22077e-07
-1.52144e-06
6.64187e-07
-1.63567e-06
7.07902e-07
-1.75613e-06
7.52748e-07
-1.8827e-06
7.98128e-07
-2.01518e-06
8.43309e-07
-2.15318e-06
8.87412e-07
-2.29616e-06
9.29407e-07
-2.44339e-06
9.68106e-07
-2.59393e-06
1.00217e-06
-2.74663e-06
1.03012e-06
-2.90013e-06
1.05034e-06
-3.05286e-06
1.06112e-06
-3.20301e-06
1.06069e-06
-3.3486e-06
1.04726e-06
-3.48747e-06
1.01905e-06
-3.6173e-06
9.74394e-07
-3.73568e-06
9.11784e-07
-3.84012e-06
8.29951e-07
-3.92812e-06
7.27946e-07
-3.99721e-06
6.05226e-07
-4.04501e-06
4.61743e-07
-4.06929e-06
2.98029e-07
-4.06802e-06
1.15281e-07
-4.03945e-06
-8.45473e-08
-3.98217e-06
-2.98714e-07
-3.89518e-06
-5.23601e-07
-3.77796e-06
-7.54676e-07
-3.63057e-06
-9.86505e-07
-3.45373e-06
-1.2128e-06
-3.2489e-06
-1.42653e-06
-3.01838e-06
-1.62009e-06
-2.76538e-06
-1.78562e-06
-2.49406e-06
-1.91533e-06
-2.20953e-06
-2.00205e-06
-1.91777e-06
-2.03972e-06
-1.62552e-06
-2.02403e-06
-1.33998e-06
-1.95302e-06
-1.06852e-06
-1.82754e-06
-8.18243e-07
-1.65166e-06
-5.95523e-07
-1.4328e-06
-4.0552e-07
-1.18164e-06
-2.51756e-07
-9.11979e-07
-1.35797e-07
-6.40484e-07
-5.71018e-08
-3.86616e-07
-1.31548e-08
-1.72734e-07
-2.5434e-08
-1.78047e-09
-1.83575e-09
-7.98683e-09
1.23449e-08
-1.9083e-08
3.77754e-08
-3.51997e-08
6.90855e-08
-5.62211e-08
1.02517e-07
-8.18614e-08
1.35499e-07
-1.11734e-07
1.66435e-07
-1.45411e-07
1.94487e-07
-1.82469e-07
2.19384e-07
-2.22523e-07
2.41257e-07
-2.65252e-07
2.60504e-07
-3.10413e-07
2.77687e-07
-3.57846e-07
2.93442e-07
-4.07475e-07
3.08428e-07
-4.59305e-07
3.2328e-07
-5.13415e-07
3.38583e-07
-5.6995e-07
3.54863e-07
-6.29113e-07
3.72577e-07
-6.91155e-07
3.92113e-07
-7.56367e-07
4.13796e-07
-8.25069e-07
4.37891e-07
-8.97606e-07
4.64607e-07
-9.74335e-07
4.94099e-07
-1.05562e-06
5.2647e-07
-1.14181e-06
5.61769e-07
-1.23326e-06
5.99988e-07
-1.33029e-06
6.41052e-07
-1.43317e-06
6.84812e-07
-1.54212e-06
7.31033e-07
-1.65731e-06
7.7938e-07
-1.77882e-06
8.29405e-07
-1.9066e-06
8.80532e-07
-2.04051e-06
9.3204e-07
-2.18026e-06
9.83057e-07
-2.32539e-06
1.03254e-06
-2.47527e-06
1.07929e-06
-2.62908e-06
1.12191e-06
-2.78578e-06
1.15888e-06
-2.94415e-06
1.18848e-06
-3.10272e-06
1.20891e-06
-3.25982e-06
1.21823e-06
-3.41361e-06
1.21448e-06
-3.56203e-06
1.19568e-06
-3.7029e-06
1.15992e-06
-3.8339e-06
1.10539e-06
-3.95262e-06
1.03051e-06
-4.05664e-06
9.33966e-07
-4.14351e-06
8.14814e-07
-4.21085e-06
6.72564e-07
-4.25637e-06
5.07266e-07
-4.27794e-06
3.19602e-07
-4.27363e-06
1.10971e-07
-4.24175e-06
-1.16426e-07
-4.18093e-06
-3.59536e-07
-4.09016e-06
-6.1437e-07
-3.96889e-06
-8.75954e-07
-3.81706e-06
-1.13833e-06
-3.63525e-06
-1.39461e-06
-3.42474e-06
-1.63703e-06
-3.18764e-06
-1.85719e-06
-2.92695e-06
-2.04631e-06
-2.64665e-06
-2.19563e-06
-2.35174e-06
-2.29697e-06
-2.04817e-06
-2.34329e-06
-1.74275e-06
-2.32945e-06
-1.4429e-06
-2.25287e-06
-1.15631e-06
-2.11413e-06
-8.90515e-07
-1.91746e-06
-6.52409e-07
-1.6709e-06
-4.47719e-07
-1.38633e-06
-2.80552e-07
-1.07915e-06
-1.53061e-07
-7.67975e-07
-6.53012e-08
-4.74376e-07
-1.53747e-08
-2.2266e-07
-4.08087e-08
-2.34128e-09
5.05497e-10
-9.98167e-09
1.99852e-08
-2.31842e-08
5.09778e-08
-4.19206e-08
8.7822e-08
-6.59509e-08
1.26547e-07
-9.48934e-08
1.64441e-07
-1.2829e-07
1.99832e-07
-1.65661e-07
2.31858e-07
-2.06547e-07
2.6027e-07
-2.50539e-07
2.85249e-07
-2.97303e-07
3.07268e-07
-3.46588e-07
3.26972e-07
-3.98232e-07
3.45087e-07
-4.52164e-07
3.6236e-07
-5.08392e-07
3.79508e-07
-5.67005e-07
3.97196e-07
-6.28156e-07
4.16014e-07
-6.92058e-07
4.36478e-07
-7.58971e-07
4.59026e-07
-8.29196e-07
4.84021e-07
-9.03063e-07
5.11759e-07
-9.80923e-07
5.42467e-07
-1.06314e-06
5.76314e-07
-1.15007e-06
6.13405e-07
-1.24208e-06
6.5378e-07
-1.33951e-06
6.97412e-07
-1.44265e-06
7.44195e-07
-1.55177e-06
7.93934e-07
-1.66708e-06
8.46335e-07
-1.78869e-06
9.00988e-07
-1.91663e-06
9.57349e-07
-2.05083e-06
1.01473e-06
-2.19107e-06
1.07228e-06
-2.33699e-06
1.12898e-06
-2.48806e-06
1.18362e-06
-2.64358e-06
1.2348e-06
-2.80263e-06
1.28096e-06
-2.9641e-06
1.32035e-06
-3.12667e-06
1.35106e-06
-3.28883e-06
1.37106e-06
-3.44884e-06
1.37824e-06
-3.60481e-06
1.37045e-06
-3.75469e-06
1.34556e-06
-3.89627e-06
1.3015e-06
-4.02728e-06
1.2364e-06
-4.14538e-06
1.14861e-06
-4.2482e-06
1.03679e-06
-4.33341e-06
9.00027e-07
-4.39874e-06
7.37896e-07
-4.44203e-06
5.5055e-07
-4.46124e-06
3.38813e-07
-4.45453e-06
1.04266e-07
-4.42029e-06
-1.50668e-07
-4.35716e-06
-4.22668e-07
-4.2641e-06
-7.07423e-07
-4.14048e-06
-9.99576e-07
-3.98611e-06
-1.29271e-06
-3.80136e-06
-1.57936e-06
-3.58729e-06
-1.85111e-06
-3.34571e-06
-2.09876e-06
-3.07938e-06
-2.31264e-06
-2.79204e-06
-2.48297e-06
-2.48851e-06
-2.6005e-06
-2.17466e-06
-2.65714e-06
-1.85734e-06
-2.64677e-06
-1.54415e-06
-2.56606e-06
-1.24312e-06
-2.41517e-06
-9.62246e-07
-2.19833e-06
-7.08982e-07
-1.92417e-06
-4.89687e-07
-1.60562e-06
-3.09126e-07
-1.25971e-06
-1.70104e-07
-9.06998e-07
-7.33201e-08
-5.7116e-07
-1.751e-08
-2.78471e-07
-5.83187e-08
-2.924e-09
3.42949e-09
-1.20602e-08
2.91214e-08
-2.74611e-08
6.63787e-08
-4.89279e-08
1.09289e-07
-7.60845e-08
1.53704e-07
-1.08444e-07
1.96801e-07
-1.45469e-07
2.36857e-07
-1.86622e-07
2.73011e-07
-2.31402e-07
3.05051e-07
-2.79377e-07
3.33224e-07
-3.30196e-07
3.58087e-07
-3.836e-07
3.80376e-07
-4.39427e-07
4.00914e-07
-4.97606e-07
4.20539e-07
-5.58152e-07
4.40055e-07
-6.21161e-07
4.60204e-07
-6.86792e-07
4.81646e-07
-7.55268e-07
5.04954e-07
-8.26857e-07
5.30615e-07
-9.01866e-07
5.59031e-07
-9.80632e-07
5.90524e-07
-1.06351e-06
6.25343e-07
-1.15086e-06
6.63665e-07
-1.24305e-06
7.05592e-07
-1.34042e-06
7.51154e-07
-1.44331e-06
8.00299e-07
-1.55199e-06
8.52883e-07
-1.66672e-06
9.08662e-07
-1.78766e-06
9.67273e-07
-1.91489e-06
1.02822e-06
-2.04841e-06
1.09086e-06
-2.18807e-06
1.15439e-06
-2.33361e-06
1.21782e-06
-2.48459e-06
1.27996e-06
-2.64042e-06
1.33944e-06
-2.80031e-06
1.39469e-06
-2.96328e-06
1.44393e-06
-3.12815e-06
1.48522e-06
-3.29354e-06
1.51645e-06
-3.45789e-06
1.53541e-06
-3.61943e-06
1.53979e-06
-3.77627e-06
1.52729e-06
-3.92634e-06
1.49563e-06
-4.06751e-06
1.44267e-06
-4.19756e-06
1.36645e-06
-4.31424e-06
1.26528e-06
-4.41528e-06
1.13784e-06
-4.4985e-06
9.83243e-07
-4.56175e-06
8.01142e-07
-4.60299e-06
5.91789e-07
-4.62031e-06
3.56136e-07
-4.61196e-06
9.59183e-08
-4.57638e-06
-1.86252e-07
-4.51221e-06
-4.86835e-07
-4.41837e-06
-8.01261e-07
-4.2941e-06
-1.12385e-06
-4.13903e-06
-1.44777e-06
-3.95331e-06
-1.76508e-06
-3.73768e-06
-2.06674e-06
-3.49365e-06
-2.34279e-06
-3.22365e-06
-2.58264e-06
-2.93112e-06
-2.7755e-06
-2.62064e-06
-2.91098e-06
-2.29795e-06
-2.97983e-06
-1.96991e-06
-2.97481e-06
-1.64427e-06
-2.89169e-06
-1.32941e-06
-2.73003e-06
-1.03381e-06
-2.49393e-06
-7.65543e-07
-2.19244e-06
-5.31655e-07
-1.83951e-06
-3.37642e-07
-1.45372e-06
-1.87035e-07
-1.0576e-06
-8.12245e-08
-6.76971e-07
-1.95864e-08
-3.40109e-07
-7.79051e-08
-3.52597e-09
6.95543e-09
-1.42129e-08
3.98082e-08
-3.18944e-08
8.40602e-08
-5.61905e-08
1.33585e-07
-8.65789e-08
1.84092e-07
-1.22458e-07
2.3268e-07
-1.63203e-07
2.77602e-07
-2.08213e-07
3.18022e-07
-2.56945e-07
3.53783e-07
-3.08936e-07
3.85215e-07
-3.63817e-07
4.12968e-07
-4.21323e-07
4.37882e-07
-4.81288e-07
4.60879e-07
-5.43644e-07
4.82894e-07
-6.08411e-07
5.04822e-07
-6.75688e-07
5.27481e-07
-7.45645e-07
5.51603e-07
-8.18508e-07
5.77817e-07
-8.94551e-07
6.06659e-07
-9.74088e-07
6.38567e-07
-1.05746e-06
6.73891e-07
-1.14501e-06
7.12897e-07
-1.23711e-06
7.55766e-07
-1.33411e-06
8.02597e-07
-1.43636e-06
8.53402e-07
-1.54416e-06
9.08101e-07
-1.65779e-06
9.66507e-07
-1.77744e-06
1.02832e-06
-1.90327e-06
1.0931e-06
-2.03531e-06
1.16026e-06
-2.1735e-06
1.22905e-06
-2.31765e-06
1.29854e-06
-2.46743e-06
1.3676e-06
-2.62235e-06
1.43488e-06
-2.78175e-06
1.49884e-06
-2.94476e-06
1.55771e-06
-3.11037e-06
1.60953e-06
-3.27732e-06
1.65217e-06
-3.44421e-06
1.68334e-06
-3.60943e-06
1.70063e-06
-3.77124e-06
1.70159e-06
-3.92773e-06
1.68378e-06
-4.0769e-06
1.64481e-06
-4.21669e-06
1.58246e-06
-4.34495e-06
1.49472e-06
-4.45957e-06
1.3799e-06
-4.55843e-06
1.23669e-06
-4.63946e-06
1.06427e-06
-4.70067e-06
8.62356e-07
-4.74017e-06
6.31288e-07
-4.75617e-06
3.72129e-07
-4.74698e-06
8.6737e-08
-4.7111e-06
-2.22132e-07
-4.64717e-06
-5.50773e-07
-4.55401e-06
-8.94418e-07
-4.43073e-06
-1.24713e-06
-4.27674e-06
-1.60176e-06
-4.09191e-06
-1.94991e-06
-3.87666e-06
-2.28199e-06
-3.63213e-06
-2.58732e-06
-3.36036e-06
-2.85442e-06
-3.06442e-06
-3.07144e-06
-2.74862e-06
-3.22679e-06
-2.4185e-06
-3.30994e-06
-2.08089e-06
-3.31243e-06
-1.74368e-06
-3.2289e-06
-1.41557e-06
-3.05814e-06
-1.10556e-06
-2.80394e-06
-8.22387e-07
-2.47561e-06
-5.73864e-07
-2.08803e-06
-3.66291e-07
-1.66129e-06
-2.0399e-07
-1.2199e-06
-8.90931e-08
-7.91868e-07
-2.16326e-08
-4.07569e-07
-9.95377e-08
-4.14555e-09
1.1101e-08
-1.64326e-08
5.20953e-08
-3.64687e-08
1.04096e-07
-6.3683e-08
1.60799e-07
-9.73971e-08
2.17806e-07
-1.36886e-07
2.72169e-07
-1.81432e-07
3.22148e-07
-2.30364e-07
3.66954e-07
-2.8309e-07
4.06509e-07
-3.39116e-07
4.41241e-07
-3.98056e-07
4.71908e-07
-4.59633e-07
4.99459e-07
-5.23678e-07
5.24924e-07
-5.90125e-07
5.49341e-07
-6.58996e-07
5.73693e-07
-7.30397e-07
5.98882e-07
-8.04502e-07
6.25707e-07
-8.81541e-07
6.54857e-07
-9.61794e-07
6.86912e-07
-1.04557e-06
7.22347e-07
-1.13322e-06
7.61537e-07
-1.22508e-06
8.0476e-07
-1.32152e-06
8.52202e-07
-1.42287e-06
9.03952e-07
-1.52947e-06
9.60002e-07
-1.64161e-06
1.02024e-06
-1.75952e-06
1.08442e-06
-1.8834e-06
1.15219e-06
-2.01333e-06
1.22303e-06
-2.14932e-06
1.29625e-06
-2.29127e-06
1.371e-06
-2.43892e-06
1.4462e-06
-2.59189e-06
1.52057e-06
-2.74963e-06
1.59262e-06
-2.91142e-06
1.66063e-06
-3.07635e-06
1.72264e-06
-3.24334e-06
1.77652e-06
-3.41112e-06
1.81995e-06
-3.57824e-06
1.85046e-06
-3.74312e-06
1.86551e-06
-3.90401e-06
1.86249e-06
-4.05908e-06
1.83884e-06
-4.20638e-06
1.79211e-06
-4.34393e-06
1.72001e-06
-4.46974e-06
1.62053e-06
-4.58181e-06
1.49196e-06
-4.67818e-06
1.33306e-06
-4.75694e-06
1.14304e-06
-4.81627e-06
9.21682e-07
-4.8544e-06
6.69421e-07
-4.86966e-06
3.87392e-07
-4.86047e-06
7.75383e-08
-4.82531e-06
-2.57284e-07
-4.76282e-06