/*--------------------------------*- C++ -*----------------------------------*\
  =========                 |
  \\      /  F ield         | OpenFOAM: The Open Source CFD Toolbox
   \\    /   O peration     | Website:  https://openfoam.org
    \\  /    A nd           | Version:  12
     \\/     M anipulation  |
\*---------------------------------------------------------------------------*/
FoamFile
{
    format      ascii;
    class       volVectorField;
    location    "1";
    object      U;
}
// * * * * * * * * * * * * * * * * * * * * * * * * * * * * * * * * * * * * * //

dimensions      [0 1 -1 0 0 0 0];

internalField   nonuniform List<vector> 
5625
(
(8.70582e-06 -6.00026e-06 0)
(5.0451e-05 -6.88993e-06 0)
(9.55361e-05 -5.37719e-06 0)
(0.000123578 -2.96193e-06 0)
(0.000125173 -4.55513e-07 0)
(9.91111e-05 1.87773e-06 0)
(4.69339e-05 3.90021e-06 0)
(-2.83688e-05 5.57513e-06 0)
(-0.000123314 6.91986e-06 0)
(-0.000234505 7.97491e-06 0)
(-0.000358954 8.79382e-06 0)
(-0.000494249 9.43459e-06 0)
(-0.000638615 9.95523e-06 0)
(-0.000790923 1.04092e-05 0)
(-0.00095064 1.08447e-05 0)
(-0.00111777 1.13021e-05 0)
(-0.00129279 1.18158e-05 0)
(-0.00147655 1.24131e-05 0)
(-0.00167024 1.3117e-05 0)
(-0.00187532 1.39453e-05 0)
(-0.00209348 1.49135e-05 0)
(-0.00232658 1.60344e-05 0)
(-0.00257666 1.73197e-05 0)
(-0.00284589 1.878e-05 0)
(-0.00313657 2.04258e-05 0)
(-0.0034511 2.22667e-05 0)
(-0.00379199 2.43129e-05 0)
(-0.00416179 2.6573e-05 0)
(-0.00456314 2.90554e-05 0)
(-0.00499865 3.17657e-05 0)
(-0.00547093 3.47074e-05 0)
(-0.00598246 3.78788e-05 0)
(-0.00653559 4.12733e-05 0)
(-0.00713237 4.48765e-05 0)
(-0.0077745 4.86656e-05 0)
(-0.00846315 5.26062e-05 0)
(-0.00919884 5.66517e-05 0)
(-0.00998125 6.07397e-05 0)
(-0.010809 6.4791e-05 0)
(-0.0116796 6.87064e-05 0)
(-0.0125889 7.23658e-05 0)
(-0.0135312 7.56256e-05 0)
(-0.0144988 7.83193e-05 0)
(-0.0154818 8.02562e-05 0)
(-0.0164682 8.12244e-05 0)
(-0.0174432 8.09931e-05 0)
(-0.0183899 7.93194e-05 0)
(-0.0192883 7.59555e-05 0)
(-0.0201166 7.0662e-05 0)
(-0.0208507 6.32522e-05 0)
(-0.0214638 5.33278e-05 0)
(-0.0219308 4.10851e-05 0)
(-0.0222219 2.65574e-05 0)
(-0.0223175 9.22151e-06 0)
(-0.0221896 -9.94634e-06 0)
(-0.0218207 -3.09394e-05 0)
(-0.021198 -5.31717e-05 0)
(-0.0203161 -7.58493e-05 0)
(-0.0191791 -9.80562e-05 0)
(-0.0178015 -0.000118742 0)
(-0.0162095 -0.000136781 0)
(-0.0144407 -0.000151057 0)
(-0.0125438 -0.000160554 0)
(-0.0105769 -0.000164468 0)
(-0.0086045 -0.000162297 0)
(-0.00669424 -0.000153918 0)
(-0.00491294 -0.000139617 0)
(-0.00332232 -0.000120072 0)
(-0.00197505 -9.6281e-05 0)
(-0.000911523 -6.94653e-05 0)
(-0.00015709 -4.10016e-05 0)
(0.000280443 -1.2567e-05 0)
(0.000415237 1.4136e-05 0)
(0.000307669 3.32854e-05 0)
(8.09398e-05 3.67053e-05 0)
(1.76732e-05 -2.75255e-05 0)
(0.000109742 -4.50229e-05 0)
(0.000202216 -3.59008e-05 0)
(0.000248351 -1.33336e-05 0)
(0.000225523 1.39459e-05 0)
(0.000128737 4.13243e-05 0)
(-3.92539e-05 6.64638e-05 0)
(-0.000271505 8.83651e-05 0)
(-0.000559376 0.000106808 0)
(-0.000894145 0.000122023 0)
(-0.00126798 0.000134498 0)
(-0.00167444 0.000144845 0)
(-0.00210875 0.000153713 0)
(-0.00256783 0.000161732 0)
(-0.00305019 0.000169481 0)
(-0.00355583 0.00017747 0)
(-0.00408603 0.000186139 0)
(-0.00464319 0.000195856 0)
(-0.00523063 0.000206928 0)
(-0.00585245 0.00021961 0)
(-0.00651341 0.000234115 0)
(-0.0072188 0.000250623 0)
(-0.00797438 0.00026929 0)
(-0.00878631 0.00029025 0)
(-0.00966106 0.000313621 0)
(-0.0106054 0.000339504 0)
(-0.0116263 0.000367982 0)
(-0.0127309 0.000399113 0)
(-0.0139264 0.00043292 0)
(-0.0152198 0.000469387 0)
(-0.016618 0.000508439 0)
(-0.0181277 0.000549934 0)
(-0.0197545 0.000593639 0)
(-0.0215034 0.000639216 0)
(-0.0233782 0.000686202 0)
(-0.0253808 0.000733985 0)
(-0.0275114 0.000781788 0)
(-0.0297673 0.000828643 0)
(-0.032143 0.000873377 0)
(-0.0346292 0.000914596 0)
(-0.0372124 0.000950675 0)
(-0.0398743 0.000979758 0)
(-0.0425913 0.000999766 0)
(-0.0453339 0.00100842 0)
(-0.0480663 0.00100328 0)
(-0.0507462 0.000981805 0)
(-0.0533249 0.000941445 0)
(-0.0557471 0.000879739 0)
(-0.057952 0.000794466 0)
(-0.0598742 0.000683775 0)
(-0.0614432 0.000546041 0)
(-0.0625937 0.000380283 0)
(-0.0632419 0.000190308 0)
(-0.0633461 -2.34987e-05 0)
(-0.0628335 -0.000260649 0)
(-0.061663 -0.000512874 0)
(-0.0598058 -0.000773996 0)
(-0.0572538 -0.00103549 0)
(-0.0540231 -0.00128727 0)
(-0.0501571 -0.00151819 0)
(-0.0457287 -0.00171656 0)
(-0.0408399 -0.00187101 0)
(-0.0356203 -0.00197134 0)
(-0.0302222 -0.00200958 0)
(-0.0248145 -0.0019808 0)
(-0.019574 -0.00188388 0)
(-0.014675 -0.00172184 0)
(-0.0102789 -0.00150182 0)
(-0.00652412 -0.00123465 0)
(-0.00351676 -0.000934232 0)
(-0.00132251 -0.000617313 0)
(4.16431e-05 -0.000304652 0)
(0.000619655 -2.51689e-05 0)
(0.000562554 0.000168548 0)
(0.000148236 0.00017943 0)
(2.34626e-05 -6.3682e-05 0)
(0.000139815 -9.84714e-05 0)
(0.00024269 -7.2363e-05 0)
(0.000273307 -1.32878e-05 0)
(0.000199351 5.85938e-05 0)
(1.22581e-05 0.000131717 0)
(-0.000285022 0.00019982 0)
(-0.000682964 0.000259986 0)
(-0.00116916 0.000311369 0)
(-0.00173081 0.000354395 0)
(-0.00235621 0.000390229 0)
(-0.00303566 0.00042042 0)
(-0.0037619 0.000446652 0)
(-0.00453018 0.000470593 0)
(-0.00533826 0.000493796 0)
(-0.00618613 0.000517647 0)
(-0.00707584 0.00054335 0)
(-0.00801115 0.000571927 0)
(-0.00899733 0.000604235 0)
(-0.0100409 0.000640991 0)
(-0.0111494 0.000682793 0)
(-0.0123313 0.000730144 0)
(-0.0135957 0.000783472 0)
(-0.0149524 0.000843143 0)
(-0.0164117 0.000909463 0)
(-0.0179843 0.000982683 0)
(-0.019681 0.00106299 0)
(-0.021513 0.00115048 0)
(-0.0234915 0.00124516 0)
(-0.0256271 0.00134689 0)
(-0.0279302 0.00145537 0)
(-0.0304104 0.0015701 0)
(-0.0330759 0.0016903 0)
(-0.0359335 0.00181491 0)
(-0.0389875 0.0019425 0)
(-0.0422395 0.00207123 0)
(-0.0456876 0.00219882 0)
(-0.0493258 0.00232244 0)
(-0.0531426 0.00243874 0)
(-0.0571209 0.00254378 0)
(-0.0612368 0.00263304 0)
(-0.0654586 0.00270141 0)
(-0.0697463 0.00274324 0)
(-0.0740509 0.00275243 0)
(-0.078314 0.00272256 0)
(-0.0824674 0.00264703 0)
(-0.0864333 0.00251935 0)
(-0.0901253 0.00233341 0)
(-0.0934488 0.00208388 0)
(-0.0963034 0.00176659 0)
(-0.0985834 0.00137866 0)
(-0.100191 0.000916785 0)
(-0.101003 0.000395747 0)
(-0.100959 -0.000191784 0)
(-0.0999552 -0.000831208 0)
(-0.0979374 -0.00150819 0)
(-0.0948686 -0.00220419 0)
(-0.0907435 -0.00289674 0)
(-0.0855932 -0.00355974 0)
(-0.0794886 -0.00416455 0)
(-0.0725433 -0.0046815 0)
(-0.0649131 -0.00508183 0)
(-0.0567932 -0.00533993 0)
(-0.0484116 -0.00543576 0)
(-0.04002 -0.00535701 0)
(-0.0318813 -0.00510086 0)
(-0.0242553 -0.004675 0)
(-0.0173834 -0.00409767 0)
(-0.011473 -0.00339692 0)
(-0.00668375 -0.00260941 0)
(-0.00311395 -0.00178009 0)
(-0.000787127 -0.000964777 0)
(0.00036559 -0.00023968 0)
(0.000558743 0.000273378 0)
(0.000163501 0.000356898 0)
(2.58757e-05 -0.000104601 0)
(0.000145453 -0.000155669 0)
(0.000231223 -0.000101495 0)
(0.00021812 9.68385e-06 0)
(6.8496e-05 0.000144461 0)
(-0.000228486 0.000282396 0)
(-0.000669739 0.000411919 0)
(-0.0012439 0.000527367 0)
(-0.00193576 0.000626899 0)
(-0.00272935 0.000711092 0)
(-0.00360997 0.000781969 0)
(-0.00456529 0.000842323 0)
(-0.00558603 0.000895262 0)
(-0.00666614 0.000943895 0)
(-0.00780275 0.000991147 0)
(-0.00899595 0.00103965 0)
(-0.0102485 0.00109172 0)
(-0.0115654 0.00114932 0)
(-0.0129538 0.0012141 0)
(-0.0144224 0.00128747 0)
(-0.0159812 0.00137059 0)
(-0.0176416 0.00146442 0)
(-0.0194159 0.00156979 0)
(-0.021317 0.00168739 0)
(-0.0233587 0.00181778 0)
(-0.025555 0.00196139 0)
(-0.0279205 0.00211851 0)
(-0.0304697 0.00228926 0)
(-0.0332168 0.00247353 0)
(-0.0361756 0.00267093 0)
(-0.0393592 0.00288073 0)
(-0.0427793 0.00310179 0)
(-0.0464454 0.00333244 0)
(-0.050365 0.00357041 0)
(-0.054542 0.00381275 0)
(-0.0589764 0.0040557 0)
(-0.063663 0.00429461 0)
(-0.0685909 0.00452389 0)
(-0.073742 0.00473689 0)
(-0.07909 0.00492592 0)
(-0.0845998 0.00508222 0)
(-0.0902259 0.00519599 0)
(-0.0959119 0.00525653 0)
(-0.10159 0.00525242 0)
(-0.10718 0.00517175 0)
(-0.11259 0.00500248 0)
(-0.117716 0.00473296 0)
(-0.122445 0.00435246 0)
(-0.126654 0.00385186 0)
(-0.130213 0.00322446 0)
(-0.132989 0.0024666 0)
(-0.134856 0.00157667 0)
(-0.135679 0.000568974 0)
(-0.135356 -0.000548704 0)
(-0.133784 -0.00175998 0)
(-0.130897 -0.00303507 0)
(-0.126656 -0.00433933 0)
(-0.121063 -0.00563113 0)
(-0.114164 -0.00686269 0)
(-0.106056 -0.00798198 0)
(-0.0968855 -0.00893543 0)
(-0.0868534 -0.00967129 0)
(-0.0762064 -0.0101436 0)
(-0.065232 -0.0103164 0)
(-0.0542467 -0.0101676 0)
(-0.0435809 -0.00969181 0)
(-0.033562 -0.00890293 0)
(-0.0244952 -0.00783395 0)
(-0.0166439 -0.00653618 0)
(-0.0102121 -0.00507759 0)
(-0.0053258 -0.00354231 0)
(-0.00201568 -0.00203476 0)
(-0.000196134 -0.00069389 0)
(0.000386157 0.0002741 0)
(0.000151085 0.000519121 0)
(2.61061e-05 -0.00014593 0)
(0.000131276 -0.000203884 0)
(0.000177014 -0.000109251 0)
(9.60515e-05 6.85651e-05 0)
(-0.000151367 0.000282068 0)
(-0.000576942 0.000500998 0)
(-0.00117709 0.000707661 0)
(-0.00193888 0.000893086 0)
(-0.00284489 0.00105415 0)
(-0.00387669 0.00119151 0)
(-0.00501717 0.00130818 0)
(-0.00625194 0.0014084 0)
(-0.00757015 0.001497 0)
(-0.00896472 0.00157886 0)
(-0.0104324 0.00165859 0)
(-0.0119733 0.0017404 0)
(-0.013591 0.00182796 0)
(-0.0152918 0.00192445 0)
(-0.0170844 0.00203256 0)
(-0.0189794 0.00215453 0)
(-0.0209894 0.00229225 0)
(-0.0231282 0.00244729 0)
(-0.0254109 0.00262095 0)
(-0.0278535 0.00281432 0)
(-0.0304726 0.00302824 0)
(-0.0332855 0.00326335 0)
(-0.0363096 0.00352 0)
(-0.0395621 0.00379825 0)
(-0.0430601 0.00409776 0)
(-0.0468198 0.00441772 0)
(-0.0508558 0.00475674 0)
(-0.0551812 0.0051127 0)
(-0.0598062 0.00548264 0)
(-0.0647376 0.00586262 0)
(-0.069978 0.00624755 0)
(-0.0755246 0.00663105 0)
(-0.081368 0.00700535 0)
(-0.0874912 0.00736114 0)
(-0.0938684 0.0076875 0)
(-0.100464 0.00797189 0)
(-0.10723 0.00820017 0)
(-0.114108 0.00835668 0)
(-0.121026 0.0084245 0)
(-0.127896 0.00838572 0)
(-0.13462 0.00822193 0)
(-0.141084 0.00791477 0)
(-0.147161 0.00744675 0)
(-0.152716 0.00680209 0)
(-0.157601 0.00596785 0)
(-0.161664 0.00493507 0)
(-0.164753 0.00369997 0)
(-0.166719 0.0022641 0)
(-0.167418 0.00064572 0)
(-0.166726 -0.00113809 0)
(-0.164539 -0.00305863 0)
(-0.160786 -0.00507051 0)
(-0.155431 -0.00711952 0)
(-0.148484 -0.00914112 0)
(-0.140008 -0.011062 0)
(-0.130118 -0.0128026 0)
(-0.118992 -0.0142818 0)
(-0.106864 -0.0154209 0)
(-0.0940194 -0.0161504 0)
(-0.0807927 -0.0164157 0)
(-0.0675497 -0.0161828 0)
(-0.0546736 -0.0154434 0)
(-0.042545 -0.0142179 0)
(-0.0315203 -0.0125565 0)
(-0.0219094 -0.010538 0)
(-0.0139538 -0.00826784 0)
(-0.00780485 -0.0058775 0)
(-0.00350289 -0.00352961 0)
(-0.000954843 -0.00143537 0)
(0.000109481 0.000107747 0)
(0.000125568 0.000621258 0)
(2.44745e-05 -0.00018145 0)
(0.00010084 -0.00023353 0)
(8.72416e-05 -8.46033e-05 0)
(-8.25468e-05 0.000174281 0)
(-0.000447731 0.000481145 0)
(-0.00101953 0.000795536 0)
(-0.00179329 0.00109324 0)
(-0.0027545 0.00136168 0)
(-0.00388382 0.00159626 0)
(-0.0051608 0.00179772 0)
(-0.00656642 0.00197011 0)
(-0.00808469 0.00211935 0)
(-0.00970349 0.00225219 0)
(-0.011415 0.00237555 0)
(-0.0132157 0.00249601 0)
(-0.0151061 0.00261959 0)
(-0.0170904 0.00275159 0)
(-0.019176 0.00289662 0)
(-0.021373 0.00305856 0)
(-0.0236943 0.00324069 0)
(-0.0261542 0.00344574 0)
(-0.028769 0.00367599 0)
(-0.0315564 0.0039333 0)
(-0.0345348 0.00421919 0)
(-0.0377236 0.00453481 0)
(-0.0411426 0.00488095 0)
(-0.0448117 0.005258 0)
(-0.0487506 0.00566583 0)
(-0.0529782 0.00610374 0)
(-0.0575123 0.00657028 0)
(-0.0623688 0.00706308 0)
(-0.067561 0.00757874 0)
(-0.0730989 0.00811256 0)
(-0.078988 0.00865841 0)
(-0.0852284 0.00920847 0)
(-0.0918134 0.00975305 0)
(-0.0987286 0.0102805 0)
(-0.10595 0.0107769 0)
(-0.113444 0.0112261 0)
(-0.121164 0.0116099 0)
(-0.129051 0.0119077 0)
(-0.137032 0.0120971 0)
(-0.145019 0.0121541 0)
(-0.152909 0.0120533 0)
(-0.160584 0.0117693 0)
(-0.167913 0.011277 0)
(-0.17475 0.0105527 0)
(-0.180939 0.00957582 0)
(-0.186316 0.00832981 0)
(-0.190712 0.00680422 0)
(-0.193959 0.00499626 0)
(-0.195897 0.00291202 0)
(-0.196371 0.000574741 0)
(-0.195251 -0.00198701 0)
(-0.192431 -0.00472949 0)
(-0.18784 -0.00758989 0)
(-0.181447 -0.010492 0)
(-0.173272 -0.013346 0)
(-0.163389 -0.0160502 0)
(-0.151933 -0.0184955 0)
(-0.1391 -0.02057 0)
(-0.125151 -0.0221661 0)
(-0.110401 -0.0231882 0)
(-0.0952176 -0.0235608 0)
(-0.0800051 -0.0232366 0)
(-0.065187 -0.0222031 0)
(-0.0511863 -0.0204875 0)
(-0.0384016 -0.0181583 0)
(-0.0271821 -0.0153244 0)
(-0.0178026 -0.0121331 0)
(-0.0104391 -0.00876927 0)
(-0.00514563 -0.00546026 0)
(-0.00183086 -0.00249499 0)
(-0.000225972 -0.000263445 0)
(9.43546e-05 0.00064006 0)
(2.15124e-05 -0.000207389 0)
(5.75137e-05 -0.00023684 0)
(-3.18855e-05 -1.81721e-05 0)
(-0.000308912 0.000336467 0)
(-0.000809954 0.000750728 0)
(-0.00154451 0.00117395 0)
(-0.00250615 0.00157532 0)
(-0.00367859 0.00193853 0)
(-0.00504067 0.00225748 0)
(-0.0065702 0.002533 0)
(-0.00824659 0.00277029 0)
(-0.0100525 0.0029771 0)
(-0.011975 0.00316233 0)
(-0.0140058 0.00333513 0)
(-0.016141 0.0035043 0)
(-0.0183818 0.00367788 0)
(-0.0207328 0.00386303 0)
(-0.0232027 0.00406593 0)
(-0.0258032 0.00429186 0)
(-0.0285484 0.00454526 0)
(-0.031455 0.00482981 0)
(-0.0345412 0.00514858 0)
(-0.0378269 0.00550404 0)
(-0.0413328 0.00589816 0)
(-0.0450806 0.0063324 0)
(-0.0490921 0.00680766 0)
(-0.0533894 0.00732426 0)
(-0.0579939 0.00788177 0)
(-0.0629258 0.00847891 0)
(-0.0682041 0.00911334 0)
(-0.0738449 0.00978145 0)
(-0.0798613 0.0104781 0)
(-0.0862619 0.0111966 0)
(-0.0930503 0.0119278 0)
(-0.100223 0.0126607 0)
(-0.107769 0.0133817 0)
(-0.115668 0.0140743 0)
(-0.123889 0.0147195 0)
(-0.132388 0.015295 0)
(-0.141109 0.015776 0)
(-0.149982 0.0161347 0)
(-0.158919 0.0163413 0)
(-0.167819 0.0163638 0)
(-0.176564 0.0161695 0)
(-0.18502 0.0157251 0)
(-0.19304 0.0149987 0)
(-0.200463 0.0139609 0)
(-0.207118 0.0125864 0)
(-0.212828 0.0108559 0)
(-0.217413 0.00875833 0)
(-0.220695 0.00629308 0)
(-0.222506 0.00347179 0)
(-0.22269 0.000324448 0)
(-0.221112 -0.00310741 0)
(-0.217668 -0.00676359 0)
(-0.21229 -0.0105622 0)
(-0.204953 -0.0144035 0)
(-0.195684 -0.0181709 0)
(-0.184567 -0.0217331 0)
(-0.171749 -0.0249494 0)
(-0.157441 -0.027676 0)
(-0.141919 -0.0297745 0)
(-0.125521 -0.0311212 0)
(-0.108638 -0.0316181 0)
(-0.0917016 -0.0312026 0)
(-0.0751672 -0.0298569 0)
(-0.059492 -0.0276141 0)
(-0.0451102 -0.0245613 0)
(-0.0324057 -0.0208392 0)
(-0.0216848 -0.01664 0)
(-0.0131488 -0.0122058 0)
(-0.00686999 -0.00783296 0)
(-0.00276775 -0.00389086 0)
(-0.000589204 -0.000859876 0)
(6.17329e-05 0.000565256 0)
(1.7577e-05 -0.000220696 0)
(3.88367e-06 -0.000207385 0)
(-0.000175319 9.80985e-05 0)
(-0.000575754 0.000563691 0)
(-0.00122903 0.00109911 0)
(-0.00214171 0.00164377 0)
(-0.00330489 0.00216039 0)
(-0.00470013 0.00262903 0)
(-0.00630443 0.00304215 0)
(-0.00809397 0.00340075 0)
(-0.0100468 0.00371133 0)
(-0.0121446 0.0039836 0)
(-0.0143737 0.00422881 0)
(-0.0167254 0.00445855 0)
(-0.0191961 0.00468401 0)
(-0.0217871 0.00491546 0)
(-0.024504 0.00516206 0)
(-0.0273564 0.00543177 0)
(-0.0303574 0.00573137 0)
(-0.0335227 0.00606657 0)
(-0.0368705 0.00644211 0)
(-0.0404211 0.00686189 0)
(-0.0441962 0.00732904 0)
(-0.0482184 0.00784598 0)
(-0.0525113 0.00841442 0)
(-0.0570986 0.00903531 0)
(-0.0620037 0.00970879 0)
(-0.0672493 0.010434 0)
(-0.0728566 0.0112088 0)
(-0.0788446 0.0120297 0)
(-0.0852294 0.0128915 0)
(-0.0920228 0.0137871 0)
(-0.0992318 0.0147069 0)
(-0.106857 0.0156388 0)
(-0.114891 0.0165677 0)
(-0.123317 0.0174754 0)
(-0.132108 0.0183401 0)
(-0.141226 0.0191366 0)
(-0.150619 0.0198362 0)
(-0.160219 0.0204066 0)
(-0.169944 0.0208124 0)
(-0.179695 0.0210156 0)
(-0.189359 0.0209763 0)
(-0.198803 0.0206537 0)
(-0.207881 0.0200071 0)
(-0.216432 0.0189981 0)
(-0.224286 0.0175916 0)
(-0.23126 0.0157585 0)
(-0.237168 0.0134776 0)
(-0.241825 0.0107384 0)
(-0.245048 0.00754336 0)
(-0.246667 0.00391065 0)
(-0.246523 -0.000121341 0)
(-0.244486 -0.00449732 0)
(-0.240453 -0.00913981 0)
(-0.234359 -0.0139468 0)
(-0.226186 -0.0187946 0)
(-0.215965 -0.0235389 0)
(-0.203787 -0.0280182 0)
(-0.189803 -0.0320597 0)
(-0.174234 -0.0354866 0)
(-0.157366 -0.0381281 0)
(-0.139548 -0.0398312 0)
(-0.121187 -0.0404732 0)
(-0.102735 -0.0399747 0)
(-0.0846731 -0.0383104 0)
(-0.0674858 -0.0355179 0)
(-0.051639 -0.0317026 0)
(-0.037549 -0.0270375 0)
(-0.025553 -0.0217613 0)
(-0.01588 -0.0161757 0)
(-0.00862534 -0.0106491 0)
(-0.00372727 -0.00563197 0)
(-0.000959955 -0.00169101 0)
(3.02749e-05 0.000393475 0)
(1.29898e-05 -0.000219037 0)
(-5.78843e-05 -0.000139797 0)
(-0.000338887 0.000271249 0)
(-0.000877008 0.000863628 0)
(-0.00169734 0.00153388 0)
(-0.00280239 0.00221201 0)
(-0.00418 0.00285463 0)
(-0.00580918 0.00343838 0)
(-0.0076649 0.00395447 0)
(-0.00972176 0.00440425 0)
(-0.0119566 0.00479567 0)
(-0.0143502 0.00514058 0)
(-0.0168884 0.00545273 0)
(-0.0195622 0.00574634 0)
(-0.0223684 0.00603514 0)
(-0.0253087 0.00633183 0)
(-0.0283893 0.0066477 0)
(-0.031621 0.0069926 0)
(-0.0350179 0.00737495 0)
(-0.0385973 0.0078018 0)
(-0.0423789 0.00827902 0)
(-0.0463844 0.00881137 0)
(-0.0506373 0.00940265 0)
(-0.0551619 0.0100557 0)
(-0.0599831 0.0107724 0)
(-0.0651259 0.0115538 0)
(-0.0706149 0.0123995 0)
(-0.0764734 0.0133081 0)
(-0.082723 0.0142765 0)
(-0.0893823 0.0152996 0)
(-0.0964665 0.0163705 0)
(-0.103986 0.0174792 0)
(-0.111945 0.0186134 0)
(-0.12034 0.019757 0)
(-0.129159 0.0208904 0)
(-0.138381 0.0219903 0)
(-0.147971 0.0230289 0)
(-0.157883 0.0239745 0)
(-0.168055 0.0247909 0)
(-0.178412 0.0254382 0)
(-0.188859 0.0258729 0)
(-0.199288 0.0260486 0)
(-0.209572 0.0259173 0)
(-0.219569 0.0254302 0)
(-0.229123 0.0245397 0)
(-0.238063 0.023201 0)
(-0.246211 0.0213744 0)
(-0.253379 0.0190278 0)
(-0.259376 0.0161389 0)
(-0.264015 0.0126988 0)
(-0.267112 0.00871401 0)
(-0.268498 0.00421005 0)
(-0.268018 -0.000765161 0)
(-0.265544 -0.00614225 0)
(-0.260978 -0.0118263 0)
(-0.254258 -0.0176949 0)
(-0.245369 -0.0236003 0)
(-0.234343 -0.0293707 0)
(-0.221274 -0.0348146 0)
(-0.206314 -0.0397266 0)
(-0.189685 -0.0438964 0)
(-0.171675 -0.0471199 0)
(-0.152639 -0.0492132 0)
(-0.132993 -0.050027 0)
(-0.113204 -0.0494623 0)
(-0.0937707 -0.0474842 0)
(-0.0752038 -0.0441332 0)
(-0.0579978 -0.0395309 0)
(-0.0426006 -0.0338827 0)
(-0.0293813 -0.0274742 0)
(-0.0185998 -0.0206686 0)
(-0.0103797 -0.0139071 0)
(-0.00468523 -0.0077211 0)
(-0.00132601 -0.00275927 0)
(1.37972e-06 0.000125408 0)
(7.92869e-06 -0.000200498 0)
(-0.000126249 -2.95443e-05 0)
(-0.000519329 0.000507397 0)
(-0.00120773 0.00124313 0)
(-0.00220849 0.00206197 0)
(-0.003519 0.00288523 0)
(-0.00512309 0.00366388 0)
(-0.00699674 0.00437156 0)
(-0.00911267 0.00499851 0)
(-0.0114438 0.00554665 0)
(-0.0139658 0.0060256 0)
(-0.0166587 0.00644953 0)
(-0.0195079 0.00683487 0)
(-0.0225046 0.00719862 0)
(-0.0256454 0.00755722 0)
(-0.0289328 0.0079259 0)
(-0.0323737 0.00831824 0)
(-0.0359799 0.00874607 0)
(-0.0397665 0.00921951 0)
(-0.043752 0.00974705 0)
(-0.0479576 0.0103357 0)
(-0.0524064 0.0109911 0)
(-0.0571229 0.0117178 0)
(-0.0621329 0.0125188 0)
(-0.0674624 0.0133964 0)
(-0.0731373 0.0143512 0)
(-0.0791827 0.0153825 0)
(-0.0856223 0.016488 0)
(-0.0924772 0.0176632 0)
(-0.0997654 0.0189014 0)
(-0.1075 0.0201932 0)
(-0.11569 0.021526 0)
(-0.124336 0.0228836 0)
(-0.133431 0.0242458 0)
(-0.142957 0.0255881 0)
(-0.152887 0.0268812 0)
(-0.16318 0.028091 0)
(-0.173781 0.0291787 0)
(-0.184621 0.0301004 0)
(-0.195614 0.0308081 0)
(-0.206656 0.0312501 0)
(-0.21763 0.0313717 0)
(-0.2284 0.0311166 0)
(-0.238815 0.0304289 0)
(-0.248712 0.0292541 0)
(-0.257915 0.027542 0)
(-0.266239 0.0252491 0)
(-0.273497 0.0223411 0)
(-0.279496 0.0187958 0)
(-0.28405 0.0146066 0)
(-0.28698 0.00978503 0)
(-0.288118 0.00436431 0)
(-0.287317 -0.00159747 0)
(-0.28445 -0.008017 0)
(-0.279425 -0.0147823 0)
(-0.272182 -0.0217509 0)
(-0.262704 -0.0287517 0)
(-0.251026 -0.0355863 0)
(-0.237235 -0.0420334 0)
(-0.22148 -0.0478554 0)
(-0.203977 -0.0528082 0)
(-0.185012 -0.0566536 0)
(-0.164939 -0.0591747 0)
(-0.144177 -0.0601935 0)
(-0.123202 -0.0595888 0)
(-0.102529 -0.0573131 0)
(-0.0826899 -0.0534066 0)
(-0.0642082 -0.0480057 0)
(-0.0475638 -0.0413463 0)
(-0.0331602 -0.0337613 0)
(-0.0212917 -0.0256756 0)
(-0.0121155 -0.0176037 0)
(-0.0056282 -0.0101572 0)
(-0.00168101 -0.0040628 0)
(-2.44032e-05 -0.000235913 0)
(2.54858e-06 -0.000163616 0)
(-0.000199955 0.000127182 0)
(-0.000713993 0.000811897 0)
(-0.00156383 0.00170832 0)
(-0.00275708 0.0026897 0)
(-0.00428504 0.00366944 0)
(-0.00612676 0.00459359 0)
(-0.00825471 0.00543324 0)
(-0.010639 0.00617806 0)
(-0.0132509 0.00683087 0)
(-0.0160647 0.00740317 0)
(-0.0190599 0.00791168 0)
(-0.0222215 0.00837568 0)
(-0.0255406 0.00881511 0)
(-0.0290144 0.00924926 0)
(-0.0326456 0.00969599 0)
(-0.0364421 0.0101713 0)
(-0.0404163 0.010689 0)
(-0.0445846 0.011261 0)
(-0.0489665 0.0118974 0)
(-0.0535841 0.0126062 0)
(-0.0584617 0.013394 0)
(-0.0636251 0.0142659 0)
(-0.0691007 0.0152254 0)
(-0.0749154 0.0162746 0)
(-0.0810956 0.0174139 0)
(-0.0876666 0.018642 0)
(-0.0946516 0.0199553 0)
(-0.102071 0.021348 0)
(-0.109942 0.0228112 0)
(-0.118275 0.0243328 0)
(-0.127077 0.0258969 0)
(-0.136343 0.0274834 0)
(-0.146063 0.0290672 0)
(-0.156215 0.0306184 0)
(-0.166764 0.0321016 0)
(-0.177662 0.0334759 0)
(-0.188848 0.0346948 0)
(-0.200243 0.0357067 0)
(-0.211754 0.0364554 0)
(-0.223269 0.0368807 0)
(-0.234663 0.03692 0)
(-0.245793 0.0365094 0)
(-0.256502 0.0355859 0)
(-0.266623 0.0340891 0)
(-0.275977 0.0319645 0)
(-0.284379 0.0291653 0)
(-0.291642 0.0256561 0)
(-0.297578 0.0214159 0)
(-0.302005 0.0164408 0)
(-0.304747 0.0107482 0)
(-0.305644 0.00437893 0)
(-0.304554 -0.00259857 0)
(-0.301357 -0.0100877 0)
(-0.29596 -0.0179601 0)
(-0.288306 -0.0260546 0)
(-0.278375 -0.0341778 0)
(-0.266196 -0.0421057 0)
(-0.251848 -0.0495884 0)
(-0.235471 -0.0563566 0)
(-0.21727 -0.062132 0)
(-0.197523 -0.0666414 0)
(-0.176575 -0.0696334 0)
(-0.154847 -0.0708983 0)
(-0.132817 -0.0702894 0)
(-0.111014 -0.0677431 0)
(-0.0899912 -0.0632957 0)
(-0.0702994 -0.0570955 0)
(-0.0524528 -0.0494073 0)
(-0.0368925 -0.0406099 0)
(-0.0239516 -0.03119 0)
(-0.0138262 -0.0217357 0)
(-0.00655075 -0.0129376 0)
(-0.00202258 -0.00559746 0)
(-4.70846e-05 -0.000686452 0)
(-3.07811e-06 -0.000107144 0)
(-0.000278141 0.000333649 0)
(-0.000920844 0.00118943 0)
(-0.00194199 0.00226468 0)
(-0.00333858 0.00342276 0)
(-0.00509489 0.00457018 0)
(-0.00718446 0.00564879 0)
(-0.00957572 0.00662776 0)
(-0.012236 0.00749665 0)
(-0.0151343 0.00825954 0)
(-0.018244 0.00893014 0)
(-0.0215437 0.00952794 0)
(-0.0250182 0.0100752 0)
(-0.0286587 0.0105951 0)
(-0.0324626 0.0111097 0)
(-0.0364332 0.0116398 0)
(-0.0405791 0.0122036 0)
(-0.0449135 0.0128173 0)
(-0.0494536 0.0134946 0)
(-0.0542198 0.0142468 0)
(-0.0592353 0.0150833 0)
(-0.0645252 0.0160116 0)
(-0.0701159 0.0170372 0)
(-0.0760346 0.018164 0)
(-0.0823084 0.0193938 0)
(-0.0889639 0.0207267 0)
(-0.0960261 0.0221605 0)
(-0.103518 0.0236902 0)
(-0.111458 0.0253083 0)
(-0.119861 0.0270034 0)
(-0.128737 0.0287604 0)
(-0.138087 0.0305597 0)
(-0.147904 0.0323768 0)
(-0.158174 0.0341816 0)
(-0.168867 0.0359381 0)
(-0.179943 0.0376046 0)
(-0.191349 0.0391328 0)
(-0.203015 0.0404688 0)
(-0.214855 0.0415529 0)
(-0.22677 0.0423208 0)
(-0.238641 0.0427042 0)
(-0.250336 0.0426328 0)
(-0.261709 0.0420357 0)
(-0.2726 0.0408435 0)
(-0.282839 0.0389911 0)
(-0.29225 0.03642 0)
(-0.300648 0.0330817 0)
(-0.307851 0.0289405 0)
(-0.313678 0.0239769 0)
(-0.317951 0.0181908 0)
(-0.320505 0.0116051 0)
(-0.321185 0.00426858 0)
(-0.319856 -0.00374069 0)
(-0.316401 -0.0123137 0)
(-0.31073 -0.0213073 0)
(-0.302783 -0.0305429 0)
(-0.292536 -0.0398064 0)
(-0.280007 -0.0488501 0)
(-0.265263 -0.0573964 0)
(-0.248431 -0.0651451 0)
(-0.229699 -0.0717839 0)
(-0.209328 -0.0770032 0)
(-0.187657 -0.0805152 0)
(-0.165096 -0.0820757 0)
(-0.142127 -0.0815083 0)
(-0.119289 -0.078729 0)
(-0.0971546 -0.0737663 0)
(-0.0763044 -0.0667765 0)
(-0.0572886 -0.0580504 0)
(-0.0405897 -0.0480116 0)
(-0.0265845 -0.0372078 0)
(-0.015513 -0.0263006 0)
(-0.00745312 -0.0160591 0)
(-0.00235115 -0.00735849 0)
(-6.70363e-05 -0.0012221 0)
(-8.88512e-06 -3.00858e-05 0)
(-0.000360101 0.000592661 0)
(-0.00113822 0.00164412 0)
(-0.00233946 0.00291709 0)
(-0.00394916 0.00426633 0)
(-0.00594368 0.00559249 0)
(-0.00829038 0.00683408 0)
(-0.0109531 0.00795904 0)
(-0.013896 0.00895741 0)
(-0.0170859 0.00983495 0)
(-0.0204948 0.0106079 0)
(-0.0241005 0.0112988 0)
(-0.0278876 0.0119332 0)
(-0.0318472 0.0125373 0)
(-0.0359773 0.0131365 0)
(-0.0402815 0.0137542 0)
(-0.0447692 0.0144114 0)
(-0.0494542 0.0151262 0)
(-0.0543545 0.0159142 0)
(-0.0594913 0.0167883 0)
(-0.0648883 0.0177589 0)
(-0.0705713 0.0188343 0)
(-0.0765673 0.0200206 0)
(-0.0829036 0.0213216 0)
(-0.0896076 0.0227393 0)
(-0.0967053 0.0242727 0)
(-0.104221 0.0259188 0)
(-0.112177 0.027671 0)
(-0.12059 0.0295196 0)
(-0.129472 0.0314506 0)
(-0.138831 0.0334455 0)
(-0.148664 0.0354807 0)
(-0.158961 0.0375267 0)
(-0.1697 0.0395482 0)
(-0.180849 0.041503 0)
(-0.192362 0.0433425 0)
(-0.204177 0.0450113 0)
(-0.216219 0.0464475 0)
(-0.228398 0.0475837 0)
(-0.240606 0.0483476 0)
(-0.252721 0.0486635 0)
(-0.264608 0.0484536 0)
(-0.276118 0.0476409 0)
(-0.28709 0.0461506 0)
(-0.297355 0.0439134 0)
(-0.306741 0.0408684 0)
(-0.31507 0.0369659 0)
(-0.322164 0.0321707 0)
(-0.327851 0.0264656 0)
(-0.331963 0.0198545 0)
(-0.334342 0.0123656 0)
(-0.334843 0.00405501 0)
(-0.333334 -0.00499018 0)
(-0.329704 -0.01465 0)
(-0.323862 -0.0247685 0)
(-0.315743 -0.0351512 0)
(-0.305316 -0.0455657 0)
(-0.292585 -0.0557421 0)
(-0.277602 -0.0653769 0)
(-0.260473 -0.0741399 0)
(-0.241366 -0.0816846 0)
(-0.220525 -0.0876644 0)
(-0.198268 -0.0917523 0)
(-0.174999 -0.0936662 0)
(-0.151196 -0.0931961 0)
(-0.127407 -0.0902323 0)
(-0.104224 -0.0847903 0)
(-0.0822568 -0.0770302 0)
(-0.0620958 -0.0672653 0)
(-0.0442688 -0.0559617 0)
(-0.0292012 -0.0437275 0)
(-0.0171829 -0.0312975 0)
(-0.00833942 -0.0195195 0)
(-0.00266898 -0.0093417 0)
(-8.47895e-05 -0.00183922 0)
(-1.48503e-05 6.84499e-05 0)
(-0.000445364 0.000906683 0)
(-0.00136487 0.00217963 0)
(-0.00275403 0.00366993 0)
(-0.00458558 0.00522505 0)
(-0.0068272 0.0067409 0)
(-0.00943936 0.00815358 0)
(-0.0123809 0.00943061 0)
(-0.0156122 0.0105631 0)
(-0.019098 0.011559 0)
(-0.0228085 0.0124375 0)
(-0.0267208 0.0132243 0)
(-0.0308191 0.0139486 0)
(-0.0350948 0.01464 0)
(-0.039546 0.0153269 0)
(-0.0441769 0.0160357 0)
(-0.0489972 0.01679 0)
(-0.0540217 0.01761 0)
(-0.0592687 0.0185131 0)
(-0.06476 0.0195137 0)
(-0.07052 0.0206234 0)
(-0.0765748 0.0218511 0)
(-0.0829515 0.0232034 0)
(-0.0896774 0.0246841 0)
(-0.0967795 0.0262946 0)
(-0.104283 0.0280335 0)
(-0.112213 0.0298962 0)
(-0.120587 0.0318744 0)
(-0.129422 0.033956 0)
(-0.138727 0.0361239 0)
(-0.148507 0.0383561 0)
(-0.158755 0.0406245 0)
(-0.169456 0.0428948 0)
(-0.180586 0.0451256 0)
(-0.192104 0.0472685 0)
(-0.20396 0.049268 0)
(-0.216088 0.0510612 0)
(-0.228406 0.0525789 0)
(-0.240819 0.0537458 0)
(-0.253215 0.0544821 0)
(-0.265471 0.054705 0)
(-0.277448 0.0543304 0)
(-0.288996 0.0532757 0)
(-0.29996 0.0514618 0)
(-0.310172 0.0488164 0)
(-0.319467 0.0452767 0)
(-0.327673 0.0407928 0)
(-0.334624 0.0353309 0)
(-0.340155 0.0288762 0)
(-0.34411 0.0214365 0)
(-0.34634 0.0130453 0)
(-0.346706 0.00376499 0)
(-0.345085 -0.00630958 0)
(-0.341366 -0.0170493 0)
(-0.335457 -0.0282871 0)
(-0.327288 -0.0398153 0)
(-0.316814 -0.0513851 0)
(-0.304025 -0.0627069 0)
(-0.288953 -0.0734529 0)
(-0.27168 -0.0832637 0)
(-0.25235 -0.0917592 0)
(-0.231181 -0.0985542 0)
(-0.208473 -0.103281 0)
(-0.184612 -0.105615 0)
(-0.160075 -0.105308 0)
(-0.135412 -0.102218 0)
(-0.111236 -0.0963439 0)
(-0.088188 -0.0878422 0)
(-0.0668998 -0.0770453 0)
(-0.0479493 -0.0644588 0)
(-0.0318164 -0.05075 0)
(-0.0188461 -0.0367272 0)
(-0.00921619 -0.0233178 0)
(-0.0029794 -0.0115441 0)
(-0.000100964 -0.00253508 0)
(-2.09484e-05 0.000189211 0)
(-0.000533534 0.00127788 0)
(-0.00159973 0.0027992 0)
(-0.00318382 0.00452712 0)
(-0.00524508 0.0063031 0)
(-0.00774175 0.00801948 0)
(-0.0106268 0.00961098 0)
(-0.0138535 0.0110455 0)
(-0.0173783 0.012316 0)
(-0.0211633 0.0134331 0)
(-0.0251769 0.0144193 0)
(-0.0293955 0.0153041 0)
(-0.0338029 0.0161202 0)
(-0.0383903 0.0169007 0)
(-0.0431563 0.0176775 0)
(-0.0481054 0.0184799 0)
(-0.0532479 0.0193338 0)
(-0.0585989 0.0202619 0)
(-0.0641773 0.0212834 0)
(-0.0700054 0.0224139 0)
(-0.0761078 0.0236663 0)
(-0.0825106 0.02505 0)
(-0.0892409 0.0265718 0)
(-0.0963257 0.0282357 0)
(-0.103792 0.0300423 0)
(-0.111663 0.0319892 0)
(-0.119962 0.0340704 0)
(-0.128707 0.0362756 0)
(-0.13791 0.0385899 0)
(-0.14758 0.0409931 0)
(-0.157716 0.0434591 0)
(-0.168309 0.0459552 0)
(-0.179339 0.0484418 0)
(-0.190776 0.0508717 0)
(-0.202577 0.05319 0)
(-0.214686 0.055334 0)
(-0.22703 0.0572338 0)
(-0.239526 0.0588126 0)
(-0.252074 0.059988 0)
(-0.26456 0.0606732 0)
(-0.276858 0.060779 0)
(-0.288831 0.0602158 0)
(-0.300332 0.0588963 0)
(-0.311208 0.056738 0)
(-0.3213 0.0536665 0)
(-0.330448 0.0496184 0)
(-0.338493 0.044544 0)
(-0.345276 0.0384114 0)
(-0.350647 0.0312084 0)
(-0.354457 0.0229467 0)
(-0.35657 0.0136641 0)
(-0.356855 0.00342825 0)
(-0.355191 -0.00765969 0)
(-0.35147 -0.0194634 0)
(-0.345598 -0.0318071 0)
(-0.337494 -0.0444723 0)
(-0.327102 -0.0571965 0)
(-0.314394 -0.0696724 0)
(-0.299376 -0.08155 0)
(-0.282105 -0.0924423 0)
(-0.262696 -0.101935 0)
(-0.241339 -0.109605 0)
(-0.218308 -0.115039 0)
(-0.193972 -0.117868 0)
(-0.168796 -0.1178 0)
(-0.143336 -0.114655 0)
(-0.118221 -0.108405 0)
(-0.0941252 -0.0992003 0)
(-0.0717244 -0.0873858 0)
(-0.0516515 -0.0735035 0)
(-0.0344462 -0.0582785 0)
(-0.0205145 -0.042593 0)
(-0.0100914 -0.0274552 0)
(-0.00328623 -0.0139644 0)
(-0.000116164 -0.00330805 0)
(-2.71774e-05 0.000332899 0)
(-0.000624352 0.00170821 0)
(-0.00184203 0.00350575 0)
(-0.00362734 0.00549216 0)
(-0.00592534 0.0075042 0)
(-0.00868412 0.00943185 0)
(-0.0118486 0.0112095 0)
(-0.0153659 0.0128064 0)
(-0.0191884 0.014218 0)
(-0.0232749 0.0154583 0)
(-0.0275923 0.0165536 0)
(-0.0321159 0.0175373 0)
(-0.0368289 0.018446 0)
(-0.0417227 0.0193167 0)