/*--------------------------------*- C++ -*----------------------------------*\
  =========                 |
  \\      /  F ield         | OpenFOAM: The Open Source CFD Toolbox
   \\    /   O peration     | Website:  https://openfoam.org
    \\  /    A nd           | Version:  12
     \\/     M anipulation  |
\*---------------------------------------------------------------------------*/
FoamFile
{
    format      ascii;
    class       volScalarField;
    location    "6.5";
    object      epsilon;
}
// * * * * * * * * * * * * * * * * * * * * * * * * * * * * * * * * * * * * * //

dimensions      [0 2 -3 0 0 0 0];

internalField   nonuniform List<scalar> 
5625
(
9.87198e-11
6.6727e-10
1.47998e-09
2.43653e-09
3.48548e-09
4.59142e-09
5.72688e-09
6.8697e-09
8.00199e-09
9.10965e-09
1.01821e-08
1.12123e-08
1.21962e-08
1.3133e-08
1.40244e-08
1.48745e-08
1.56891e-08
1.64756e-08
1.7242e-08
1.79972e-08
1.875e-08
1.9509e-08
2.02827e-08
2.10788e-08
2.19047e-08
2.27669e-08
2.36714e-08
2.46233e-08
2.56274e-08
2.66877e-08
2.78077e-08
2.89901e-08
3.02374e-08
3.15512e-08
3.29326e-08
3.43818e-08
3.58984e-08
3.74809e-08
3.91266e-08
4.08315e-08
4.25897e-08
4.43936e-08
4.62328e-08
4.80944e-08
4.99618e-08
5.18148e-08
5.36284e-08
5.53731e-08
5.7014e-08
5.85106e-08
5.98168e-08
6.08804e-08
6.16392e-08
6.20124e-08
6.20355e-08
6.15996e-08
6.0649e-08
5.91504e-08
5.70879e-08
5.44653e-08
5.13096e-08
4.76726e-08
4.36306e-08
3.92815e-08
3.47386e-08
3.01232e-08
2.55547e-08
2.11423e-08
1.69777e-08
1.31304e-08
9.64832e-09
6.56368e-09
3.90727e-09
1.74074e-09
2.56877e-10
1.86497e-10
3.62501e-10
7.24054e-10
1.16643e-09
1.65643e-09
2.1751e-09
2.7087e-09
3.24648e-09
3.77981e-09
4.30196e-09
4.80788e-09
5.29417e-09
5.75894e-09
6.20173e-09
6.62334e-09
7.02566e-09
7.41143e-09
7.78406e-09
8.1474e-09
8.50556e-09
8.86269e-09
9.22293e-09
9.59021e-09
9.96827e-09
1.03605e-08
1.07701e-08
1.11999e-08
1.16523e-08
1.21296e-08
1.26338e-08
1.31664e-08
1.37288e-08
1.43222e-08
1.49474e-08
1.56048e-08
1.62947e-08
1.70166e-08
1.77699e-08
1.85532e-08
1.93645e-08
2.0201e-08
2.10589e-08
2.1933e-08
2.2817e-08
2.37028e-08
2.45806e-08
2.54382e-08
2.62613e-08
2.70331e-08
2.77343e-08
2.83428e-08
2.88339e-08
2.91781e-08
2.934e-08
2.93334e-08
2.91093e-08
2.86427e-08
2.79188e-08
2.69312e-08
2.56827e-08
2.41868e-08
2.24685e-08
2.05636e-08
1.85178e-08
1.63835e-08
1.42166e-08
1.20722e-08
1.00007e-08
8.04444e-09
6.23639e-09
4.60006e-09
3.15333e-09
1.91775e-09
9.47354e-10
4.84994e-10
3.95925e-10
3.52964e-10
5.57578e-10
8.4377e-10
1.17171e-09
1.52347e-09
1.88782e-09
2.25654e-09
2.62331e-09
2.98322e-09
3.33267e-09
3.66919e-09
3.9914e-09
4.29892e-09
4.59226e-09
4.87267e-09
5.14201e-09
5.40262e-09
5.65715e-09
5.90842e-09
6.15933e-09
6.41274e-09
6.67142e-09
6.93797e-09
7.2148e-09
7.50414e-09
7.80799e-09
8.12813e-09
8.46616e-09
8.82346e-09
9.20121e-09
9.60042e-09
1.00219e-08
1.04661e-08
1.09334e-08
1.1424e-08
1.19374e-08
1.24731e-08
1.303e-08
1.36065e-08
1.42003e-08
1.48084e-08
1.5427e-08
1.60511e-08
1.66745e-08
1.72899e-08
1.78883e-08
1.84593e-08
1.89905e-08
1.94683e-08
1.9877e-08
2.01996e-08
2.0414e-08
2.05019e-08
2.04682e-08
2.02817e-08
1.99275e-08
1.9397e-08
1.86874e-08
1.78022e-08
1.6752e-08
1.55546e-08
1.42348e-08
1.28234e-08
1.13555e-08
9.86794e-09
8.39719e-09
6.97667e-09
5.63506e-09
4.39546e-09
3.27634e-09
2.29563e-09
1.48272e-09
9.21563e-10
1.02707e-09
6.47211e-10
4.22757e-10
5.26914e-10
7.26886e-10
9.71884e-10
1.24154e-09
1.52448e-09
1.8131e-09
2.10177e-09
2.38627e-09
2.66351e-09
2.9314e-09
3.18871e-09
3.43505e-09
3.67077e-09
3.89679e-09
4.11457e-09
4.32593e-09
4.53298e-09
4.73797e-09
4.94321e-09
5.15101e-09
5.36362e-09
5.58316e-09
5.81161e-09
6.05079e-09
6.30238e-09
6.56787e-09
6.84858e-09
7.14568e-09
7.46016e-09
7.79285e-09
8.14438e-09
8.5152e-09
8.90551e-09
9.31528e-09
9.74415e-09
1.01914e-08
1.0656e-08
1.11362e-08
1.163e-08
1.21343e-08
1.26456e-08
1.31594e-08
1.36701e-08
1.4171e-08
1.46545e-08
1.51115e-08
1.55318e-08
1.5904e-08
1.62158e-08
1.64536e-08
1.65967e-08
1.66407e-08
1.6582e-08
1.63996e-08
1.60835e-08
1.56287e-08
1.50344e-08
1.43048e-08
1.34491e-08
1.2482e-08
1.14233e-08
1.02967e-08
9.12926e-09
7.94916e-09
6.78422e-09
5.66026e-09
4.59996e-09
3.62278e-09
2.74667e-09
1.99339e-09
1.40444e-09
1.09925e-09
1.67176e-09
9.3248e-10
5.30909e-10
5.54403e-10
6.92711e-10
8.82771e-10
1.10066e-09
1.33394e-09
1.57478e-09
1.81769e-09
2.05864e-09
2.29471e-09
2.52392e-09
2.74509e-09
2.95778e-09
3.16218e-09
3.35904e-09
3.54957e-09
3.73529e-09
3.918e-09
4.09963e-09
4.2822e-09
4.4677e-09
4.65812e-09
4.85533e-09
5.0611e-09
5.27706e-09
5.50471e-09
5.7454e-09
6.00033e-09
6.27056e-09
6.55697e-09
6.86029e-09
7.18105e-09
7.51958e-09
7.87597e-09
8.25005e-09
8.64132e-09
9.0489e-09
9.47151e-09
9.90736e-09
1.03541e-08
1.08087e-08
1.12674e-08
1.17257e-08
1.21783e-08
1.26189e-08
1.30401e-08
1.3434e-08
1.37913e-08
1.41024e-08
1.43566e-08
1.45426e-08
1.46399e-08
1.46558e-08
1.45782e-08
1.43934e-08
1.40943e-08
1.36776e-08
1.31435e-08
1.2496e-08
1.17436e-08
1.08989e-08
9.97862e-09
9.00293e-09
7.99448e-09
6.97712e-09
5.97453e-09
5.00898e-09
4.10069e-09
3.26826e-09
2.53107e-09
1.91596e-09
1.47797e-09
1.37235e-09
2.39419e-09
1.24623e-09
6.63148e-10
6.14904e-10
7.03136e-10
8.51419e-10
1.03187e-09
1.23058e-09
1.43915e-09
1.65189e-09
1.86472e-09
2.07473e-09
2.27991e-09
2.47905e-09
2.67164e-09
2.85774e-09
3.03798e-09
3.21337e-09
3.38526e-09
3.55526e-09
3.72511e-09
3.89664e-09
4.0717e-09
4.2521e-09
4.43959e-09
4.63582e-09
4.84232e-09
5.06051e-09
5.29167e-09
5.53692e-09
5.79723e-09
6.07344e-09
6.36616e-09
6.67583e-09
7.00264e-09
7.34654e-09
7.70716e-09
8.08379e-09
8.47532e-09
8.88018e-09
9.2963e-09
9.72104e-09
1.01512e-08
1.05827e-08
1.10112e-08
1.14311e-08
1.18364e-08
1.22203e-08
1.25754e-08
1.28936e-08
1.31663e-08
1.33848e-08
1.35378e-08
1.36073e-08
1.36075e-08
1.35202e-08
1.33367e-08
1.30512e-08
1.26608e-08
1.21656e-08
1.15688e-08
1.08778e-08
1.01032e-08
9.25988e-09
8.366e-09
7.44224e-09
6.51074e-09
5.59379e-09
4.71272e-09
3.8875e-09
3.13739e-09
2.48427e-09
1.96141e-09
1.63678e-09
1.70209e-09
3.17552e-09
1.58493e-09
8.12973e-10
6.9732e-10
7.41933e-10
8.55809e-10
1.00685e-09
1.17947e-09
1.36451e-09
1.55594e-09
1.74948e-09
1.9421e-09
2.13171e-09
2.31701e-09
2.49738e-09
2.6728e-09
2.84376e-09
3.01116e-09
3.17622e-09
3.34043e-09
3.50541e-09
3.67288e-09
3.8446e-09
4.02229e-09
4.20764e-09
4.40224e-09
4.60757e-09
4.82499e-09
5.05572e-09
5.30085e-09
5.56129e-09
5.83777e-09
6.13082e-09
6.44074e-09
6.76756e-09
7.11103e-09
7.47053e-09
7.8451e-09
8.23331e-09
8.63327e-09
9.04258e-09
9.4583e-09
9.87692e-09
1.02943e-08
1.07059e-08
1.11063e-08
1.14898e-08
1.18501e-08
1.21805e-08
1.24739e-08
1.2723e-08
1.29206e-08
1.30555e-08
1.31131e-08
1.31088e-08
1.30235e-08
1.28498e-08
1.25822e-08
1.22171e-08
1.17535e-08
1.11929e-08
1.05405e-08
9.80589e-09
9.00263e-09
8.148e-09
7.26234e-09
6.36789e-09
5.48747e-09
4.64336e-09
3.85687e-09
3.14939e-09
2.54621e-09
2.08673e-09
1.85108e-09
2.06991e-09
4.00216e-09
1.9463e-09
9.76967e-10
7.95831e-10
8.00763e-10
8.84842e-10
1.01151e-09
1.16337e-09
1.33043e-09
1.50617e-09
1.68606e-09
1.86686e-09
2.04636e-09
2.22311e-09
2.39641e-09
2.56611e-09
2.73261e-09
2.89672e-09
3.05957e-09
3.22256e-09
3.38725e-09
3.55531e-09
3.72842e-09
3.90828e-09
4.09653e-09
4.29474e-09
4.50435e-09
4.72669e-09
4.96294e-09
5.21413e-09
5.48109e-09
5.76445e-09
6.06462e-09
6.38171e-09
6.71557e-09
7.06569e-09
7.43117e-09
7.81072e-09
8.20258e-09
8.60451e-09
9.01378e-09
9.42717e-09
9.84095e-09
1.02509e-08
1.06526e-08
1.10408e-08
1.14104e-08
1.17556e-08
1.20707e-08
1.23497e-08
1.25865e-08
1.2775e-08
1.29061e-08
1.29653e-08
1.29676e-08
1.28957e-08
1.27411e-08
1.24973e-08
1.21594e-08
1.17243e-08
1.11918e-08
1.05654e-08
9.8528e-09
9.06663e-09
8.22393e-09
7.34565e-09
6.45538e-09
5.57789e-09
4.73774e-09
3.95882e-09
3.26546e-09
2.68679e-09
2.26965e-09
2.10492e-09
2.46509e-09
4.86361e-09
2.32887e-09
1.15316e-09
9.07051e-10
8.74789e-10
9.32191e-10
1.0379e-09
1.17266e-09
1.32555e-09
1.48949e-09
1.65962e-09
1.83249e-09
2.00567e-09
2.1776e-09
2.34743e-09
2.51491e-09
2.68036e-09
2.84451e-09
3.00843e-09
3.17347e-09
3.34113e-09
3.51306e-09
3.69093e-09
3.8764e-09
4.07111e-09
4.27658e-09
4.49427e-09
4.72545e-09
4.97118e-09
5.23246e-09
5.51002e-09
5.80439e-09
6.11578e-09
6.44412e-09
6.78899e-09
7.14959e-09
7.52473e-09
7.91278e-09
8.31164e-09
8.71873e-09
9.13104e-09
9.54517e-09
9.9573e-09
1.03633e-08
1.07589e-08
1.11395e-08
1.15004e-08
1.1837e-08
1.21444e-08
1.24178e-08
1.26522e-08
1.28423e-08
1.29818e-08
1.3057e-08
1.30752e-08
1.30276e-08
1.29016e-08
1.26892e-08
1.23833e-08
1.19781e-08
1.14711e-08
1.08635e-08
1.01614e-08
9.37654e-09
8.52632e-09
7.63297e-09
6.72235e-09
5.82219e-09
4.96045e-09
4.16461e-09
3.46279e-09
2.88849e-09
2.49681e-09
2.38858e-09
2.88073e-09
5.75177e-09
2.73166e-09
1.34037e-09
1.02888e-09
9.60975e-10
9.93888e-10
1.08113e-09
1.20144e-09
1.3429e-09
1.49791e-09
1.6612e-09
1.829e-09
1.9987e-09
2.16856e-09
2.3376e-09
2.50548e-09
2.67242e-09
2.83908e-09
3.00652e-09
3.176e-09
3.34903e-09
3.52724e-09
3.71228e-09
3.90582e-09
4.10946e-09
4.32473e-09
4.55305e-09
4.79567e-09
5.05368e-09
5.3279e-09
5.61895e-09
5.92716e-09
6.25255e-09
6.59478e-09
6.95316e-09
7.32655e-09
7.71339e-09
8.11167e-09
8.51897e-09
8.93245e-09
9.34892e-09
9.76485e-09
1.01765e-08
1.05801e-08
1.09716e-08
1.13472e-08
1.17031e-08
1.20357e-08
1.23415e-08
1.26168e-08
1.28576e-08
1.30595e-08
1.32172e-08
1.33209e-08
1.33652e-08
1.3351e-08
1.32623e-08
1.30882e-08
1.28189e-08
1.24457e-08
1.19632e-08
1.13702e-08
1.06713e-08
9.87738e-09
9.00626e-09
8.08188e-09
7.13291e-09
6.19074e-09
5.28759e-09
4.45535e-09
3.72666e-09
3.14001e-09
2.75947e-09
2.69562e-09
3.31202e-09
6.66021e-09
3.154e-09
1.53781e-09
1.15995e-09
1.05731e-09
1.0673e-09
1.13794e-09
1.24585e-09
1.37804e-09
1.52628e-09
1.6849e-09
1.84984e-09
2.01824e-09
2.18817e-09
2.3585e-09
2.52877e-09
2.69913e-09
2.8702e-09
3.04298e-09
3.21876e-09
3.39903e-09
3.58541e-09
3.77956e-09
3.98313e-09
4.19773e-09
4.42485e-09
4.66584e-09
4.92189e-09
5.19399e-09
5.48288e-09
5.789e-09
6.11248e-09
6.45309e-09
6.81022e-09
7.18283e-09
7.56948e-09
7.96824e-09
8.37677e-09
8.79238e-09
9.21201e-09
9.63237e-09
1.005e-08
1.04615e-08
1.08633e-08
1.12523e-08
1.16254e-08
1.198e-08
1.23136e-08
1.26237e-08
1.29079e-08
1.31631e-08
1.33856e-08
1.35701e-08
1.37099e-08
1.37936e-08
1.38175e-08
1.37729e-08
1.36426e-08
1.34139e-08
1.30748e-08
1.26169e-08
1.20367e-08
1.13367e-08
1.05274e-08
9.6267e-09
8.66047e-09
7.66034e-09
6.6618e-09
5.70185e-09
4.81752e-09
4.04669e-09
3.43343e-09
3.05153e-09
3.02153e-09
3.75542e-09
7.58382e-09
3.59546e-09
1.74498e-09
1.29934e-09
1.16239e-09
1.15061e-09
1.20608e-09
1.30319e-09
1.42784e-09
1.57112e-09
1.7269e-09
1.89079e-09
2.05965e-09
2.23136e-09
2.40464e-09
2.57893e-09
2.7543e-09
2.93131e-09
3.11094e-09
3.29447e-09
3.48339e-09
3.67932e-09
3.88392e-09
4.09886e-09
4.3257e-09
4.56591e-09
4.82079e-09
5.09145e-09
5.37874e-09
5.68326e-09
6.00525e-09
6.3446e-09
6.70081e-09
7.07295e-09
7.45967e-09
7.85916e-09
8.26917e-09
8.6871e-09
9.11002e-09
9.53478e-09
9.95815e-09
1.03769e-08
1.0788e-08
1.11886e-08
1.15764e-08
1.19495e-08
1.23061e-08
1.26451e-08
1.29652e-08
1.32648e-08
1.35415e-08
1.3792e-08
1.4011e-08
1.41916e-08
1.4325e-08
1.4392e-08
1.43946e-08
1.43119e-08
1.41267e-08
1.38234e-08
1.33908e-08
1.28228e-08
1.21202e-08
1.12923e-08
1.03574e-08
9.34287e-09
8.2832e-09
7.21811e-09
6.18973e-09
5.24077e-09
4.41503e-09
3.76286e-09
3.3685e-09
3.36302e-09
4.20825e-09
8.51847e-09
4.0558e-09
1.96158e-09
1.44643e-09
1.27524e-09
1.2425e-09
1.28393e-09
1.37155e-09
1.49007e-09
1.62986e-09
1.78429e-09
1.94861e-09
2.11939e-09
2.2943e-09
2.47189e-09
2.65149e-09
2.8331e-09
3.01722e-09
3.20484e-09
3.39721e-09
3.59585e-09
3.80237e-09
4.01843e-09
4.24568e-09
4.48568e-09
4.73984e-09
5.00937e-09
5.29528e-09
5.59829e-09
5.91878e-09
6.25679e-09
6.61194e-09
6.98343e-09
7.37002e-09
7.77e-09
8.18125e-09
8.60124e-09
9.02715e-09
9.45594e-09
9.8845e-09
1.03098e-08
1.0729e-08
1.11396e-08
1.15398e-08
1.1928e-08
1.23034e-08
1.26656e-08
1.30144e-08
1.33495e-08
1.367e-08
1.39741e-08
1.42585e-08
1.45176e-08
1.47438e-08
1.49273e-08
1.50492e-08
1.50957e-08
1.50625e-08
1.49225e-08
1.46562e-08
1.42498e-08
1.36946e-08
1.29898e-08
1.21431e-08
1.11728e-08
1.01072e-08
8.98341e-09
7.84526e-09
6.7401e-09
5.71673e-09
4.82548e-09
4.12379e-09
3.70696e-09
3.71765e-09
4.6685e-09
9.46096e-09
4.53488e-09
2.18738e-09
1.60077e-09
1.39515e-09
1.342e-09
1.37027e-09
1.44949e-09
1.56307e-09
1.70062e-09
1.85498e-09
2.02098e-09
2.1949e-09
2.37417e-09
2.55718e-09
2.74314e-09
2.93196e-09
3.12414e-09
3.32062e-09
3.52268e-09
3.73181e-09
3.94966e-09
4.17787e-09
4.41807e-09
4.67178e-09
4.94033e-09
5.22487e-09
5.52625e-09
5.84502e-09
6.18135e-09
6.53503e-09
6.9054e-09
7.29135e-09
7.6913e-09
8.10325e-09
8.52478e-09
8.95315e-09
9.38541e-09
9.81853e-09
1.02496e-08
1.06758e-08
1.1095e-08
1.15055e-08
1.19062e-08
1.22967e-08
1.26772e-08
1.30484e-08
1.34111e-08
1.37657e-08
1.41118e-08
1.44478e-08
1.47701e-08
1.50727e-08
1.53468e-08
1.5581e-08
1.57601e-08
1.58536e-08
1.5866e-08
1.57719e-08
1.55434e-08
1.5164e-08
1.46233e-08
1.39181e-08
1.30547e-08
1.20505e-08
1.09343e-08
9.74527e-09
8.53082e-09
7.34347e-09
6.23837e-09
5.27297e-09
4.51254e-09
4.06442e-09
4.08359e-09
5.13465e-09
1.04089e-08
5.03265e-09
2.42226e-09
1.76205e-09
1.5216e-09
1.4484e-09
1.46421e-09
1.53593e-09
1.6456e-09
1.78199e-09
1.93736e-09
2.10612e-09
2.28422e-09
2.46882e-09
2.65816e-09
2.85132e-09
3.04814e-09
3.24908e-09
3.45508e-09
3.66742e-09
3.8876e-09
4.11725e-09
4.35803e-09
4.61152e-09
4.87919e-09
5.1623e-09
5.46185e-09
5.77856e-09
6.11277e-09
6.46443e-09
6.83305e-09
7.21768e-09
7.61691e-09
8.02886e-09
8.45123e-09
8.88138e-09
9.31645e-09
9.75345e-09
1.01895e-08
1.06219e-08
1.10486e-08
1.14679e-08
1.18789e-08
1.22815e-08
1.26765e-08
1.3065e-08
1.34487e-08
1.38289e-08
1.42068e-08
1.4582e-08
1.49529e-08
1.53155e-08
1.56629e-08
1.59854e-08
1.62702e-08
1.65017e-08
1.66484e-08
1.66996e-08
1.66507e-08
1.64598e-08
1.61085e-08
1.55842e-08
1.48816e-08
1.40052e-08
1.2971e-08
1.18075e-08
1.05549e-08
9.26386e-09
7.99158e-09
6.79969e-09
5.75326e-09
4.92617e-09
4.43897e-09
4.4595e-09
5.60562e-09
1.13604e-08
5.54913e-09
2.66614e-09
1.93006e-09
1.65422e-09
1.56112e-09
1.56505e-09
1.63004e-09
1.73668e-09
1.87286e-09
2.03019e-09
2.20263e-09
2.38578e-09
2.57654e-09
2.77294e-09
2.97396e-09
3.17938e-09
3.38962e-09
3.6056e-09
3.82862e-09
4.06018e-09
4.3019e-09
4.55543e-09
4.82231e-09
5.10394e-09
5.40146e-09
5.71576e-09
6.04737e-09
6.39642e-09
6.76261e-09
7.14518e-09
7.54289e-09
7.95404e-09
8.37646e-09
8.80764e-09
9.24479e-09
9.68499e-09
1.01254e-08
1.05633e-08
1.09965e-08
1.14234e-08
1.18433e-08
1.22561e-08
1.26626e-08
1.30646e-08
1.34641e-08
1.38634e-08
1.42644e-08
1.46684e-08
1.50752e-08
1.54827e-08
1.58861e-08
1.62779e-08
1.66473e-08
1.69803e-08
1.72604e-08
1.74593e-08
1.7547e-08
1.7539e-08
1.73854e-08
1.70627e-08
1.65569e-08
1.58607e-08
1.49763e-08
1.39176e-08
1.2712e-08
1.14002e-08
1.00346e-08
8.67709e-09
7.39546e-09
6.26281e-09
5.36233e-09
4.82914e-09
4.84441e-09
6.08072e-09
1.23145e-08
6.08438e-09
2.91898e-09
2.10462e-09
1.7927e-09
1.67973e-09
1.67225e-09
1.73115e-09
1.83555e-09
1.97233e-09
2.13247e-09
2.30939e-09
2.49833e-09
2.69591e-09
2.89997e-09
3.10937e-09
3.32381e-09
3.5437e-09
3.76996e-09
4.00387e-09
4.24695e-09
4.50083e-09
4.7671e-09
5.04726e-09
5.34262e-09
5.65422e-09
5.98278e-09
6.32864e-09
6.69172e-09
7.07146e-09
7.46683e-09
7.87632e-09
8.29794e-09
8.72933e-09
9.1678e-09
9.61049e-09
1.00546e-08
1.04973e-08
1.09365e-08
1.13704e-08
1.17981e-08
1.22196e-08
1.26359e-08
1.30486e-08
1.34603e-08
1.38736e-08
1.42915e-08
1.4716e-08
1.51483e-08
1.5588e-08
1.60322e-08
1.64758e-08
1.69101e-08
1.73235e-08
1.77012e-08
1.8025e-08
1.82709e-08
1.83974e-08
1.84218e-08
1.83048e-08
1.80109e-08
1.75256e-08
1.68396e-08
1.59526e-08
1.4876e-08
1.36353e-08
1.22702e-08
1.08345e-08
9.39349e-09
8.02107e-09
6.79856e-09
5.81916e-09
5.23376e-09
5.23772e-09
6.55953e-09
1.32707e-08
6.63847e-09
3.18077e-09
2.28563e-09
1.93683e-09
1.80389e-09
1.78536e-09
1.83874e-09
1.94157e-09
2.0797e-09
2.24337e-09
2.42546e-09
2.62081e-09
2.82575e-09
3.03792e-09
3.25606e-09
3.47982e-09
3.70957e-09
3.94623e-09
4.1911e-09
4.44569e-09
4.71162e-09
4.99044e-09
5.2836e-09
5.59231e-09
5.91747e-09
6.25965e-09
6.61898e-09
6.99515e-09
7.38736e-09
7.79432e-09
8.21426e-09
8.64499e-09
9.08397e-09
9.52842e-09
9.97553e-09
1.04226e-08
1.08672e-08
1.13076e-08
1.17426e-08
1.21722e-08
1.25971e-08
1.3019e-08
1.34405e-08
1.38646e-08
1.42946e-08
1.47336e-08
1.51836e-08
1.56456e-08
1.61185e-08
1.6599e-08
1.70808e-08
1.75548e-08
1.80085e-08
1.84262e-08
1.87895e-08
1.90748e-08
1.92395e-08
1.92904e-08
1.92081e-08
1.89423e-08
1.84788e-08
1.78064e-08
1.69222e-08
1.58346e-08
1.45664e-08
1.31555e-08
1.16557e-08
1.01348e-08
8.67241e-09
7.35791e-09
6.29524e-09
5.65189e-09
5.6391e-09
7.04196e-09
1.42288e-08
7.21149e-09
3.45151e-09
2.473e-09
2.08643e-09
1.93335e-09
1.90405e-09
1.95238e-09
2.05424e-09
2.19437e-09
2.3622e-09
2.55005e-09
2.75232e-09
2.96504e-09
3.18565e-09
3.41277e-09
3.64599e-09
3.88567e-09
4.13273e-09
4.38847e-09
4.65441e-09
4.93215e-09
5.22321e-09
5.52895e-09
5.85048e-09
6.18858e-09
6.54361e-09
6.91554e-09
7.30381e-09
7.70739e-09
8.12476e-09
8.55394e-09
8.99258e-09
9.43801e-09
9.88748e-09
1.03383e-08
1.07879e-08
1.12344e-08
1.16765e-08
1.21138e-08
1.25469e-08
1.29772e-08
1.34073e-08
1.38402e-08
1.42797e-08
1.4729e-08
1.51913e-08
1.56684e-08
1.61608e-08
1.66666e-08
1.71819e-08
1.76996e-08
1.82098e-08
1.86993e-08
1.91523e-08
1.95498e-08
1.98686e-08
2.00677e-08
2.01409e-08
2.00898e-08
1.98507e-08
1.94093e-08
1.87531e-08
1.78763e-08
1.67843e-08
1.54964e-08
1.40478e-08
1.24912e-08
1.08958e-08
9.34571e-09
7.93854e-09
6.78934e-09
6.08294e-09
6.04841e-09
7.5281e-09
1.51892e-08
7.80354e-09
3.73119e-09
2.66666e-09
2.24135e-09
2.0679e-09
2.02802e-09
2.07171e-09
2.17314e-09
2.31583e-09
2.48838e-09
2.68248e-09
2.89206e-09
3.11286e-09
3.34212e-09
3.57834e-09
3.82104e-09
4.07059e-09
4.32791e-09
4.59432e-09
4.87135e-09
5.16055e-09
5.46341e-09
5.78122e-09
6.11497e-09
6.46528e-09
6.83238e-09
7.216e-09
7.6154e-09
8.02932e-09
8.45605e-09
8.89344e-09
9.33902e-09
9.79011e-09
1.0244e-08
1.06982e-08
1.11506e-08
1.15996e-08
1.20446e-08
1.24857e-08
1.29243e-08
1.33626e-08
1.38037e-08
1.4251e-08
1.47085e-08
1.51797e-08
1.56672e-08
1.61725e-08
1.66954e-08
1.72335e-08
1.77818e-08
1.83326e-08
1.88753e-08
1.93963e-08
1.98797e-08
2.03062e-08
2.06529e-08
2.08815e-08
2.09736e-08
2.09493e-08
2.07344e-08
2.03145e-08
1.96755e-08
1.88095e-08
1.77186e-08
1.64184e-08
1.49404e-08
1.3335e-08
1.16715e-08
1.00375e-08
8.53831e-09
7.30037e-09
6.52659e-09
6.4657e-09
8.01826e-09
1.61528e-08
8.41467e-09
4.01983e-09
2.86656e-09
2.40147e-09
2.20736e-09
2.15704e-09
2.19644e-09
2.2979e-09
2.44365e-09
2.62138e-09
2.82212e-09
3.03933e-09
3.26841e-09
3.50641e-09
3.75171e-09
4.00382e-09
4.26307e-09
4.53041e-09
4.80719e-09
5.09492e-09
5.39515e-09
5.70931e-09
6.0386e-09
6.38391e-09
6.74572e-09
7.12408e-09
7.51855e-09
7.92818e-09
8.35155e-09
8.78678e-09
9.2316e-09
9.6835e-09
1.01398e-08
1.05981e-08
1.1056e-08
1.15118e-08
1.19644e-08
1.24139e-08
1.28611e-08
1.33078e-08
1.37569e-08
1.42118e-08
1.46765e-08
1.51548e-08
1.56499e-08
1.61643e-08
1.66987e-08
1.72522e-08
1.78215e-08
1.84009e-08
1.89821e-08
1.95539e-08
2.01025e-08
2.06118e-08
2.10623e-08
2.14318e-08
2.1685e-08
2.17932e-08
2.179e-08
2.15961e-08
2.11954e-08
2.05732e-08
1.97197e-08
1.86338e-08
1.73273e-08
1.58277e-08
1.41817e-08
1.24573e-08
1.07445e-08
9.15524e-09
7.82736e-09
6.98259e-09
6.89113e-09
8.51285e-09
1.71203e-08
9.04497e-09
4.31743e-09
3.07265e-09
2.5667e-09
2.35159e-09
2.29092e-09
2.32632e-09
2.42821e-09
2.57745e-09
2.76075e-09
2.96843e-09
3.19347e-09
3.43093e-09
3.67765e-09
3.93193e-09
4.19324e-09
4.46193e-09
4.73897e-09
5.02573e-09
5.32372e-09
5.63448e-09
5.95939e-09
6.29957e-09
6.65578e-09
7.02839e-09
7.41728e-09
7.82184e-09
8.24097e-09
8.67309e-09
9.1162e-09
9.568e-09
1.0026e-08
1.04876e-08
1.09505e-08
1.14129e-08
1.18733e-08
1.23314e-08
1.27875e-08
1.32432e-08
1.37009e-08
1.41639e-08
1.46358e-08
1.51208e-08
1.56224e-08
1.61437e-08
1.66864e-08
1.72506e-08
1.78345e-08
1.84342e-08
1.90431e-08
1.96524e-08
2.02503e-08
2.0823e-08
2.13543e-08
2.18247e-08
2.22122e-08
2.2485e-08
2.26081e-08
2.26189e-08
2.2442e-08
2.20571e-08
2.14494e-08
2.06078e-08
1.95287e-08
1.82202e-08
1.67054e-08
1.50267e-08
1.32492e-08
1.14636e-08
9.78735e-09
8.36943e-09
7.45076e-09
7.32495e-09
9.01239e-09
1.80929e-08
9.69445e-09
4.62398e-09
3.28488e-09
2.73696e-09
2.50046e-09
2.42947e-09
2.46111e-09
2.56379e-09
2.71687e-09
2.90605e-09
3.1209e-09
3.35386e-09
3.5997e-09
3.85504e-09
4.1181e-09
4.38833e-09
4.66611e-09
4.95245e-09
5.24874e-09
5.55651e-09
5.87728e-09
6.21238e-09
6.56286e-09
6.92937e-09
7.31215e-09
7.71094e-09
8.125e-09
8.55308e-09
8.9935e-09
9.44421e-09
9.90288e-09
1.03671e-08
1.08345e-08
1.1303e-08
1.17711e-08
1.22379e-08
1.27035e-08
1.31689e-08
1.36361e-08
1.41079e-08
1.45879e-08
1.50801e-08
1.55882e-08
1.61158e-08
1.66651e-08
1.72375e-08
1.78322e-08
1.84466e-08
1.90759e-08
1.97131e-08
2.03486e-08
2.09706e-08
2.15648e-08
2.21152e-08
2.26023e-08
2.30043e-08
2.32921e-08
2.3427e-08
2.34467e-08
2.32818e-08
2.29079e-08
2.23105e-08
2.14778e-08
2.04048e-08
1.90963e-08
1.7571e-08
1.58664e-08
1.40435e-08
1.21917e-08
1.04327e-08
8.92563e-09
7.9309e-09
7.76742e-09
9.51739e-09
1.90718e-08
1.03631e-08
4.93947e-09
3.50321e-09
2.91216e-09
2.65385e-09
2.57256e-09
2.60064e-09
2.70438e-09
2.86161e-09
3.05689e-09
3.27903e-09
3.51995e-09
3.77406e-09
4.03781e-09
4.30936e-09
4.58817e-09
4.87463e-09
5.16983e-09
5.47517e-09
5.79223e-09
6.12249e-09
6.46725e-09
6.82749e-09
7.20377e-09
7.59621e-09
8.00444e-09
8.42759e-09
8.86433e-09
9.31291e-09
9.77126e-09
1.02371e-08
1.07082e-08
1.11823e-08
1.16577e-08
1.21334e-08
1.26088e-08
1.30845e-08
1.35621e-08
1.40439e-08
1.45331e-08
1.50336e-08
1.55491e-08
1.60833e-08
1.66392e-08
1.72186e-08
1.7822e-08
1.8448e-08
1.90931e-08
1.97518e-08
2.04165e-08
2.10773e-08
2.17219e-08
2.23361e-08
2.29039e-08
2.34055e-08
2.38195e-08
2.41185e-08
2.42614e-08
2.42861e-08
2.41276e-08
2.37585e-08
2.31655e-08
2.23367e-08
2.12662e-08
1.99568e-08
1.84234e-08
1.66981e-08
1.48367e-08
1.29259e-08
1.10891e-08
9.49493e-09
8.42278e-09
8.21878e-09
1.00284e-08
2.0058e-08
1.1051e-08
5.26386e-09
3.72758e-09
3.09222e-09
2.81167e-09
2.72004e-09
2.7447e-09
2.84975e-09
3.01134e-09
3.21289e-09
3.44238e-09
3.69118e-09
3.95337e-09
4.22527e-09
4.50495e-09
4.79191e-09
5.08661e-09
5.39019e-09
5.70411e-09
6.02997e-09
6.36925e-09
6.72321e-09
7.09277e-09
7.47841e-09
7.88016e-09
8.29756e-09
8.72965e-09
9.17504e-09
9.63196e-09
1.00984e-08
1.05721e-08
1.1051e-08
1.15333e-08
1.20175e-08
1.25028e-08
1.29894e-08
1.34783e-08
1.39712e-08
1.4471e-08
1.49812e-08
1.55054e-08
1.60474e-08
1.66105e-08
1.71971e-08
1.78086e-08
1.84445e-08
1.91026e-08
1.9779e-08
2.04673e-08
2.11595e-08
2.18453e-08
2.25121e-08
2.31458e-08
2.37301e-08
2.42454e-08
2.467e-08
2.49771e-08
2.51245e-08
2.51512e-08
2.49931e-08
2.46223e-08
2.40262e-08
2.31939e-08
2.21197e-08
2.08054e-08
1.92631e-08
1.75201e-08
1.56262e-08
1.36632e-08
1.17546e-08
1.00762e-08
8.92602e-09
8.67919e-09
1.05458e-08
2.10525e-08
1.1758e-08
5.59712e-09
3.95795e-09
3.27708e-09
2.97381e-09
2.87178e-09
2.89314e-09
2.99968e-09
3.1658e-09
3.37369e-09
3.61049e-09
3.86702e-09
4.13705e-09
4.41673e-09
4.70414e-09
4.9988e-09
5.30127e-09
5.61276e-09
5.9348e-09
6.26902e-09
6.61691e-09
6.9797e-09
7.35827e-09
7.75304e-09
8.16396e-09
8.59049e-09
9.03164e-09
9.48598e-09
9.95178e-09
1.0427e-08
1.09098e-08
1.1398e-08
1.18903e-08
1.23854e-08
1.28831e-08
1.33838e-08
1.3889e-08
1.44007e-08
1.49221e-08
1.54566e-08
1.60079e-08
1.65795e-08
1.71743e-08
1.77941e-08
1.84395e-08
1.91094e-08
1.9801e-08
2.05094e-08
2.12281e-08
2.19483e-08
2.26595e-08
2.3349e-08
2.40025e-08
2.46038e-08
2.51328e-08
2.55679e-08
2.58811e-08
2.60305e-08
2.60565e-08
2.58932e-08
2.55136e-08
2.4906e-08
2.40608e-08
2.29739e-08
2.16476e-08
2.00927e-08
1.83323e-08
1.64099e-08
1.44011e-08
1.24267e-08
1.0668e-08
9.44011e-09
9.14871e-09
1.107e-08
2.20561e-08
1.2484e-08
5.93918e-09
4.19425e-09
3.46666e-09
3.14018e-09
3.02766e-09
3.0458e-09
3.15396e-09
3.32471e-09
3.53894e-09
3.78294e-09
4.04698e-09
4.3245e-09
4.61157e-09
4.90625e-09
5.20815e-09
5.51793e-09
5.83689e-09
6.16664e-09
6.50886e-09
6.86506e-09
7.23647e-09
7.6239e-09
8.02775e-09
8.44791e-09
8.88382e-09
9.33444e-09
9.79838e-09
1.02739e-08
1.07593e-08
1.12525e-08
1.1752e-08
1.22565e-08
1.27652e-08
1.32781e-08
1.37962e-08
1.4321e-08
1.48551e-08
1.54017e-08
1.5964e-08
1.65458e-08
1.715e-08
1.77791e-08
1.84344e-08
1.91157e-08
1.98213e-08
2.05477e-08
2.12895e-08
2.20395e-08
2.27888e-08
2.35266e-08
2.42401e-08
2.49147e-08
2.55342e-08
2.60781e-08
2.65245e-08
2.68432e-08
2.69931e-08
2.70165e-08
2.68431e-08
2.64478e-08
2.58196e-08
2.4951e-08
2.384e-08
2.24915e-08
2.09164e-08
1.91355e-08
1.71864e-08
1.5137e-08
1.31032e-08
1.12687e-08
9.96434e-09
9.62721e-09
1.16012e-08
2.30691e-08
1.32289e-08
6.28998e-09
4.43642e-09
3.66088e-09
3.31069e-09
3.18756e-09
3.20251e-09
3.31237e-09
3.48778e-09
3.7083e-09
3.95932e-09
4.23056e-09
4.5152e-09
4.80921e-09
5.1107e-09
5.41938e-09
5.73603e-09
6.06207e-09
6.39922e-09
6.7492e-09
7.11355e-09
7.49349e-09
7.88984e-09
8.30296e-09
8.73272e-09
9.17852e-09
9.63937e-09
1.01139e-08
1.06005e-08
1.10975e-08
1.16031e-08
1.21161e-08
1.26353e-08
1.31605e-08
1.36919e-08
1.42307e-08
1.47789e-08
1.5339e-08
1.59142e-08
1.65079e-08
1.71233e-08
1.77631e-08
1.84293e-08
1.91223e-08
1.98415e-08
2.05845e-08
2.13472e-08
2.21238e-08
2.29066e-08
2.36866e-08
2.44527e-08
2.51919e-08
2.58897e-08
2.65295e-08
2.70904e-08
2.75499e-08
2.7875e-08
2.80251e-08
2.80446e-08
2.78574e-08
2.74402e-08
2.67825e-08
2.58788e-08
2.47307e-08
2.33467e-08
2.17406e-08
1.99326e-08
1.79554e-08
1.58689e-08
1.37816e-08
1.18767e-08
1.04978e-08
1.01144e-08
1.21393e-08
2.40917e-08
1.39926e-08
6.64941e-09
4.68436e-09
3.85965e-09
3.48523e-09
3.35136e-09
3.36311e-09
3.47471e-09
3.65475e-09
3.88143e-09
4.13922e-09
4.41731e-09
4.70865e-09
5.00914e-09
5.31697e-09
5.63199e-09
5.95514e-09
6.28797e-09
6.6323e-09
6.98993e-09
7.36244e-09
7.75107e-09
8.15663e-09
8.57946e-09
9.01943e-09
9.47598e-09
9.94812e-09
1.04346e-08
1.09338e-08
1.14444e-08
1.19648e-08
1.24938e-08
1.30307e-08
1.35755e-08
1.41288e-08
1.4692e-08
1.52671e-08
1.58568e-08
1.64643e-08
1.70927e-08
1.77449e-08
1.84231e-08
1.91287e-08
1.98618e-08
2.06208e-08
2.1403e-08
2.22036e-08
2.30166e-08
2.3834e-08
2.46464e-08
2.54428e-08
2.62101e-08
2.69336e-08
2.75963e-08
2.81771e-08
2.86524e-08
2.89863e-08
2.91375e-08
2.9153e-08
2.89498e-08
2.85056e-08
2.78101e-08
2.68596e-08
2.56599e-08
2.42248e-08
2.25733e-08
2.07276e-08
1.87177e-08
1.65953e-08
1.44596e-08
1.24897e-08
1.10392e-08
1.06098e-08
1.26841e-08
2.51236e-08
1.47748e-08
7.01738e-09
4.93799e-09
4.0629e-09
3.66371e-09
3.51894e-09
3.52746e-09
3.64076e-09
3.82535e-09
4.05799e-09
4.32225e-09
4.6068e-09
4.90438e-09
5.21088e-09
5.52463e-09
5.84562e-09
6.17498e-09
6.51441e-09
6.86587e-09
7.23122e-09
7.61211e-09
8.00979e-09
8.42509e-09
8.85836e-09
9.3095e-09
9.77795e-09
1.02628e-08
1.07629e-08
1.12768e-08
1.18032e-08
1.23409e-08
1.28889e-08
1.34467e-08
1.40146e-08
1.45933e-08
1.51844e-08
1.57902e-08
1.64132e-08
1.70564e-08
1.77227e-08
1.84147e-08
1.9134e-08
1.98814e-08
2.06565e-08
2.14573e-08
2.22804e-08
2.31206e-08
2.39716e-08
2.48253e-08
2.56722e-08
2.65012e-08
2.7299e-08
2.80509e-08
2.87397e-08
2.93436e-08
2.98381e-08
3.01846e-08
3.03395e-08
3.03517e-08
3.01319e-08
2.96575e-08
2.8917e-08
2.79086e-08
2.66423e-08
2.51388e-08
2.34244e-08
2.15267e-08
1.94754e-08
1.73154e-08
1.51349e-08
1.31057e-08
1.15872e-08
1.11125e-08
1.32351e-08
2.6164e-08
1.55752e-08
7.39375e-09
5.19721e-09
4.27051e-09
3.84603e-09
3.69017e-09
3.69538e-09
3.81033e-09
3.99932e-09
4.23767e-09
4.50804e-09
4.79862e-09
5.10198e-09
5.41406e-09
5.73333e-09
6.06001e-09
6.39541e-09
6.74143e-09
7.10013e-09
7.47349e-09
7.8632e-09
8.27057e-09
8.69644e-09
9.14118e-09
9.60474e-09
1.00866e-08
1.0586e-08
1.11017e-08
1.16326e-08
1.21776e-08
1.27354e-08
1.33055e-08
1.38876e-08
1.44821e-08
1.50899e-08
1.57127e-08
1.63528e-08
1.70126e-08
1.76949e-08
1.84022e-08
1.91367e-08
1.98996e-08
2.06911e-08
2.15102e-08
2.23544e-08
2.32199e-08
2.41013e-08
2.4992e-08
2.58837e-08
2.6767e-08
2.76306e-08
2.84615e-08
2.92448e-08
2.99629e-08
3.05935e-08
3.11112e-08
3.14752e-08
3.16374e-08
3.16483e-08
3.14134e-08
3.09072e-08
3.01167e-08
2.90406e-08
2.76932e-08
2.61027e-08
2.43053e-08
2.23373e-08
2.02319e-08
1.80291e-08
1.58055e-08
1.37223e-08
1.214e-08
1.16217e-08
1.37917e-08
2.72117e-08
1.63936e-08
7.77837e-09
5.4619e-09
4.48239e-09
4.03208e-09
3.8649e-09
3.86672e-09
3.98319e-09
4.17638e-09
4.42015e-09
4.69624e-09
4.99241e-09
5.30111e-09
5.61838e-09
5.94288e-09
6.27507e-09
6.6165e-09
6.96925e-09
7.33553e-09
7.71742e-09
8.11667e-09
8.53464e-09
8.9722e-09
9.42979e-09
9.90736e-09
1.04045e-08
1.09205e-08
1.14543e-08
1.20049e-08
1.25712e-08
1.31525e-08
1.37481e-08
1.4358e-08
1.49827e-08
1.56234e-08
1.62816e-08
1.69596e-08
1.76596e-08
1.83842e-08
1.91354e-08
1.9915e-08
2.07236e-08
2.15611e-08
2.24259e-08
2.33151e-08
2.42245e-08
2.51484e-08
2.60801e-08
2.70113e-08
2.79326e-08
2.88329e-08
2.96993e-08
3.05166e-08
3.12672e-08
3.19283e-08
3.24732e-08
3.28606e-08
3.30353e-08
3.30478e-08
3.28011e-08
3.22642e-08
3.14207e-08
3.02692e-08
2.88272e-08
2.7131e-08
2.52287e-08
2.31689e-08
2.09922e-08
1.87374e-08
1.64699e-08
1.4337e-08
1.26958e-08
1.21359e-08
1.43529e-08
2.8265e-08
1.72296e-08
8.17107e-09
5.73193e-09
4.69843e-09
4.22175e-09
4.04299e-09
4.0413e-09
4.15913e-09
4.35629e-09
4.60512e-09
4.88652e-09
5.18785e-09
5.50148e-09
5.82362e-09
6.15316e-09
6.49086e-09
6.83849e-09
7.19834e-09
7.57277e-09
7.96398e-09
8.37378e-09
8.80358e-09
9.25431e-09
9.72643e-09
1.022e-08
1.07346e-08
1.12696e-08
1.18242e-08
1.23974e-08
1.29884e-08
1.35965e-08
1.42212e-08
1.48627e-08
1.55215e-08
1.61987e-08
1.6896e-08
1.76154e-08
1.83589e-08
1.91286e-08
1.99264e-08
2.07534e-08
2.16099e-08
2.24951e-08
2.3407e-08
2.43423e-08
2.52966e-08
2.62641e-08
2.72378e-08
2.82097e-08
2.91704e-08
3.0109e-08
3.10127e-08
3.18665e-08
3.26526e-08
3.33476e-08
3.39239e-08
3.43409e-08
3.45341e-08
3.45524e-08
3.42992e-08
3.37347e-08
3.28382e-08
3.1606e-08
3.0058e-08
2.82383e-08
2.62081e-08
2.40319e-08