/*--------------------------------*- C++ -*----------------------------------*\
  =========                 |
  \\      /  F ield         | OpenFOAM: The Open Source CFD Toolbox
   \\    /   O peration     | Website:  https://openfoam.org
    \\  /    A nd           | Version:  12
     \\/     M anipulation  |
\*---------------------------------------------------------------------------*/
FoamFile
{
    format      ascii;
    class       volScalarField;
    location    "6.5";
    object      k;
}
// * * * * * * * * * * * * * * * * * * * * * * * * * * * * * * * * * * * * * //

dimensions      [0 2 -2 0 0 0 0];

internalField   nonuniform List<scalar> 
5625
(
2.17407e-14
1.46951e-13
3.2593e-13
5.36587e-13
7.67595e-13
1.01115e-12
1.26121e-12
1.51289e-12
1.76225e-12
2.00618e-12
2.24237e-12
2.46923e-12
2.68592e-12
2.89222e-12
3.08854e-12
3.27575e-12
3.45515e-12
3.62835e-12
3.79715e-12
3.96346e-12
4.12924e-12
4.2964e-12
4.46678e-12
4.64212e-12
4.824e-12
5.01388e-12
5.21306e-12
5.4227e-12
5.64384e-12
5.87734e-12
6.12398e-12
6.38439e-12
6.65908e-12
6.94841e-12
7.25263e-12
7.57179e-12
7.90579e-12
8.25429e-12
8.61671e-12
8.99217e-12
9.37938e-12
9.77664e-12
1.01817e-11
1.05917e-11
1.10029e-11
1.1411e-11
1.18104e-11
1.21946e-11
1.2556e-11
1.28856e-11
1.31732e-11
1.34075e-11
1.35746e-11
1.36568e-11
1.36619e-11
1.35659e-11
1.33565e-11
1.30265e-11
1.25723e-11
1.19947e-11
1.12997e-11
1.04988e-11
9.60862e-12
8.65083e-12
7.65037e-12
6.63391e-12
5.62781e-12
4.6561e-12
3.73894e-12
2.89166e-12
2.12481e-12
1.4455e-12
8.60484e-13
3.83358e-13
5.6571e-14
1.64286e-13
1.30859e-12
2.9243e-12
4.82234e-12
6.9026e-12
9.09528e-12
1.13462e-11
1.36114e-11
1.58556e-11
1.80507e-11
2.01759e-11
2.22171e-11
2.41666e-11
2.60225e-11
2.77884e-11
2.94724e-11
3.1086e-11
3.26437e-11
3.41618e-11
3.56575e-11
3.71485e-11
3.86518e-11
4.01842e-11
4.17612e-11
4.33971e-11
4.5105e-11
4.68966e-11
4.87823e-11
5.07714e-11
5.28719e-11
5.50905e-11
5.74331e-11
5.9904e-11
6.25068e-11
6.52435e-11
6.81146e-11
7.11193e-11
7.42545e-11
7.7515e-11
8.08928e-11
8.43764e-11
8.79506e-11
9.15951e-11
9.5284e-11
9.89848e-11
1.02657e-10
1.06252e-10
1.09711e-10
1.12964e-10
1.15932e-10
1.18524e-10
1.20635e-10
1.22143e-10
1.22882e-10
1.22926e-10
1.22058e-10
1.20169e-10
1.17194e-10
1.13102e-10
1.079e-10
1.01642e-10
9.44312e-11
8.6419e-11
7.77992e-11
6.87967e-11
5.96514e-11
5.06001e-11
4.18591e-11
3.36094e-11
2.59885e-11
1.9091e-11
1.29798e-11
7.71435e-12
3.41127e-12
4.27234e-13
3.48772e-13
2.98675e-12
6.71817e-12
1.11019e-11
1.59057e-11
2.09681e-11
2.61641e-11
3.13925e-11
3.65714e-11
4.16364e-11
4.65393e-11
5.12475e-11
5.57433e-11
6.00228e-11
6.40941e-11
6.79759e-11
7.16953e-11
7.52859e-11
7.87853e-11
8.22333e-11
8.56707e-11
8.91373e-11
9.26715e-11
9.63092e-11
1.00084e-10
1.04025e-10
1.0816e-10
1.12513e-10
1.17105e-10
1.21956e-10
1.27079e-10
1.3249e-10
1.38197e-10
1.4421e-10
1.50533e-10
1.57166e-10
1.64109e-10
1.71353e-10
1.78886e-10
1.8669e-10
1.94739e-10
2.02995e-10
2.11412e-10
2.19931e-10
2.28474e-10
2.36949e-10
2.45242e-10
2.53217e-10
2.60714e-10
2.67549e-10
2.7351e-10
2.78362e-10
2.81817e-10
2.83477e-10
2.8357e-10
2.81549e-10
2.77169e-10
2.70283e-10
2.60819e-10
2.48796e-10
2.34338e-10
2.17684e-10
1.99182e-10
1.79281e-10
1.58502e-10
1.37398e-10
1.16518e-10
9.63601e-11
7.73414e-11
5.97781e-11
4.38863e-11
2.98084e-11
1.76788e-11
7.76719e-12
9.04752e-13
5.70132e-13
5.00377e-12
1.13095e-11
1.87275e-11
2.6858e-11
3.54258e-11
4.42184e-11
5.30643e-11
6.18248e-11
7.03907e-11
7.86805e-11
8.66392e-11
9.42369e-11
1.01467e-10
1.08344e-10
1.149e-10
1.21182e-10
1.27245e-10
1.33155e-10
1.38979e-10
1.44786e-10
1.50645e-10
1.56619e-10
1.6277e-10
1.69154e-10
1.75821e-10
1.82819e-10
1.90187e-10
1.97962e-10
2.06175e-10
2.14853e-10
2.24017e-10
2.33685e-10
2.4387e-10
2.54581e-10
2.65818e-10
2.77578e-10
2.89847e-10
3.02604e-10
3.15817e-10
3.2944e-10
3.4341e-10
3.57647e-10
3.72049e-10
3.86486e-10
4.00799e-10
4.14796e-10
4.28247e-10
4.40883e-10
4.52392e-10
4.62421e-10
4.70576e-10
4.76365e-10
4.79089e-10
4.79232e-10
4.75786e-10
4.68352e-10
4.56683e-10
4.40658e-10
4.20307e-10
3.95837e-10
3.67648e-10
3.36333e-10
3.02653e-10
2.67491e-10
2.3179e-10
1.9648e-10
1.62408e-10
1.30281e-10
1.00631e-10
7.38188e-11
5.00798e-11
2.96383e-11
1.29585e-11
1.47266e-12
8.21426e-13
7.28143e-12
1.65146e-11
2.73957e-11
3.93283e-11
5.1904e-11
6.48084e-11
7.77887e-11
9.0641e-11
1.03204e-10
1.15359e-10
1.27025e-10
1.38158e-10
1.48749e-10
1.5882e-10
1.68419e-10
1.77615e-10
1.86492e-10
1.95145e-10
2.03674e-10
2.12182e-10
2.20767e-10
2.29525e-10
2.38546e-10
2.47913e-10
2.57699e-10
2.67973e-10
2.78793e-10
2.90214e-10
3.02279e-10
3.15029e-10
3.28494e-10
3.427e-10
3.57665e-10
3.734e-10
3.89905e-10
4.07173e-10
4.25184e-10
4.43902e-10
4.6328e-10
4.83246e-10
5.03708e-10
5.24546e-10
5.45607e-10
5.66702e-10
5.87597e-10
6.08012e-10
6.27613e-10
6.46009e-10
6.6275e-10
6.77326e-10
6.89172e-10
6.97549e-10
7.01428e-10
7.01626e-10
6.96567e-10
6.85674e-10
6.68591e-10
6.45131e-10
6.15328e-10
5.79475e-10
5.38152e-10
4.92226e-10
4.42816e-10
3.91227e-10
3.38854e-10
2.87074e-10
2.3714e-10
1.90092e-10
1.4671e-10
1.07517e-10
7.28491e-11
4.30292e-11
1.87461e-11
2.10906e-12
1.09781e-12
9.77761e-12
2.2231e-11
3.69338e-11
5.30687e-11
7.00769e-11
8.75292e-11
1.05082e-10
1.22456e-10
1.39435e-10
1.55856e-10
1.7161e-10
1.86639e-10
2.00931e-10
2.14517e-10
2.27463e-10
2.39865e-10
2.51836e-10
2.63507e-10
2.75014e-10
2.86496e-10
2.98088e-10
3.0992e-10
3.22113e-10
3.34777e-10
3.48015e-10
3.61916e-10
3.76562e-10
3.92021e-10
4.08356e-10
4.25616e-10
4.43844e-10
4.63072e-10
4.83323e-10
5.04607e-10
5.26924e-10
5.50258e-10
5.74579e-10
5.99837e-10
6.2596e-10
6.5285e-10
6.80379e-10
7.0838e-10
7.36648e-10
7.64927e-10
7.92904e-10
8.20208e-10
8.46394e-10
8.70948e-10
8.93275e-10
9.12704e-10
9.28494e-10
9.39636e-10
9.44743e-10
9.45029e-10
9.38262e-10
9.23663e-10
9.00745e-10
8.69241e-10
8.29169e-10
7.80901e-10
7.25203e-10
6.63239e-10
5.96524e-10
5.26835e-10
4.56079e-10
3.86142e-10
3.18738e-10
2.55286e-10
1.96842e-10
1.44104e-10
9.75135e-11
5.74971e-11
2.49825e-11
2.79733e-12
1.39617e-12
1.24669e-11
2.8396e-11
4.72336e-11
6.79224e-11
8.97371e-11
1.12122e-10
1.34632e-10
1.56909e-10
1.78671e-10
1.99708e-10
2.19883e-10
2.39119e-10
2.57404e-10
2.7478e-10
2.91333e-10
3.07187e-10
3.22492e-10
3.37416e-10
3.52135e-10
3.66829e-10
3.81671e-10
3.96828e-10
4.12455e-10
4.28694e-10
4.45675e-10
4.63512e-10
4.82306e-10
5.02147e-10
5.2311e-10
5.45259e-10
5.68642e-10
5.933e-10
6.19254e-10
6.46516e-10
6.75077e-10
7.04913e-10
7.35978e-10
7.68201e-10
8.01485e-10
8.35697e-10
8.70669e-10
9.06187e-10
9.41988e-10
9.77748e-10
1.01308e-09
1.04751e-09
1.0805e-09
1.11141e-09
1.13951e-09
1.16395e-09
1.18384e-09
1.19787e-09
1.20429e-09
1.20473e-09
1.19626e-09
1.17786e-09
1.14888e-09
1.10896e-09
1.05808e-09
9.96667e-10
9.25672e-10
8.46567e-10
7.61293e-10
6.72143e-10
5.81594e-10
4.92096e-10
4.05879e-10
3.24786e-10
2.5018e-10
1.82949e-10
1.23643e-10
7.27921e-11
3.15637e-11
3.52552e-12
1.7145e-12
1.53329e-11
3.49692e-11
5.82244e-11
8.3785e-11
1.10746e-10
1.38413e-10
1.6623e-10
1.93752e-10
2.20628e-10
2.46598e-10
2.71488e-10
2.95209e-10
3.17745e-10
3.39152e-10
3.59538e-10
3.7906e-10
3.97906e-10
4.16287e-10
4.34422e-10
4.52535e-10
4.7084e-10
4.89544e-10
5.08837e-10
5.28895e-10
5.49876e-10
5.71918e-10
5.95146e-10
6.19665e-10
6.45565e-10
6.72918e-10
7.01784e-10
7.322e-10
7.64191e-10
7.97759e-10
8.32887e-10
8.69536e-10
9.07637e-10
9.47097e-10
9.87784e-10
1.02953e-09
1.07213e-09
1.11531e-09
1.15876e-09
1.20208e-09
1.24482e-09
1.28643e-09
1.32625e-09
1.36355e-09
1.39745e-09
1.42696e-09
1.451e-09
1.46802e-09
1.47585e-09
1.47655e-09
1.46647e-09
1.44428e-09
1.40919e-09
1.36069e-09
1.29869e-09
1.22367e-09
1.13675e-09
1.03971e-09
9.34938e-10
8.25278e-10
7.13816e-10
6.03621e-10
4.97492e-10
3.9774e-10
3.06066e-10
2.23569e-10
1.50912e-10
8.87261e-11
3.84115e-11
4.28438e-12
2.05151e-12
1.83647e-11
4.19238e-11
6.9859e-11
1.00586e-10
1.33007e-10
1.6628e-10
1.9973e-10
2.32815e-10
2.6511e-10
2.96299e-10
3.26174e-10
3.54628e-10
3.81646e-10
4.07296e-10
4.31714e-10
4.55092e-10
4.77662e-10
4.99678e-10
5.21408e-10
5.43121e-10
5.65077e-10
5.87523e-10
6.10687e-10
6.34778e-10
6.59982e-10
6.86463e-10
7.14366e-10
7.43812e-10
7.74903e-10
8.07719e-10
8.42321e-10
8.78747e-10
9.17014e-10
9.57115e-10
9.99016e-10
1.04266e-09
1.08795e-09
1.13476e-09
1.18292e-09
1.23224e-09
1.28246e-09
1.33326e-09
1.38427e-09
1.43506e-09
1.48509e-09
1.53373e-09
1.58027e-09
1.62385e-09
1.66348e-09
1.69802e-09
1.72622e-09
1.74629e-09
1.75564e-09
1.75668e-09
1.74512e-09
1.71925e-09
1.6781e-09
1.621e-09
1.54777e-09
1.45892e-09
1.35572e-09
1.24026e-09
1.11538e-09
9.8448e-10
8.51296e-10
7.19552e-10
5.92657e-10
4.73435e-10
3.63965e-10
2.65579e-10
1.79063e-10
1.05152e-10
4.54644e-11
5.06676e-12
2.40633e-12
2.1555e-11
4.92421e-11
8.21056e-11
1.18277e-10
1.56456e-10
1.95641e-10
2.35029e-10
2.73975e-10
3.11973e-10
3.48649e-10
3.83756e-10
4.1717e-10
4.48875e-10
4.78957e-10
5.07583e-10
5.34982e-10
5.61433e-10
5.87239e-10
6.12719e-10
6.3819e-10
6.6396e-10
6.90316e-10
7.17527e-10
7.45834e-10
7.75451e-10
8.06566e-10
8.39343e-10
8.73915e-10
9.10394e-10
9.48864e-10
9.89383e-10
1.03198e-09
1.07667e-09
1.12343e-09
1.17219e-09
1.22287e-09
1.27536e-09
1.32948e-09
1.38505e-09
1.44181e-09
1.49948e-09
1.55769e-09
1.61604e-09
1.67403e-09
1.73109e-09
1.78653e-09
1.83955e-09
1.88922e-09
1.93442e-09
1.9739e-09
2.00619e-09
2.02934e-09
2.04025e-09
2.04173e-09
2.0288e-09
1.99936e-09
1.95225e-09
1.88662e-09
1.8022e-09
1.6995e-09
1.57992e-09
1.44586e-09
1.30059e-09
1.14806e-09
9.92671e-10
8.38816e-10
6.90554e-10
5.51259e-10
4.2343e-10
3.08666e-10
2.07893e-10
1.21953e-10
5.26729e-11
5.86702e-12
2.77837e-12
2.48988e-11
5.69124e-11
9.49429e-11
1.36826e-10
1.81047e-10
2.26437e-10
2.72056e-10
3.17146e-10
3.61116e-10
4.03527e-10
4.44095e-10
4.82674e-10
5.19253e-10
5.53935e-10
5.8692e-10
6.18482e-10
6.48949e-10
6.78677e-10
7.08039e-10
7.37402e-10
7.67122e-10
7.97531e-10
8.28935e-10
8.61608e-10
8.95791e-10
9.31695e-10
9.69497e-10
1.00934e-09
1.05135e-09
1.09559e-09
1.14214e-09
1.19099e-09
1.24215e-09
1.29557e-09
1.35117e-09
1.40883e-09
1.46839e-09
1.52967e-09
1.59242e-09
1.65637e-09
1.72119e-09
1.78649e-09
1.85182e-09
1.91667e-09
1.98041e-09
2.04232e-09
2.10153e-09
2.15703e-09
2.2076e-09
2.25185e-09
2.28813e-09
2.31428e-09
2.32675e-09
2.32868e-09
2.31444e-09
2.2815e-09
2.22852e-09
2.15449e-09
2.05903e-09
1.94264e-09
1.80684e-09
1.65428e-09
1.48865e-09
1.31444e-09
1.13668e-09
9.6044e-10
7.90455e-10
6.30685e-10
4.84089e-10
3.52574e-10
2.37237e-10
1.39035e-10
5.99973e-11
6.68063e-12
3.16726e-12
2.8393e-11
6.4927e-11
1.08358e-10
1.56212e-10
2.06752e-10
2.58629e-10
3.10759e-10
3.62265e-10
4.12462e-10
4.60844e-10
5.07082e-10
5.51014e-10
5.92632e-10
6.3206e-10
6.69536e-10
7.05381e-10
7.39976e-10
7.73735e-10
8.07085e-10
8.40449e-10
8.74231e-10
9.08807e-10
9.4452e-10
9.81676e-10
1.02054e-09
1.06134e-09
1.10428e-09
1.14949e-09
1.19709e-09
1.24717e-09
1.29977e-09
1.35488e-09
1.41247e-09
1.47248e-09
1.53479e-09
1.59924e-09
1.66566e-09
1.73382e-09
1.80344e-09
1.87422e-09
1.94581e-09
2.0178e-09
2.08971e-09
2.16101e-09
2.23105e-09
2.29906e-09
2.36414e-09
2.42518e-09
2.48088e-09
2.52968e-09
2.56978e-09
2.59876e-09
2.61266e-09
2.61499e-09
2.59939e-09
2.56294e-09
2.50416e-09
2.42188e-09
2.31561e-09
2.18582e-09
2.03415e-09
1.86346e-09
1.6778e-09
1.48216e-09
1.28216e-09
1.08355e-09
8.91724e-10
7.11261e-10
5.4563e-10
3.97096e-10
2.66961e-10
1.56323e-10
6.74057e-11
7.50397e-12
3.57278e-12
3.20359e-11
7.32817e-11
1.22341e-10
1.76421e-10
2.3355e-10
2.92192e-10
3.51106e-10
4.09289e-10
4.65955e-10
5.20528e-10
5.72632e-10
6.22086e-10
6.68888e-10
7.13187e-10
7.55263e-10
7.95488e-10
8.343e-10
8.72174e-10
9.09597e-10
9.47045e-10
9.84973e-10
1.0238e-09
1.06391e-09
1.10563e-09
1.14925e-09
1.19502e-09
1.24314e-09
1.29376e-09
1.34699e-09
1.40289e-09
1.4615e-09
1.52279e-09
1.5867e-09
1.65312e-09
1.72193e-09
1.79293e-09
1.8659e-09
1.94059e-09
2.01671e-09
2.09392e-09
2.17185e-09
2.2501e-09
2.32817e-09
2.40551e-09
2.48146e-09
2.55523e-09
2.62584e-09
2.69213e-09
2.75267e-09
2.80576e-09
2.8494e-09
2.88092e-09
2.89603e-09
2.89859e-09
2.88145e-09
2.84141e-09
2.77684e-09
2.68645e-09
2.56965e-09
2.42689e-09
2.25986e-09
2.07163e-09
1.86652e-09
1.64998e-09
1.42815e-09
1.20741e-09
9.93823e-10
7.92615e-10
6.07803e-10
4.42066e-10
2.96964e-10
1.73759e-10
7.4873e-11
8.33422e-12
3.9948e-12
3.58264e-11
8.19741e-11
1.3689e-10
1.97447e-10
2.61431e-10
3.27108e-10
3.93073e-10
4.58186e-10
5.21554e-10
5.82524e-10
6.40671e-10
6.95799e-10
7.47909e-10
7.97184e-10
8.43945e-10
8.88623e-10
9.31718e-10
9.73769e-10
1.01532e-09
1.05691e-09
1.09904e-09
1.14218e-09
1.18673e-09
1.23307e-09
1.28149e-09
1.33226e-09
1.38557e-09
1.44158e-09
1.50039e-09
1.56206e-09
1.62657e-09
1.6939e-09
1.76394e-09
1.83657e-09
1.91161e-09
1.98884e-09
2.06802e-09
2.14886e-09
2.23107e-09
2.31429e-09
2.39815e-09
2.48224e-09
2.56607e-09
2.64908e-09
2.7306e-09
2.80979e-09
2.88563e-09
2.95685e-09
3.02192e-09
3.07897e-09
3.12583e-09
3.15945e-09
3.17541e-09
3.17796e-09
3.15896e-09
3.11516e-09
3.04477e-09
2.94639e-09
2.81937e-09
2.66412e-09
2.48239e-09
2.27736e-09
2.05359e-09
1.81688e-09
1.57383e-09
1.33141e-09
1.09632e-09
8.7445e-10
6.70413e-10
4.87361e-10
3.27168e-10
1.91299e-10
8.23802e-11
9.16922e-12
4.43329e-12
3.97643e-11
9.10034e-11
1.52002e-10
2.19287e-10
2.9039e-10
3.63369e-10
4.36645e-10
5.08933e-10
5.79225e-10
6.46783e-10
7.11137e-10
7.72068e-10
8.29592e-10
8.83922e-10
9.35432e-10
9.84613e-10
1.03203e-09
1.0783e-09
1.12401e-09
1.16978e-09
1.21614e-09
1.26361e-09
1.31264e-09
1.3636e-09
1.41682e-09
1.47257e-09
1.53105e-09
1.5924e-09
1.65672e-09
1.72402e-09
1.7943e-09
1.86747e-09
1.94342e-09
2.02198e-09
2.10295e-09
2.18608e-09
2.2711e-09
2.35772e-09
2.44563e-09
2.53448e-09
2.6239e-09
2.71347e-09
2.80273e-09
2.8911e-09
2.97788e-09
3.0622e-09
3.14297e-09
3.21883e-09
3.28808e-09
3.34873e-09
3.3984e-09
3.43359e-09
3.44994e-09
3.45217e-09
3.43087e-09
3.38304e-09
3.30673e-09
3.20047e-09
3.06353e-09
2.89633e-09
2.70061e-09
2.47962e-09
2.2381e-09
1.98209e-09
1.7186e-09
1.45509e-09
1.19889e-09
9.5655e-10
7.33321e-10
5.32894e-10
3.57521e-10
2.08912e-10
8.99138e-11
1.00075e-11
4.88826e-12
4.38497e-11
1.0037e-10
1.67677e-10
2.4194e-10
3.20424e-10
4.0097e-10
4.81813e-10
5.61512e-10
6.38937e-10
7.13263e-10
7.83966e-10
8.50813e-10
9.13832e-10
9.73276e-10
1.02957e-09
1.08328e-09
1.13504e-09
1.18553e-09
1.23542e-09
1.28537e-09
1.33597e-09
1.38778e-09
1.44126e-09
1.49683e-09
1.55483e-09
1.61552e-09
1.6791e-09
1.7457e-09
1.8154e-09
1.8882e-09
1.96405e-09
2.04285e-09
2.12446e-09
2.20867e-09
2.29525e-09
2.38395e-09
2.47448e-09
2.56653e-09
2.6598e-09
2.75396e-09
2.84863e-09
2.94342e-09
3.03785e-09
3.13135e-09
3.22317e-09
3.3124e-09
3.39784e-09
3.47801e-09
3.5511e-09
3.61493e-09
3.66696e-09
3.70311e-09
3.71935e-09
3.72084e-09
3.69676e-09
3.64458e-09
3.56221e-09
3.4481e-09
3.30153e-09
3.12287e-09
2.91387e-09
2.67779e-09
2.41946e-09
2.1451e-09
1.86203e-09
1.57813e-09
1.30131e-09
1.03877e-09
7.9644e-10
5.78615e-10
3.87992e-10
2.26581e-10
9.74653e-11
1.08479e-11
5.35976e-12
4.80831e-11
1.10075e-10
1.83918e-10
2.65407e-10
3.51534e-10
4.39909e-10
5.28569e-10
6.15908e-10
7.00664e-10
7.81919e-10
8.59098e-10
9.31951e-10
1.00052e-09
1.06511e-09
1.12621e-09
1.18445e-09
1.24055e-09
1.29525e-09
1.3493e-09
1.40341e-09
1.45823e-09
1.51435e-09
1.57226e-09
1.63241e-09
1.69512e-09
1.76068e-09
1.82927e-09
1.901e-09
1.97594e-09
2.05406e-09
2.13528e-09
2.21949e-09
2.3065e-09
2.39608e-09
2.488e-09
2.58197e-09
2.67771e-09
2.77492e-09
2.8733e-09
2.97253e-09
3.07226e-09
3.17209e-09
3.27154e-09
3.37002e-09
3.46674e-09
3.5607e-09
3.65059e-09
3.73481e-09
3.81137e-09
3.87794e-09
3.93184e-09
3.96835e-09
3.98401e-09
3.98423e-09
3.95683e-09
3.89993e-09
3.8113e-09
3.68934e-09
3.53335e-09
3.34366e-09
3.122e-09
2.87164e-09
2.59742e-09
2.30567e-09
2.0039e-09
1.70036e-09
1.40345e-09
1.12102e-09
8.59725e-10
6.24501e-10
4.18569e-10
2.44298e-10
1.05031e-10
1.16902e-11
5.84786e-12
5.24652e-11
1.2012e-10
2.00725e-10
2.89692e-10
3.83721e-10
4.80184e-10
5.76906e-10
6.72105e-10
7.64377e-10
8.52709e-10
9.36468e-10
1.01539e-09
1.08956e-09
1.1593e-09
1.22519e-09
1.28794e-09
1.34834e-09
1.40722e-09
1.46539e-09
1.52363e-09
1.58263e-09
1.64301e-09
1.70531e-09
1.76997e-09
1.83733e-09
1.90766e-09
1.98114e-09
2.05787e-09
2.13789e-09
2.22116e-09
2.30756e-09
2.39695e-09
2.48913e-09
2.58385e-09
2.68086e-09
2.77988e-09
2.88062e-09
2.9828e-09
3.08613e-09
3.19031e-09
3.295e-09
3.39982e-09
3.50426e-09
3.60768e-09
3.70923e-09
3.8078e-09
3.90198e-09
3.98998e-09
4.06969e-09
4.13858e-09
4.19382e-09
4.2301e-09
4.24499e-09
4.24312e-09
4.21195e-09
4.14991e-09
4.05478e-09
3.92488e-09
3.75954e-09
3.55912e-09
3.32531e-09
3.06134e-09
2.77205e-09
2.46377e-09
2.14415e-09
1.82169e-09
1.50526e-09
1.2033e-09
9.23175e-10
6.70559e-10
4.4926e-10
2.62065e-10
1.1261e-10
1.25342e-11
6.35264e-12
5.69965e-11
1.30506e-10
2.18102e-10
3.14796e-10
4.16988e-10
5.21794e-10
6.26817e-10
7.30085e-10
8.30046e-10
9.25581e-10
1.01601e-09
1.10105e-09
1.18081e-09
1.2557e-09
1.32635e-09
1.39355e-09
1.45821e-09
1.52121e-09
1.58345e-09
1.64576e-09
1.70888e-09
1.77348e-09
1.84009e-09
1.90918e-09
1.9811e-09
2.0561e-09
2.13436e-09
2.21597e-09
2.30092e-09
2.38916e-09
2.48056e-09
2.57495e-09
2.6721e-09
2.77178e-09
2.87371e-09
2.97762e-09
3.08325e-09
3.19031e-09
3.29856e-09
3.40769e-09
3.51739e-09
3.62725e-09
3.73674e-09
3.84516e-09
3.95156e-09
4.05472e-09
4.15307e-09
4.24468e-09
4.32724e-09
4.39808e-09
4.45421e-09
4.48973e-09
4.50362e-09
4.49894e-09
4.46354e-09
4.39596e-09
4.29401e-09
4.15596e-09
3.98124e-09
3.7702e-09
3.52452e-09
3.24742e-09
2.94367e-09
2.61959e-09
2.28286e-09
1.94219e-09
1.60676e-09
1.28561e-09
9.86819e-10
7.16818e-10
4.80084e-10
2.79894e-10
1.20206e-10
1.33803e-11
6.87418e-12
6.16779e-11
1.41235e-10
2.36051e-10
3.40722e-10
4.51335e-10
5.64737e-10
6.78293e-10
7.89829e-10
8.97634e-10
1.00048e-09
1.09763e-09
1.18881e-09
1.27416e-09
1.35415e-09
1.4295e-09
1.5011e-09
1.56993e-09
1.63699e-09
1.70323e-09
1.76954e-09
1.83672e-09
1.90545e-09
1.97631e-09
2.04975e-09
2.12614e-09
2.20572e-09
2.28865e-09
2.375e-09
2.46475e-09
2.55783e-09
2.65409e-09
2.75333e-09
2.85534e-09
2.95986e-09
3.06662e-09
3.17539e-09
3.28589e-09
3.39788e-09
3.51113e-09
3.62534e-09
3.7402e-09
3.85528e-09
3.97e-09
4.08357e-09
4.19494e-09
4.30274e-09
4.40524e-09
4.50033e-09
4.58554e-09
4.65803e-09
4.71469e-09
4.74904e-09
4.76168e-09
4.75363e-09
4.71355e-09
4.64001e-09
4.53085e-09
4.38436e-09
4.20003e-09
3.97826e-09
3.72075e-09
3.43071e-09
3.11287e-09
2.7735e-09
2.42027e-09
2.06195e-09
1.70803e-09
1.36802e-09
1.05071e-09
7.63323e-10
5.11075e-10
2.978e-10
1.27825e-10
1.42291e-11
7.41253e-12
6.65099e-11
1.52308e-10
2.54574e-10
3.67472e-10
4.86762e-10
6.09008e-10
7.31322e-10
8.51312e-10
9.671e-10
1.07735e-09
1.18127e-09
1.27858e-09
1.36947e-09
1.45449e-09
1.53446e-09
1.61037e-09
1.6833e-09
1.75433e-09
1.82449e-09
1.89473e-09
1.96589e-09
2.03869e-09
2.11371e-09
2.19144e-09
2.27221e-09
2.35628e-09
2.44378e-09
2.53478e-09
2.62923e-09
2.72705e-09
2.82807e-09
2.9321e-09
3.03891e-09
3.14825e-09
3.25987e-09
3.37355e-09
3.48904e-09
3.60613e-09
3.72458e-09
3.84413e-09
3.96444e-09
4.08503e-09
4.20525e-09
4.32423e-09
4.44076e-09
4.55334e-09
4.66005e-09
4.75861e-09
4.84637e-09
4.92035e-09
4.97728e-09
5.01018e-09
5.02136e-09
5.0095e-09
4.96435e-09
4.88442e-09
4.76763e-09
4.61226e-09
4.4179e-09
4.18503e-09
3.91544e-09
3.61234e-09
3.28047e-09
2.92606e-09
2.5567e-09
2.18119e-09
1.80919e-09
1.45061e-09
1.11491e-09
8.10129e-10
5.4227e-10
3.15806e-10
1.35475e-10
1.50814e-11
7.96776e-12
7.14929e-11
1.63727e-10
2.73671e-10
3.95046e-10
5.23268e-10
6.54601e-10
7.85887e-10
9.14504e-10
1.0384e-09
1.15611e-09
1.26681e-09
1.37022e-09
1.4666e-09
1.55657e-09
1.64106e-09
1.72118e-09
1.7981e-09
1.873e-09
1.94699e-09
2.02108e-09
2.09615e-09
2.17295e-09
2.25208e-09
2.33402e-09
2.41911e-09
2.50761e-09
2.59962e-09
2.69521e-09
2.79431e-09
2.89683e-09
3.0026e-09
3.11141e-09
3.22306e-09
3.33729e-09
3.4539e-09
3.57267e-09
3.69338e-09
3.81585e-09
3.93985e-09
4.06511e-09
4.19125e-09
4.31775e-09
4.44386e-09
4.56859e-09
4.69059e-09
4.80817e-09
4.91926e-09
5.02139e-09
5.11173e-09
5.18714e-09
5.24424e-09
5.27553e-09
5.28512e-09
5.26915e-09
5.21861e-09
5.13189e-09
5.00697e-09
4.84217e-09
4.63716e-09
4.39258e-09
4.11031e-09
3.79369e-09
3.4475e-09
3.07795e-09
2.69259e-09
2.30016e-09
1.91037e-09
1.53348e-09
1.17951e-09
8.57295e-10
5.73713e-10
3.33936e-10
1.43165e-10
1.59382e-11
8.53989e-12
7.66273e-11
1.75491e-10
2.93343e-10
4.23444e-10
5.60848e-10
7.01504e-10
8.41966e-10
9.79367e-10
1.11146e-09
1.23669e-09
1.35415e-09
1.46362e-09
1.56538e-09
1.66019e-09
1.74909e-09
1.8333e-09
1.91411e-09
1.99278e-09
2.07052e-09
2.14839e-09
2.22731e-09
2.30805e-09
2.39123e-09
2.47734e-09
2.56673e-09
2.65962e-09
2.75612e-09
2.85628e-09
2.96005e-09
3.06729e-09
3.17786e-09
3.29156e-09
3.40817e-09
3.5275e-09
3.64933e-09
3.77348e-09
3.89978e-09
4.02803e-09
4.15803e-09
4.28947e-09
4.42194e-09
4.55483e-09
4.68731e-09
4.81821e-09
4.94607e-09
5.06899e-09
5.18473e-09
5.29064e-09
5.38373e-09
5.46068e-09
5.51793e-09
5.54764e-09
5.5556e-09
5.53537e-09
5.47918e-09
5.3853e-09
5.25172e-09
5.07683e-09
4.86038e-09
4.60319e-09
4.30733e-09
3.97634e-09
3.61515e-09
3.23002e-09
2.82847e-09
2.41915e-09
2.01176e-09
1.61673e-09
1.24456e-09
9.04881e-10
6.05447e-10
3.52213e-10
1.50903e-10
1.68005e-11
9.12894e-12
8.1913e-11
1.876e-10
3.1359e-10
4.52662e-10
5.99496e-10
7.49704e-10
8.99534e-10
1.04586e-09
1.18624e-09
1.31899e-09
1.44319e-09
1.55862e-09
1.66567e-09
1.76519e-09
1.85836e-09
1.94654e-09
2.03112e-09
2.11348e-09
2.19488e-09
2.27646e-09
2.35918e-09
2.44383e-09
2.53105e-09
2.62132e-09
2.715e-09
2.8123e-09
2.91333e-09
3.01812e-09
3.12661e-09
3.23869e-09
3.3542e-09
3.47297e-09
3.5948e-09
3.7195e-09
3.84691e-09
3.97686e-09
4.1092e-09
4.24375e-09
4.38029e-09
4.51849e-09
4.65787e-09
4.79773e-09
4.93712e-09
5.07472e-09
5.2089e-09
5.33759e-09
5.45836e-09
5.56839e-09
5.66453e-09
5.74333e-09
5.80077e-09
5.82912e-09
5.83551e-09
5.811e-09
5.74899e-09
5.64763e-09
5.50485e-09
5.31911e-09
5.09027e-09
4.81933e-09
4.50866e-09
4.16208e-09
3.78479e-09
3.38324e-09
2.96496e-09
2.53853e-09
2.11354e-09
1.70045e-09
1.31014e-09
9.52939e-10
6.37513e-10
3.70663e-10
1.587e-10
1.76692e-11
9.73489e-12
8.73499e-11
2.00054e-10
3.34409e-10
4.82698e-10
6.39203e-10
7.99182e-10
9.58558e-10
1.11393e-09
1.26265e-09
1.40292e-09
1.53379e-09
1.65508e-09
1.76728e-09
1.87137e-09
1.96868e-09
2.06069e-09
2.14894e-09
2.23489e-09
2.31989e-09
2.40514e-09
2.49163e-09
2.58019e-09
2.67146e-09
2.76593e-09
2.86394e-09
2.96572e-09
3.07137e-09
3.18091e-09
3.29429e-09
3.41139e-09
3.53209e-09
3.65621e-09
3.78359e-09
3.91407e-09
4.04751e-09
4.18378e-09
4.32273e-09
4.46419e-09
4.60791e-09
4.75352e-09
4.90046e-09
5.04794e-09
5.19484e-09
5.33973e-09
5.48078e-09
5.61575e-09
5.74203e-09
5.85664e-09
5.95628e-09
6.03736e-09
6.09513e-09
6.12251e-09
6.12748e-09
6.09879e-09
6.03091e-09
5.92178e-09
5.76929e-09
5.5719e-09
5.32958e-09
5.04358e-09
4.71659e-09
4.35284e-09
3.95795e-09
3.53871e-09
3.10279e-09
2.65871e-09
2.2159e-09
1.78474e-09
1.37629e-09
1.00151e-09
6.69942e-10
3.89305e-10
1.66562e-10
1.85453e-11
1.03577e-11
9.29376e-11
2.12852e-10
3.55798e-10
5.13543e-10
6.79955e-10
8.49914e-10
1.019e-09
1.18351e-09
1.34061e-09
1.48837e-09
1.62581e-09
1.75284e-09
1.87004e-09
1.97855e-09
2.07985e-09
2.17557e-09
2.26738e-09
2.35685e-09
2.44541e-09
2.5343e-09
2.62458e-09
2.71707e-09
2.81245e-09
2.9112e-09
3.01366e-09
3.12005e-09
3.23048e-09
3.34497e-09
3.46347e-09
3.58589e-09
3.71209e-09
3.84195e-09
3.97533e-09
4.11209e-09
4.25212e-09
4.39531e-09
4.54152e-09
4.69058e-09
4.84218e-09
4.99592e-09
5.15113e-09
5.30691e-09
5.46201e-09
5.61482e-09
5.76335e-09
5.90518e-09
6.03754e-09
6.15728e-09
6.26093e-09
6.34479e-09
6.40336e-09
6.4302e-09
6.43396e-09
6.40133e-09
6.32762e-09
6.21053e-09
6.04785e-09
5.83801e-09
5.58108e-09
5.27854e-09
4.93347e-09
4.55065e-09
4.13627e-09
3.69764e-09
3.24275e-09
2.78016e-09
2.31909e-09
1.86969e-09
1.44307e-09
1.05062e-09
7.0276e-10
4.08154e-10
1.74496e-10
1.94293e-11
1.09972e-11
9.86751e-11
2.25991e-10
3.77753e-10
5.45189e-10
7.21736e-10
9.01873e-10
1.08081e-09
1.25455e-09
1.42002e-09
1.57521e-09
1.71912e-09
1.85173e-09
1.97377e-09
2.08654e-09
2.19168e-09
2.29099e-09
2.38627e-09
2.4792e-09
2.5713e-09
2.66387e-09
2.75797e-09
2.85449e-09
2.95408e-09
3.05725e-09
3.16433e-09
3.27554e-09
3.39099e-09
3.51071e-09
3.63465e-09
3.76275e-09
3.8949e-09
4.03098e-09
4.17089e-09
4.31452e-09
4.46179e-09
4.61259e-09
4.76678e-09
4.92417e-09
5.08443e-09
5.24704e-09
5.41128e-09
5.57608e-09
5.74008e-09
5.90149e-09
6.05815e-09
6.20748e-09
6.34654e-09
6.47201e-09
6.58028e-09
6.66749e-09
6.7275e-09
6.75432e-09
6.75713e-09
6.72092e-09
6.64152e-09
6.51639e-09
6.34312e-09
6.12008e-09
5.84739e-09
5.52675e-09
5.1617e-09
4.75763e-09
4.32152e-09
3.86139e-09
3.38577e-09
2.90341e-09
2.42335e-09
1.9554e-09
1.51048e-09
1.10029e-09
7.35979e-10
4.27221e-10
1.82506e-10
2.03217e-11
1.16534e-11
1.04561e-10
2.39469e-10
4.00267e-10
5.77627e-10
7.64526e-10
9.55023e-10
1.14394e-09
1.32696e-09
1.50079e-09
1.66332e-09
1.81356e-09
1.95158e-09
2.07828e-09
2.19514e-09
2.30398e-09
2.40678e-09
2.50547e-09
2.60184e-09
2.6975e-09
2.79379e-09
2.89183e-09
2.9925e-09
3.09648e-09
3.20426e-09
3.3162e-09
3.43251e-09
3.55331e-09
3.67862e-09
3.80843e-09
3.94268e-09
4.08128e-09
4.22416e-09
4.37122e-09
4.52239e-09
4.67761e-09
4.83677e-09
4.99973e-09
5.16624e-09
5.33593e-09
5.50821e-09
5.68222e-09
5.8568e-09
6.0304e-09
6.2011e-09
6.36657e-09
6.52406e-09
6.67047e-09
6.80232e-09
6.91586e-09
7.00705e-09
7.06926e-09
7.09662e-09
7.09882e-09
7.05948e-09
6.97465e-09
6.84149e-09
6.65735e-09
6.42047e-09
6.13094e-09
5.79065e-09
5.40361e-09
4.97594e-09
4.51554e-09
4.0314e-09
3.53287e-09
3.02907e-09
2.52898e-09
2.04196e-09
1.57856e-09
1.1505e-09
7.69598e-10
4.46508e-10
1.90592e-10
2.12225e-11
1.23261e-11
1.10595e-10
2.53282e-10
4.23333e-10
6.10841e-10
8.08302e-10
1.00933e-09
1.20833e-09
1.40065e-09
1.5828e-09
1.75255e-09
1.90896e-09
2.05221e-09
2.18339e-09
2.30417e-09
2.41659e-09
2.52279e-09
2.62484e-09
2.72467e-09
2.82395e-09
2.92407e-09
3.02619e-09
3.13121e-09
3.23982e-09
3.35251e-09
3.46963e-09
3.5914e-09
3.71794e-09
3.84931e-09
3.98548e-09
4.12643e-09
4.2721e-09
4.42242e-09
4.57733e-09
4.73679e-09
4.90073e-09
5.06904e-09
5.24157e-09
5.41802e-09
5.59795e-09
5.78067e-09
5.96522e-09
6.15029e-09
6.33421e-09
6.51488e-09
6.68981e-09
6.85612e-09
7.01052e-09
7.14942e-09
7.26888e-09
7.3647e-09
7.42991e-09
7.45843e-09
7.4604e-09
7.41846e-09
7.32856e-09
7.18752e-09
6.99239e-09
6.74116e-09
6.43384e-09
6.07245e-09
5.66143e-09
5.20769e-09
4.7202e-09
4.20922e-09
3.68516e-09
3.15785e-09
2.63632e-09
2.12948e-09
1.64728e-09
1.20123e-09
8.03604e-10
4.6601e-10
1.98752e-10
2.21315e-11
1.30152e-11
1.16775e-10
2.67426e-10
4.46942e-10
6.44816e-10
8.53035e-10
1.06474e-09
1.2739e-09
1.47554e-09
1.66592e-09
1.84275e-09
2.00515e-09
2.15344e-09
2.28891e-09
2.41346e-09
2.52934e-09
2.63887e-09
2.7443e-09
2.84764e-09
2.95065e-09
3.05477e-09
3.16119e-09
3.27083e-09
3.38436e-09
3.50231e-09
3.62501e-09
3.75269e-09
3.88548e-09
4.02344e-09
4.16657e-09
4.31486e-09
4.46826e-09
4.62675e-09
4.79029e-09
4.95882e-09
5.13229e-09
5.31059e-09
5.49351e-09
5.6807e-09
5.87166e-09
6.06558e-09
6.2614e-09
6.45767e-09
6.65256e-09
6.84384e-09
7.02887e-09
7.20461e-09
7.36763e-09
7.51419e-09
7.64019e-09
7.74128e-09
7.8103e-09
7.84064e-09
7.84276e-09
7.7988e-09
7.70428e-09
7.55565e-09
7.34957e-09
7.08369e-09
6.75783e-09
6.37405e-09
5.93716e-09
5.45488e-09
4.9374e-09
4.39643e-09
3.84385e-09
3.29053e-09
2.74578e-09
2.2181e-09
1.71666e-09
1.25245e-09
8.37966e-10
4.85713e-10
2.06981e-10
2.3048e-11
1.37203e-11
1.23098e-10
2.81896e-10
4.71086e-10
6.79534e-10
8.98695e-10
1.12121e-09
1.34059e-09
1.55151e-09
1.75002e-09
1.93377e-09
2.10195e-09
2.25508e-09
2.39465e-09
2.52282e-09
2.64208e-09
2.75493e-09
2.86377e-09
2.97073e-09
3.07764e-09
3.18599e-09
3.297e-09
3.41158e-09
3.53044e-09
3.65408e-09
3.78285e-09
3.91697e-09
4.05658e-09
4.20176e-09
4.35251e-09
4.50885e-09
4.67076e-09
4.8382e-09
5.01116e-09
5.1896e-09
5.37345e-09
5.56256e-09
5.75668e-09
5.95542e-09
6.15816e-09
6.36401e-09
6.57177e-09
6.77987e-09
6.98634e-09
7.18881e-09
7.38449e-09
7.57021e-09
7.7424e-09
7.89716e-09
8.03027e-09
8.13721e-09
8.21079e-09
8.24358e-09
8.24626e-09
8.20089e-09
8.1023e-09
7.94648e-09
7.72967e-09
7.44908e-09
7.10419e-09
6.69698e-09
6.23254e-09
5.71936e-09
5.16893e-09
4.59466e-09
4.01024e-09
3.42797e-09
2.85782e-09
2.30797e-09
1.78667e-09
1.30409e-09
8.72643e-10
5.05594e-10
2.15268e-10
2.39709e-11
1.44412e-11
1.29562e-10
2.96685e-10
4.9575e-10
7.14972e-10
9.45243e-10
1.17867e-09
1.40831e-09
1.62845e-09
1.83496e-09
2.02544e-09
2.19919e-09
2.35693e-09
2.50043e-09
2.63211e-09
2.75468e-09
2.87087e-09
2.98321e-09
3.09396e-09
3.205e-09
3.31789e-09
3.43384e-09
3.55379e-09
3.67844e-09
3.8083e-09
3.9437e-09
4.08488e-09
4.23198e-09
4.38508e-09
4.54421e-09
4.70938e-09
4.88059e-09
5.05783e-09
5.24107e-09
5.43026e-09
5.62532e-09
5.82607e-09
6.0322e-09
6.24322e-09
6.45845e-09
6.67688e-09
6.89719e-09
7.11768e-09
7.33625e-09
7.55039e-09
7.75719e-09
7.95333e-09
8.13512e-09
8.29854e-09
8.43922e-09
8.55247e-09
8.63128e-09
8.66711e-09
8.67074e-09
8.62457e-09
8.52249e-09
8.36002e-09
8.13288e-09
7.83775e-09
7.47364e-09
7.04229e-09
6.54893e-09
6.00272e-09
5.41647e-09
4.80549e-09
4.18564e-09
3.57112e-09
2.97297e-09
2.3993e-09
1.85733e-09
1.35609e-09
9.07574e-10
5.2562e-10
2.23601e-10
2.48988e-11
1.51777e-11
1.36165e-10
3.11786e-10
5.20923e-10
7.51107e-10
9.9264e-10
1.23707e-09
1.47697e-09
1.70625e-09
1.92058e-09
2.11758e-09
2.29667e-09
2.45882e-09
2.60609e-09
2.74117e-09
2.86704e-09
2.98663e-09
3.10263e-09
3.21739e-09
3.33288e-09
3.45067e-09
3.572e-09
3.69782e-09
3.82882e-09
3.96549e-09
4.10818e-09
4.25712e-09
4.41246e-09
4.57426e-09
4.74258e-09
4.91743e-09
5.09881e-09
5.2867e-09
5.48109e-09
5.68189e-09
5.889e-09
6.10219e-09
6.32107e-09
6.54508e-09
6.77342e-09
7.005e-09
7.23837e-09
7.47171e-09
7.70278e-09
7.92895e-09
8.14719e-09
8.35407e-09
8.54578e-09
8.71816e-09
8.86673e-09
8.98665e-09
9.07119e-09
9.11058e-09
9.11553e-09
9.06912e-09
8.96415e-09
8.79565e-09
8.55876e-09
8.24951e-09
7.86632e-09
7.4105e-09
6.88723e-09
6.30621e-09
5.6815e-09
5.03045e-09
4.3714e-09
3.72099e-09