/*--------------------------------*- C++ -*----------------------------------*\
  =========                 |
  \\      /  F ield         | OpenFOAM: The Open Source CFD Toolbox
   \\    /   O peration     | Website:  https://openfoam.org
    \\  /    A nd           | Version:  12
     \\/     M anipulation  |
\*---------------------------------------------------------------------------*/
FoamFile
{
    format      ascii;
    class       volScalarField;
    location    "8.5";
    object      k;
}
// * * * * * * * * * * * * * * * * * * * * * * * * * * * * * * * * * * * * * //

dimensions      [0 2 -2 0 0 0 0];

internalField   nonuniform List<scalar> 
18225
(
7.78718e-13
5.88407e-12
1.24869e-11
2.03949e-11
2.93441e-11
3.91417e-11
4.9655e-11
6.07882e-11
7.24688e-11
8.46386e-11
9.72494e-11
1.1026e-10
1.23633e-10
1.37336e-10
1.51339e-10
1.65616e-10
1.80139e-10
1.94885e-10
2.09831e-10
2.24954e-10
2.40234e-10
2.55649e-10
2.7118e-10
2.86807e-10
3.02511e-10
3.18273e-10
3.34074e-10
3.49897e-10
3.65723e-10
3.81534e-10
3.97313e-10
4.13042e-10
4.28704e-10
4.44281e-10
4.59757e-10
4.75114e-10
4.90336e-10
5.05407e-10
5.20309e-10
5.35026e-10
5.49542e-10
5.63841e-10
5.77907e-10
5.91725e-10
6.05278e-10
6.18552e-10
6.31531e-10
6.442e-10
6.56545e-10
6.6855e-10
6.80201e-10
6.91484e-10
7.02385e-10
7.1289e-10
7.22986e-10
7.32659e-10
7.41896e-10
7.50684e-10
7.59011e-10
7.66864e-10
7.74231e-10
7.81101e-10
7.87462e-10
7.93302e-10
7.98613e-10
8.03381e-10
8.07599e-10
8.11256e-10
8.14344e-10
8.16852e-10
8.18774e-10
8.20101e-10
8.20826e-10
8.20942e-10
8.20443e-10
8.19323e-10
8.17578e-10
8.15202e-10
8.12194e-10
8.08549e-10
8.04265e-10
7.99343e-10
7.9378e-10
7.87578e-10
7.80738e-10
7.73263e-10
7.65155e-10
7.5642e-10
7.47062e-10
7.37088e-10
7.26505e-10
7.15323e-10
7.0355e-10
6.91198e-10
6.7828e-10
6.64807e-10
6.50795e-10
6.3626e-10
6.21218e-10
6.05688e-10
5.89689e-10
5.73242e-10
5.56368e-10
5.39091e-10
5.21436e-10
5.03427e-10
4.85092e-10
4.66458e-10
4.47556e-10
4.28414e-10
4.09066e-10
3.89544e-10
3.69883e-10
3.50118e-10
3.30285e-10
3.10424e-10
2.90574e-10
2.70776e-10
2.51073e-10
2.31511e-10
2.12136e-10
1.92998e-10
1.7415e-10
1.55646e-10
1.37548e-10
1.1992e-10
1.02835e-10
8.63754e-11
7.06361e-11
5.57329e-11
4.18134e-11
2.90777e-11
1.78098e-11
8.39405e-12
1.11093e-12
5.26897e-12
4.69144e-11
1.07052e-10
1.79212e-10
2.60446e-10
3.49073e-10
4.43983e-10
5.44377e-10
6.49633e-10
7.59249e-10
8.72802e-10
9.89924e-10
1.11029e-09
1.23362e-09
1.35964e-09
1.4881e-09
1.61877e-09
1.75145e-09
1.88591e-09
2.02197e-09
2.15943e-09
2.29811e-09
2.43782e-09
2.5784e-09
2.71967e-09
2.86146e-09
3.0036e-09
3.14593e-09
3.28829e-09
3.43052e-09
3.57246e-09
3.71395e-09
3.85483e-09
3.99495e-09
4.13416e-09
4.27231e-09
4.40924e-09
4.5448e-09
4.67885e-09
4.81124e-09
4.94182e-09
5.07046e-09
5.19699e-09
5.3213e-09
5.44322e-09
5.56263e-09
5.6794e-09
5.79337e-09
5.90443e-09
6.01243e-09
6.11725e-09
6.21877e-09
6.31685e-09
6.41136e-09
6.5022e-09
6.58923e-09
6.67235e-09
6.75142e-09
6.82635e-09
6.89702e-09
6.96332e-09
7.02515e-09
7.0824e-09
7.13497e-09
7.18277e-09
7.2257e-09
7.26368e-09
7.29661e-09
7.3244e-09
7.347e-09
7.3643e-09
7.37626e-09
7.3828e-09
7.38387e-09
7.3794e-09
7.36935e-09
7.35367e-09
7.33233e-09
7.30528e-09
7.27252e-09
7.23401e-09
7.18974e-09
7.13972e-09
7.08395e-09
7.02244e-09
6.95522e-09
6.8823e-09
6.80373e-09
6.71956e-09
6.62985e-09
6.53466e-09
6.43408e-09
6.32818e-09
6.21707e-09
6.10086e-09
5.97967e-09
5.85362e-09
5.72286e-09
5.58754e-09
5.44783e-09
5.30389e-09
5.15592e-09
5.00411e-09
4.84867e-09
4.68983e-09
4.52779e-09
4.36282e-09
4.19517e-09
4.02509e-09
3.85285e-09
3.67876e-09
3.50309e-09
3.32617e-09
3.14831e-09
2.96983e-09
2.7911e-09
2.61245e-09
2.43427e-09
2.25694e-09
2.08086e-09
1.90645e-09
1.73417e-09
1.56447e-09
1.39786e-09
1.23487e-09
1.07608e-09
9.22137e-10
7.73758e-10
6.31776e-10
4.97184e-10
3.71227e-10
2.55579e-10
1.52727e-10
6.69442e-11
7.51882e-12
1.17354e-11
1.0528e-10
2.41802e-10
4.06751e-10
5.93193e-10
7.97049e-10
1.01562e-09
1.24695e-09
1.48955e-09
1.74224e-09
2.00401e-09
2.27401e-09
2.55149e-09
2.83578e-09
3.12626e-09
3.42236e-09
3.72356e-09
4.02935e-09
4.33927e-09
4.65285e-09
4.96965e-09
5.28926e-09
5.61126e-09
5.93524e-09
6.26082e-09
6.58759e-09
6.91517e-09
7.2432e-09
7.57129e-09
7.89908e-09
8.22619e-09
8.55228e-09
8.87697e-09
9.19992e-09
9.52077e-09
9.83917e-09
1.01548e-08
1.04672e-08
1.07762e-08
1.10814e-08
1.13824e-08
1.16789e-08
1.19706e-08
1.22571e-08
1.25382e-08
1.28135e-08
1.30827e-08
1.33455e-08
1.36015e-08
1.38506e-08
1.40923e-08
1.43264e-08
1.45525e-08
1.47705e-08
1.498e-08
1.51808e-08
1.53725e-08
1.5555e-08
1.57278e-08
1.58909e-08
1.60439e-08
1.61866e-08
1.63188e-08
1.64402e-08
1.65506e-08
1.66497e-08
1.67375e-08
1.68136e-08
1.6878e-08
1.69303e-08
1.69704e-08
1.69983e-08
1.70136e-08
1.70163e-08
1.70063e-08
1.69834e-08
1.69475e-08
1.68986e-08
1.68365e-08
1.67612e-08
1.66726e-08
1.65708e-08
1.64558e-08
1.63274e-08
1.61858e-08
1.6031e-08
1.58631e-08
1.56822e-08
1.54883e-08
1.52816e-08
1.50623e-08
1.48306e-08
1.45865e-08
1.43305e-08
1.40626e-08
1.37833e-08
1.34927e-08
1.31913e-08
1.28793e-08
1.25572e-08
1.22253e-08
1.18841e-08
1.1534e-08
1.11756e-08
1.08092e-08
1.04355e-08
1.00551e-08
9.66836e-09
9.27606e-09
8.87878e-09
8.47718e-09
8.07196e-09
7.66381e-09
7.25348e-09
6.84173e-09
6.42935e-09
6.01717e-09
5.60605e-09
5.19687e-09
4.79057e-09
4.38812e-09
3.99054e-09
3.59892e-09
3.21441e-09
2.83825e-09
2.47179e-09
2.11652e-09
1.77415e-09
1.44664e-09
1.13637e-09
8.46346e-10
5.80655e-10
3.45311e-10
1.50378e-10
1.67633e-11
1.94509e-11
1.74785e-10
4.02282e-10
6.78096e-10
9.90712e-10
1.33322e-09
1.70097e-09
2.09057e-09
2.49942e-09
2.92544e-09
3.36691e-09
3.82233e-09
4.29043e-09
4.77005e-09
5.26014e-09
5.75974e-09
6.26795e-09
6.78392e-09
7.30684e-09
7.83596e-09
8.37053e-09
8.90983e-09
9.45317e-09
9.99986e-09
1.05492e-08
1.11006e-08
1.16534e-08
1.2207e-08
1.27606e-08
1.33138e-08
1.38658e-08
1.44162e-08
1.49641e-08
1.55092e-08
1.60507e-08
1.65881e-08
1.71208e-08
1.76482e-08
1.81698e-08
1.86849e-08
1.91931e-08
1.96937e-08
2.01861e-08
2.06699e-08
2.11446e-08
2.16094e-08
2.2064e-08
2.25078e-08
2.29403e-08
2.33609e-08
2.37692e-08
2.41647e-08
2.45468e-08
2.49152e-08
2.52692e-08
2.56085e-08
2.59326e-08
2.6241e-08
2.65334e-08
2.68091e-08
2.7068e-08
2.73094e-08
2.75331e-08
2.77386e-08
2.79256e-08
2.80936e-08
2.82424e-08
2.83716e-08
2.84808e-08
2.85699e-08
2.86383e-08
2.8686e-08
2.87126e-08
2.87179e-08
2.87017e-08
2.86637e-08
2.86038e-08
2.85218e-08
2.84176e-08
2.82912e-08
2.81423e-08
2.79711e-08
2.77774e-08
2.75613e-08
2.73228e-08
2.70619e-08
2.67789e-08
2.64739e-08
2.6147e-08
2.57984e-08
2.54285e-08
2.50374e-08
2.46257e-08
2.41935e-08
2.37415e-08
2.32699e-08
2.27794e-08
2.22704e-08
2.17437e-08
2.11997e-08
2.06392e-08
2.0063e-08
1.94717e-08
1.88662e-08
1.82474e-08
1.76161e-08
1.69732e-08
1.63199e-08
1.5657e-08
1.49857e-08
1.43071e-08
1.36223e-08
1.29325e-08
1.2239e-08
1.15431e-08
1.08462e-08
1.01495e-08
9.45461e-09
8.763e-09
8.07626e-09
7.39602e-09
6.72404e-09
6.06215e-09
5.41233e-09
4.7767e-09
4.15758e-09
3.55755e-09
2.97955e-09
2.42701e-09
1.90405e-09
1.41593e-09
9.6967e-10
5.75474e-10
2.50086e-10
2.78323e-11
2.80814e-11
2.52492e-10
5.81669e-10
9.81487e-10
1.43544e-09
1.93353e-09
2.46896e-09
3.03674e-09
3.633e-09
4.25463e-09
4.89906e-09
5.56406e-09
6.24772e-09
6.94833e-09
7.66432e-09
8.39427e-09
9.13687e-09
9.89085e-09
1.0655e-08
1.14283e-08
1.22096e-08
1.29978e-08
1.37919e-08
1.4591e-08
1.5394e-08
1.62e-08
1.70081e-08
1.78173e-08
1.86267e-08
1.94354e-08
2.02425e-08
2.10471e-08
2.18484e-08
2.26453e-08
2.34372e-08
2.42231e-08
2.50021e-08
2.57735e-08
2.65363e-08
2.72898e-08
2.80331e-08
2.87654e-08
2.94859e-08
3.01938e-08
3.08883e-08
3.15686e-08
3.22339e-08
3.28834e-08
3.35165e-08
3.41323e-08
3.47301e-08
3.53092e-08
3.58689e-08
3.64084e-08
3.69271e-08
3.74243e-08
3.78993e-08
3.83514e-08
3.878e-08
3.91844e-08
3.95641e-08
3.99185e-08
4.02469e-08
4.05487e-08
4.08235e-08
4.10706e-08
4.12896e-08
4.14799e-08
4.16411e-08
4.17727e-08
4.18743e-08
4.19455e-08
4.19858e-08
4.1995e-08
4.19727e-08
4.19186e-08
4.18324e-08
4.17138e-08
4.15628e-08
4.13792e-08
4.11627e-08
4.09134e-08
4.06313e-08
4.03163e-08
3.99685e-08
3.95879e-08
3.91749e-08
3.87295e-08
3.82521e-08
3.77429e-08
3.72024e-08
3.66309e-08
3.6029e-08
3.53972e-08
3.47361e-08
3.40464e-08
3.33289e-08
3.25844e-08
3.18136e-08
3.10177e-08
3.01974e-08
2.9354e-08
2.84885e-08
2.76021e-08
2.66961e-08
2.57717e-08
2.48304e-08
2.38737e-08
2.29029e-08
2.19198e-08
2.09259e-08
1.99229e-08
1.89125e-08
1.78968e-08
1.68774e-08
1.58565e-08
1.4836e-08
1.38181e-08
1.2805e-08
1.17991e-08
1.08028e-08
9.8186e-09
8.84935e-09
7.89791e-09
6.96746e-09
6.06146e-09
5.18375e-09
4.33871e-09
3.53147e-09
2.76818e-09
2.05658e-09
1.40697e-09
8.34144e-10
3.62164e-10
4.02811e-11
3.74187e-11
3.36545e-10
7.75679e-10
1.30961e-09
1.9165e-09
2.58309e-09
3.3003e-09
4.06144e-09
4.86127e-09
5.69558e-09
6.56085e-09
7.45406e-09
8.37258e-09
9.31407e-09
1.02764e-08
1.12577e-08
1.22561e-08
1.32698e-08
1.42975e-08
1.53374e-08
1.63881e-08
1.74483e-08
1.85164e-08
1.95913e-08
2.06716e-08
2.17559e-08
2.28431e-08
2.39318e-08
2.50209e-08
2.61091e-08
2.71952e-08
2.82781e-08
2.93564e-08
3.04291e-08
3.1495e-08
3.2553e-08
3.36018e-08
3.46403e-08
3.56675e-08
3.66821e-08
3.76831e-08
3.86695e-08
3.96399e-08
4.05936e-08
4.15292e-08
4.24458e-08
4.33424e-08
4.42179e-08
4.50712e-08
4.59015e-08
4.67076e-08
4.74886e-08
4.82435e-08
4.89714e-08
4.96713e-08
5.03424e-08
5.09836e-08
5.15942e-08
5.21732e-08
5.27197e-08
5.32331e-08
5.37123e-08
5.41566e-08
5.45653e-08
5.49376e-08
5.52727e-08
5.557e-08
5.58288e-08
5.60483e-08
5.6228e-08
5.63673e-08
5.64657e-08
5.65225e-08
5.65374e-08
5.65099e-08
5.64396e-08
5.63259e-08
5.61688e-08
5.59678e-08
5.57227e-08
5.54335e-08
5.51e-08
5.47221e-08
5.42999e-08
5.38333e-08
5.33227e-08
5.27681e-08
5.21698e-08
5.15282e-08
5.08437e-08
5.01168e-08
4.93481e-08
4.85383e-08
4.7688e-08
4.67982e-08
4.58697e-08
4.49035e-08
4.39006e-08
4.28624e-08
4.179e-08
4.06848e-08
3.95481e-08
3.83816e-08
3.71868e-08
3.59653e-08
3.47191e-08
3.345e-08
3.21598e-08
3.08508e-08
2.95249e-08
2.81844e-08
2.68316e-08
2.54688e-08
2.40987e-08
2.27238e-08
2.13467e-08
1.99702e-08
1.85972e-08
1.72309e-08
1.58742e-08
1.45307e-08
1.32037e-08
1.1897e-08
1.06146e-08
9.36082e-09
8.1404e-09
6.9586e-09
5.8214e-09
4.73577e-09
3.71004e-09
2.75465e-09
1.8834e-09
1.11595e-09
4.84287e-10
5.38485e-11
4.73112e-11
4.25585e-10
9.81179e-10
1.65715e-09
2.42604e-09
3.27119e-09
4.18114e-09
5.14741e-09
6.16337e-09
7.22362e-09
8.32365e-09
9.45959e-09
1.06281e-08
1.18261e-08
1.30508e-08
1.42999e-08
1.5571e-08
1.68619e-08
1.81705e-08
1.94949e-08
2.08332e-08
2.21837e-08
2.35445e-08
2.49139e-08
2.62904e-08
2.76721e-08
2.90575e-08
3.04451e-08
3.18332e-08
3.32203e-08
3.46048e-08
3.59853e-08
3.73602e-08
3.8728e-08
4.00872e-08
4.14365e-08
4.27742e-08
4.40989e-08
4.54093e-08
4.67039e-08
4.79812e-08
4.92399e-08
5.04786e-08
5.16959e-08
5.28904e-08
5.40609e-08
5.52059e-08
5.63241e-08
5.74143e-08
5.84751e-08
5.95053e-08
6.05037e-08
6.14689e-08
6.23999e-08
6.32953e-08
6.4154e-08
6.49748e-08
6.57566e-08
6.64982e-08
6.71987e-08
6.78568e-08
6.84716e-08
6.9042e-08
6.95669e-08
7.00456e-08
7.04769e-08
7.086e-08
7.1194e-08
7.1478e-08
7.17113e-08
7.18931e-08
7.20226e-08
7.20992e-08
7.21221e-08
7.20911e-08
7.20053e-08
7.18642e-08
7.16675e-08
7.14148e-08
7.11059e-08
7.07404e-08
7.03182e-08
6.98394e-08
6.93037e-08
6.87114e-08
6.80626e-08
6.73575e-08
6.65965e-08
6.578e-08
6.49085e-08
6.39827e-08
6.30033e-08
6.19712e-08
6.08872e-08
5.97524e-08
5.85681e-08
5.73353e-08
5.60556e-08
5.47305e-08
5.33614e-08
5.19502e-08
5.04987e-08
4.90087e-08
4.74825e-08
4.59221e-08
4.43298e-08
4.27081e-08
4.10594e-08
3.93864e-08
3.76917e-08
3.59783e-08
3.42491e-08
3.25072e-08
3.07558e-08
2.89982e-08
2.72378e-08
2.54783e-08
2.37234e-08
2.1977e-08
2.02433e-08
1.85264e-08
1.68309e-08
1.51617e-08
1.35239e-08
1.19231e-08
1.03654e-08
8.85754e-09
7.40732e-09
6.0236e-09
4.71705e-09
3.50093e-09
2.3927e-09
1.41723e-09
6.14859e-10
6.83564e-11
5.76377e-11
5.18526e-10
1.19567e-09
2.01987e-09
2.95784e-09
3.98936e-09
5.10056e-09
6.2811e-09
7.52289e-09
8.81934e-09
1.01649e-08
1.15549e-08
1.29851e-08
1.44517e-08
1.59515e-08
1.74813e-08
1.90384e-08
2.06199e-08
2.22234e-08
2.38465e-08
2.54868e-08
2.71422e-08
2.88104e-08
3.04894e-08
3.21771e-08
3.38715e-08
3.55706e-08
3.72725e-08
3.89752e-08
4.06769e-08
4.23756e-08
4.40695e-08
4.57567e-08
4.74354e-08
4.91038e-08
5.07601e-08
5.24025e-08
5.40292e-08
5.56384e-08
5.72284e-08
5.87975e-08
6.03439e-08
6.1866e-08
6.33621e-08
6.48304e-08
6.62693e-08
6.76773e-08
6.90526e-08
7.03938e-08
7.16991e-08
7.2967e-08
7.41961e-08
7.53847e-08
7.65314e-08
7.76346e-08
7.86931e-08
7.97052e-08
8.06696e-08
8.15849e-08
8.24498e-08
8.32629e-08
8.40229e-08
8.47286e-08
8.53787e-08
8.59719e-08
8.65072e-08
8.69834e-08
8.73994e-08
8.77541e-08
8.80465e-08
8.82757e-08
8.84407e-08
8.85406e-08
8.85748e-08
8.85425e-08
8.84431e-08
8.82755e-08
8.80395e-08
8.77347e-08
8.73606e-08
8.69169e-08
8.64034e-08
8.582e-08
8.51667e-08
8.44434e-08
8.36506e-08
8.27883e-08
8.1857e-08
8.08572e-08
7.97895e-08
7.86548e-08
7.74539e-08
7.61878e-08
7.48576e-08
7.34647e-08
7.20105e-08
7.04965e-08
6.89244e-08
6.7296e-08
6.56134e-08
6.38786e-08
6.20939e-08
6.02617e-08
5.83846e-08
5.64652e-08
5.45063e-08
5.2511e-08
5.04823e-08
4.84234e-08
4.63379e-08
4.42291e-08
4.21007e-08
3.99567e-08
3.78009e-08
3.56375e-08
3.34707e-08
3.13051e-08
2.91453e-08
2.69961e-08
2.48626e-08
2.27501e-08
2.06644e-08
1.86113e-08
1.65973e-08
1.46293e-08
1.27149e-08
1.08625e-08
9.08151e-09
7.38296e-09
5.77991e-09
4.28858e-09
2.93025e-09
1.73523e-09
7.52687e-10
8.36714e-11
6.82964e-11
6.14452e-10
1.41703e-09
2.39421e-09
3.50664e-09
4.73051e-09
6.04941e-09
7.45116e-09
8.92616e-09
1.04666e-08
1.20659e-08
1.37185e-08
1.54193e-08
1.71639e-08
1.89483e-08
2.07688e-08
2.2622e-08
2.45046e-08
2.64137e-08
2.83464e-08
3.02999e-08
3.22716e-08
3.42588e-08
3.62591e-08
3.827e-08
4.02892e-08
4.23142e-08
4.43427e-08
4.63725e-08
4.84012e-08
5.04267e-08
5.24467e-08
5.4459e-08
5.64614e-08
5.84518e-08
6.04281e-08
6.2388e-08
6.43294e-08
6.62504e-08
6.81487e-08
7.00224e-08
7.18693e-08
7.36875e-08
7.54749e-08
7.72296e-08
7.89495e-08
8.06328e-08
8.22775e-08
8.38816e-08
8.54434e-08
8.69608e-08
8.84322e-08
8.98556e-08
9.12293e-08
9.25515e-08
9.38204e-08
9.50343e-08
9.61916e-08
9.72906e-08
9.83296e-08
9.93071e-08
1.00221e-07
1.01071e-07
1.01855e-07
1.02571e-07
1.03217e-07
1.03794e-07
1.04298e-07
1.0473e-07
1.05087e-07
1.05369e-07
1.05575e-07
1.05702e-07
1.05751e-07
1.05721e-07
1.0561e-07
1.05418e-07
1.05144e-07
1.04788e-07
1.04349e-07
1.03826e-07
1.0322e-07
1.0253e-07
1.01757e-07
1.00899e-07
9.99582e-08
9.89338e-08
9.78267e-08
9.66373e-08
9.53664e-08
9.4015e-08
9.2584e-08
9.10746e-08
8.94883e-08
8.78265e-08
8.60909e-08
8.42834e-08
8.2406e-08
8.0461e-08
7.84505e-08
7.63773e-08
7.42441e-08
7.20536e-08
6.9809e-08
6.75135e-08
6.51705e-08
6.27835e-08
6.03564e-08
5.78929e-08
5.53973e-08
5.28738e-08
5.03267e-08
4.77608e-08
4.51807e-08
4.25916e-08
3.99985e-08
3.74068e-08
3.48222e-08
3.22505e-08
2.96979e-08
2.71708e-08
2.4676e-08
2.22207e-08
1.98126e-08
1.74602e-08
1.51723e-08
1.29592e-08
1.08322e-08
8.80437e-09
6.89126e-09
5.11215e-09
3.49233e-09
2.06776e-09
8.96822e-10
9.96877e-11
7.91981e-11
7.12562e-10
1.64343e-09
2.77703e-09
4.06789e-09
5.48845e-09
7.01977e-09
8.64776e-09
1.03613e-08
1.21515e-08
1.40105e-08
1.59319e-08
1.79098e-08
1.99391e-08
2.20152e-08
2.41336e-08
2.62904e-08
2.8482e-08
3.07047e-08
3.29551e-08
3.52302e-08
3.75267e-08
3.98417e-08
4.21722e-08
4.45154e-08
4.68685e-08
4.92287e-08
5.15934e-08
5.39598e-08
5.63254e-08
5.86875e-08
6.10436e-08
6.3391e-08
6.57273e-08
6.80499e-08
7.03564e-08
7.26442e-08
7.49108e-08
7.71539e-08
7.93711e-08
8.15598e-08
8.37178e-08
8.58426e-08
8.7932e-08
8.99835e-08
9.1995e-08
9.39641e-08
9.58885e-08
9.77661e-08
9.95946e-08
1.01372e-07
1.03096e-07
1.04764e-07
1.06375e-07
1.07926e-07
1.09415e-07
1.1084e-07
1.122e-07
1.13491e-07
1.14714e-07
1.15864e-07
1.16941e-07
1.17943e-07
1.18868e-07
1.19715e-07
1.20481e-07
1.21164e-07
1.21765e-07
1.2228e-07
1.22708e-07
1.23048e-07
1.23299e-07
1.23459e-07
1.23528e-07
1.23503e-07
1.23385e-07
1.23171e-07
1.22862e-07
1.22456e-07
1.21953e-07
1.21353e-07
1.20654e-07
1.19857e-07
1.18962e-07
1.17968e-07
1.16877e-07
1.15687e-07
1.144e-07
1.13017e-07
1.11537e-07
1.09963e-07
1.08296e-07
1.06536e-07
1.04685e-07
1.02746e-07
1.0072e-07
9.86091e-08
9.64158e-08
9.41428e-08
9.17928e-08
8.93687e-08
8.68739e-08
8.43115e-08
8.16854e-08
7.89992e-08
7.62571e-08
7.34631e-08
7.06217e-08
6.77375e-08
6.48154e-08
6.18604e-08
5.88777e-08
5.58727e-08
5.28512e-08
4.9819e-08
4.67823e-08
4.37473e-08
4.07208e-08
3.77096e-08
3.47211e-08
3.17627e-08
2.88426e-08
2.59692e-08
2.31516e-08
2.03996e-08
1.77238e-08
1.51362e-08
1.26498e-08
1.028e-08
8.045e-09
5.96716e-09
4.07588e-09
2.413e-09
1.04647e-09
1.16317e-10
9.02636e-11
8.12145e-10
1.87321e-09
3.16558e-09
4.6375e-09
6.25767e-09
8.00456e-09
9.86218e-09
1.18179e-08
1.38615e-08
1.59842e-08
1.81786e-08
2.04381e-08
2.27567e-08
2.51291e-08
2.75505e-08
3.00161e-08
3.25219e-08
3.50636e-08
3.76375e-08
4.024e-08
4.28674e-08
4.55163e-08
4.81833e-08
5.08653e-08
5.3559e-08
5.62613e-08
5.89691e-08
6.16793e-08
6.4389e-08
6.70951e-08
6.97947e-08
7.24849e-08
7.51628e-08
7.78255e-08
8.04701e-08
8.30938e-08
8.56939e-08
8.82674e-08
9.08117e-08
9.3324e-08
9.58015e-08
9.82416e-08
1.00642e-07
1.02999e-07
1.0531e-07
1.07574e-07
1.09787e-07
1.11947e-07
1.14051e-07
1.16097e-07
1.18083e-07
1.20005e-07
1.21861e-07
1.2365e-07
1.25368e-07
1.27013e-07
1.28584e-07
1.30077e-07
1.31491e-07
1.32823e-07
1.34071e-07
1.35234e-07
1.36308e-07
1.37292e-07
1.38185e-07
1.38983e-07
1.39686e-07
1.40291e-07
1.40797e-07
1.41202e-07
1.41504e-07
1.41702e-07
1.41795e-07
1.41781e-07
1.4166e-07
1.41428e-07
1.41087e-07
1.40634e-07
1.4007e-07
1.39393e-07
1.38603e-07
1.377e-07
1.36684e-07
1.35554e-07
1.3431e-07
1.32954e-07
1.31485e-07
1.29905e-07
1.28214e-07
1.26413e-07
1.24504e-07
1.22488e-07
1.20368e-07
1.18144e-07
1.1582e-07
1.13398e-07
1.1088e-07
1.0827e-07
1.05571e-07
1.02786e-07
9.99183e-08
9.69728e-08
9.39533e-08
9.08641e-08
8.771e-08
8.44958e-08
8.12266e-08
7.79079e-08
7.45451e-08
7.11442e-08
6.77113e-08
6.42526e-08
6.07747e-08
5.72845e-08
5.37891e-08
5.02959e-08
4.68126e-08
4.33472e-08
3.99081e-08
3.65041e-08
3.31445e-08
2.98392e-08
2.65986e-08
2.3434e-08
2.03577e-08
1.73832e-08
1.45259e-08
1.18032e-08
9.23592e-09
6.84972e-09
4.67826e-09
2.76939e-09
1.20096e-09
1.33485e-10
1.01421e-10
9.12554e-10
2.1049e-09
3.55733e-09
5.21179e-09
7.03319e-09
8.99741e-09
1.10865e-08
1.32864e-08
1.55855e-08
1.79742e-08
2.04439e-08
2.29874e-08
2.55979e-08
2.82695e-08
3.09966e-08
3.37741e-08
3.65972e-08
3.94613e-08
4.23621e-08
4.52955e-08
4.82575e-08
5.12442e-08
5.42519e-08
5.72768e-08
6.03155e-08
6.33643e-08
6.64198e-08
6.94786e-08
7.25372e-08
7.55924e-08
7.86408e-08
8.16792e-08
8.47042e-08
8.77126e-08
9.07013e-08
9.36669e-08
9.66065e-08
9.95168e-08
1.02395e-07
1.05237e-07
1.08041e-07
1.10803e-07
1.1352e-07
1.1619e-07
1.1881e-07
1.21375e-07
1.23884e-07
1.26334e-07
1.28722e-07
1.31044e-07
1.33298e-07
1.35482e-07
1.37592e-07
1.39626e-07
1.41582e-07
1.43455e-07
1.45245e-07
1.46947e-07
1.48561e-07
1.50082e-07
1.5151e-07
1.5284e-07
1.54072e-07
1.55202e-07
1.56228e-07
1.57149e-07
1.57961e-07
1.58663e-07
1.59254e-07
1.5973e-07
1.6009e-07
1.60332e-07
1.60455e-07
1.60457e-07
1.60337e-07
1.60093e-07
1.59724e-07
1.59228e-07
1.58606e-07
1.57856e-07
1.56977e-07
1.5597e-07
1.54834e-07
1.53569e-07
1.52174e-07
1.50651e-07
1.49e-07
1.47221e-07
1.45317e-07
1.43287e-07
1.41133e-07
1.38858e-07
1.36463e-07
1.33951e-07
1.31323e-07
1.28583e-07
1.25735e-07
1.2278e-07
1.19723e-07
1.16569e-07
1.1332e-07
1.09982e-07
1.06559e-07
1.03057e-07
9.94799e-08
9.58343e-08
9.21259e-08
8.83607e-08
8.45452e-08
8.06861e-08
7.67903e-08
7.28652e-08
6.89181e-08
6.49571e-08
6.09901e-08
5.70257e-08
5.30727e-08
4.91403e-08
4.5238e-08
4.13759e-08
3.75646e-08
3.38153e-08
3.01399e-08
2.65513e-08
2.30635e-08
1.96917e-08
1.64532e-08
1.3368e-08
1.04594e-08
7.75641e-09
5.29711e-09
3.13553e-09
1.35968e-09
1.51123e-10
1.12606e-10
1.01321e-09
2.33714e-09
3.95001e-09
5.78742e-09
7.8105e-09
9.99252e-09
1.23136e-08
1.47582e-08
1.73135e-08
1.99687e-08
2.27145e-08
2.55427e-08
2.84459e-08
3.14175e-08
3.44514e-08
3.75418e-08
4.06834e-08
4.38711e-08
4.71003e-08
5.03662e-08
5.36644e-08
5.69907e-08
6.03408e-08
6.37108e-08
6.70965e-08
7.04942e-08
7.38999e-08
7.73099e-08
8.07204e-08
8.41276e-08
8.7528e-08
9.09178e-08
9.42934e-08
9.76513e-08
1.00988e-07
1.043e-07
1.07583e-07
1.10834e-07
1.1405e-07
1.17228e-07
1.20363e-07
1.23452e-07
1.26493e-07
1.29481e-07
1.32413e-07
1.35287e-07
1.38098e-07
1.40844e-07
1.43521e-07
1.46126e-07
1.48657e-07
1.51109e-07
1.5348e-07
1.55767e-07
1.57966e-07
1.60075e-07
1.62091e-07
1.64011e-07
1.65831e-07
1.6755e-07
1.69164e-07
1.7067e-07
1.72067e-07
1.7335e-07
1.74518e-07
1.75568e-07
1.76498e-07
1.77305e-07
1.77986e-07
1.7854e-07
1.78965e-07
1.79258e-07
1.79417e-07
1.79441e-07
1.79329e-07
1.79078e-07
1.78686e-07
1.78153e-07
1.77477e-07
1.76658e-07
1.75695e-07
1.74586e-07
1.73333e-07
1.71935e-07
1.70391e-07
1.68702e-07
1.66869e-07
1.64893e-07
1.62774e-07
1.60514e-07
1.58115e-07
1.55578e-07
1.52906e-07
1.50101e-07
1.47166e-07
1.44104e-07
1.4092e-07
1.37615e-07
1.34195e-07
1.30665e-07
1.27027e-07
1.23289e-07
1.19455e-07
1.15531e-07
1.11522e-07
1.07436e-07
1.03279e-07
9.90571e-08
9.47787e-08
9.04509e-08
8.60816e-08
8.16791e-08
7.7252e-08
7.28089e-08
6.83593e-08
6.39126e-08
5.94788e-08
5.50683e-08
5.06919e-08
4.63609e-08
4.20873e-08
3.78836e-08
3.37634e-08
2.97409e-08
2.58319e-08
2.20536e-08
1.84252e-08
1.4969e-08
1.17112e-08
8.68413e-09
5.93032e-09
3.51019e-09
1.52209e-09
1.69171e-10
1.23758e-10
1.11357e-09
2.56871e-09
4.34153e-09
6.36135e-09
8.58548e-09
1.09846e-08
1.3537e-08
1.62255e-08
1.90362e-08
2.19571e-08
2.49781e-08
2.80902e-08
3.12854e-08
3.45563e-08
3.78961e-08
4.12988e-08
4.47583e-08
4.82691e-08
5.18261e-08
5.54241e-08
5.90583e-08
6.2724e-08
6.64165e-08
7.01316e-08
7.38647e-08
7.76116e-08
8.13681e-08
8.513e-08
8.88931e-08
9.26535e-08
9.6407e-08
1.0015e-07
1.03878e-07
1.07587e-07
1.11273e-07
1.14933e-07
1.18563e-07
1.22158e-07
1.25715e-07
1.2923e-07
1.327e-07
1.3612e-07
1.39488e-07
1.42798e-07
1.46048e-07
1.49234e-07
1.52353e-07
1.554e-07
1.58372e-07
1.61266e-07
1.64078e-07
1.66805e-07
1.69443e-07
1.71988e-07
1.74439e-07
1.7679e-07
1.79039e-07
1.81183e-07
1.83218e-07
1.85141e-07
1.86949e-07
1.88639e-07
1.90207e-07
1.91652e-07
1.92969e-07
1.94156e-07
1.95211e-07
1.96129e-07
1.9691e-07
1.9755e-07
1.98046e-07
1.98397e-07
1.986e-07
1.98653e-07
1.98555e-07
1.98303e-07
1.97894e-07
1.97329e-07
1.96605e-07
1.95722e-07
1.94679e-07
1.93474e-07
1.92107e-07
1.90579e-07
1.88889e-07
1.87037e-07
1.85025e-07
1.82852e-07
1.8052e-07
1.7803e-07
1.75385e-07
1.72586e-07
1.69635e-07
1.66536e-07
1.63292e-07
1.59906e-07
1.56381e-07
1.52723e-07
1.48936e-07
1.45024e-07
1.40993e-07
1.36848e-07
1.32596e-07
1.28244e-07
1.23796e-07
1.19262e-07
1.14648e-07
1.09962e-07
1.05212e-07
1.00406e-07
9.55546e-08
9.06657e-08
8.57491e-08
8.08148e-08
7.5873e-08
7.09345e-08
6.60105e-08
6.11125e-08
5.62526e-08
5.14435e-08
4.66984e-08
4.20315e-08
3.74576e-08
3.29928e-08
2.86544e-08
2.44616e-08
2.04357e-08
1.66013e-08
1.29874e-08
9.63e-09
6.57595e-09
3.89218e-09
1.68768e-09
1.87574e-10
1.34826e-10
1.21316e-09
2.79849e-09
4.73003e-09
6.93082e-09
9.35442e-09
1.1969e-08
1.47508e-08
1.76813e-08
2.07452e-08
2.39298e-08
2.72239e-08
3.06177e-08
3.41025e-08
3.76704e-08
4.1314e-08
4.50266e-08
4.88017e-08
5.26335e-08
5.65161e-08
6.04441e-08
6.44123e-08
6.84154e-08
7.24486e-08
7.65071e-08
8.05859e-08
8.46806e-08
8.87866e-08
9.28992e-08
9.7014e-08
1.01127e-07
1.05233e-07
1.09328e-07
1.13408e-07
1.17468e-07
1.21505e-07
1.25514e-07
1.2949e-07
1.33431e-07
1.3733e-07
1.41185e-07
1.44992e-07
1.48745e-07
1.52442e-07
1.56077e-07
1.59648e-07
1.6315e-07
1.66579e-07
1.69931e-07
1.73203e-07
1.7639e-07
1.79488e-07
1.82494e-07
1.85405e-07
1.88215e-07
1.90922e-07
1.93522e-07
1.96011e-07
1.98385e-07
2.00641e-07
2.02776e-07
2.04785e-07
2.06666e-07
2.08414e-07
2.10027e-07
2.11501e-07
2.12833e-07
2.1402e-07
2.15059e-07
2.15946e-07
2.16679e-07
2.17256e-07
2.17672e-07
2.17926e-07
2.18015e-07
2.17938e-07
2.17692e-07
2.17274e-07
2.16684e-07
2.15918e-07
2.14977e-07
2.13859e-07
2.12563e-07
2.11088e-07
2.09435e-07
2.07603e-07
2.05592e-07
2.03403e-07
2.01036e-07
1.98493e-07
1.95776e-07
1.92886e-07
1.89825e-07
1.86596e-07
1.83203e-07
1.79648e-07
1.75936e-07
1.7207e-07
1.68056e-07
1.63897e-07
1.59601e-07
1.55172e-07
1.50617e-07
1.45943e-07
1.41156e-07
1.36264e-07
1.31276e-07
1.26198e-07
1.21041e-07
1.15813e-07
1.10523e-07
1.05181e-07
9.97982e-08
9.43844e-08
8.8951e-08
8.35092e-08
7.8071e-08
7.26488e-08
6.72554e-08
6.19041e-08
5.66091e-08
5.13849e-08
4.62471e-08
4.12122e-08
3.62978e-08
3.15231e-08
2.6909e-08
2.24791e-08
1.82603e-08
1.42846e-08
1.05914e-08
7.23215e-09
4.28045e-09
1.856e-09
2.06279e-10
1.45759e-10
1.31155e-09
3.02549e-09
5.11381e-09
7.49336e-09
1.0114e-08
1.29413e-08
1.59497e-08
1.91192e-08
2.24333e-08
2.58781e-08
2.94419e-08
3.31139e-08
3.68848e-08
4.07461e-08
4.46897e-08
4.87086e-08
5.27957e-08
5.69446e-08
6.11492e-08
6.54036e-08
6.97021e-08
7.40392e-08
7.84096e-08
8.28081e-08
8.72295e-08
9.16689e-08
9.61213e-08
1.00582e-07
1.05046e-07
1.09508e-07
1.13965e-07
1.18411e-07
1.22841e-07
1.27251e-07
1.31637e-07
1.35993e-07
1.40316e-07
1.44601e-07
1.48843e-07
1.53037e-07
1.57181e-07
1.61268e-07
1.65295e-07
1.69257e-07
1.73151e-07
1.7697e-07
1.80713e-07
1.84373e-07
1.87947e-07
1.9143e-07
1.94819e-07
1.9811e-07
2.01297e-07
2.04377e-07
2.07346e-07
2.102e-07
2.12934e-07
2.15545e-07
2.18029e-07
2.20381e-07
2.22599e-07
2.24677e-07
2.26613e-07
2.28402e-07
2.30041e-07
2.31526e-07
2.32853e-07
2.3402e-07
2.35022e-07
2.35856e-07
2.3652e-07
2.3701e-07
2.37323e-07
2.37457e-07
2.37409e-07
2.37177e-07
2.36757e-07
2.36148e-07
2.35348e-07
2.34356e-07
2.33169e-07
2.31788e-07
2.30212e-07
2.28439e-07
2.2647e-07
2.24304e-07
2.21943e-07
2.19386e-07
2.16636e-07
2.13694e-07
2.10561e-07
2.07241e-07
2.03736e-07
2.00049e-07
1.96184e-07
1.92146e-07
1.87938e-07
1.83567e-07
1.79036e-07
1.74353e-07
1.69524e-07
1.64556e-07
1.59455e-07
1.54231e-07
1.48891e-07
1.43443e-07
1.37898e-07
1.32264e-07
1.26552e-07
1.20772e-07
1.14935e-07
1.09051e-07
1.03134e-07
9.71954e-08
9.12472e-08
8.53028e-08
7.93758e-08
7.34804e-08
6.76313e-08
6.18438e-08
5.61342e-08
5.05192e-08
4.50171e-08
3.96472e-08
3.44302e-08
2.93892e-08
2.45499e-08
1.99416e-08
1.55993e-08
1.15657e-08
7.89721e-09
4.67395e-09
2.02658e-09
2.25236e-10
1.56516e-10
1.40835e-09
3.24883e-09
5.49138e-09
8.04678e-09
1.08612e-08
1.38977e-08
1.7129e-08
2.05335e-08
2.40936e-08
2.77945e-08
3.16234e-08
3.5569e-08
3.96213e-08
4.37711e-08
4.80099e-08
5.233e-08
5.67241e-08
6.11852e-08
6.57067e-08
7.02824e-08
7.49063e-08
7.95724e-08
8.4275e-08
8.90087e-08
9.37679e-08
9.85474e-08
1.03342e-07
1.08146e-07
1.12955e-07
1.17763e-07
1.22566e-07
1.27359e-07
1.32136e-07
1.36893e-07
1.41625e-07
1.46327e-07
1.50994e-07
1.55621e-07
1.60204e-07
1.64737e-07
1.69216e-07
1.73637e-07
1.77994e-07
1.82283e-07
1.865e-07
1.90639e-07
1.94695e-07
1.98665e-07
2.02544e-07
2.06327e-07
2.10009e-07
2.13587e-07
2.17055e-07
2.20409e-07
2.23644e-07
2.26757e-07
2.29742e-07
2.32595e-07
2.35313e-07
2.3789e-07
2.40322e-07
2.42605e-07
2.44735e-07
2.46707e-07
2.48518e-07
2.50164e-07
2.5164e-07
2.52942e-07
2.54067e-07
2.55012e-07
2.55772e-07
2.56344e-07
2.56724e-07
2.56911e-07
2.569e-07
2.5669e-07
2.56276e-07
2.55657e-07
2.5483e-07
2.53795e-07
2.52548e-07
2.51089e-07
2.49417e-07
2.47531e-07
2.45431e-07
2.43116e-07
2.40588e-07
2.37847e-07
2.34894e-07
2.31731e-07
2.2836e-07
2.24783e-07
2.21004e-07
2.17026e-07
2.12853e-07
2.0849e-07
2.03941e-07
1.99212e-07
1.9431e-07
1.8924e-07
1.84009e-07
1.78626e-07
1.73098e-07
1.67433e-07
1.61642e-07
1.55732e-07
1.49716e-07
1.43602e-07
1.37402e-07
1.31127e-07
1.2479e-07
1.18402e-07
1.11976e-07
1.05527e-07
9.90672e-08
9.26115e-08
8.61746e-08
7.9772e-08
7.34198e-08
6.71347e-08
6.09343e-08
5.48372e-08
4.8863e-08
4.30325e-08
3.73686e-08
3.18962e-08
2.6643e-08
2.16411e-08
1.69281e-08
1.25506e-08
8.56946e-09
5.07172e-09
2.19902e-09
2.44399e-10
1.67061e-10
1.50323e-09
3.46774e-09
5.86147e-09
8.5892e-09
1.15935e-08
1.48351e-08
1.82847e-08
2.19194e-08
2.57205e-08
2.96722e-08
3.37609e-08
3.79745e-08
4.23024e-08
4.67348e-08
5.12629e-08
5.58781e-08
6.0573e-08
6.534e-08
7.01722e-08
7.5063e-08
8.00059e-08
8.49948e-08
9.00235e-08
9.50862e-08
1.00177e-07
1.05291e-07
1.10421e-07
1.15563e-07
1.20712e-07
1.25861e-07
1.31005e-07
1.3614e-07
1.41259e-07
1.46358e-07
1.51432e-07
1.56475e-07
1.61483e-07
1.66449e-07
1.7137e-07
1.76239e-07
1.81052e-07
1.85805e-07
1.90491e-07
1.95106e-07
1.99645e-07
2.04102e-07
2.08474e-07
2.12754e-07
2.16939e-07
2.21023e-07
2.25001e-07
2.28868e-07
2.3262e-07
2.36251e-07
2.39757e-07
2.43132e-07
2.46373e-07
2.49474e-07
2.5243e-07
2.55238e-07
2.57891e-07
2.60385e-07
2.62716e-07
2.64879e-07
2.6687e-07
2.68684e-07
2.70316e-07
2.71763e-07
2.73019e-07
2.74082e-07
2.74947e-07
2.75609e-07
2.76066e-07
2.76314e-07
2.76349e-07
2.7617e-07
2.75771e-07
2.7515e-07
2.74305e-07
2.73234e-07
2.71935e-07
2.70406e-07
2.68646e-07
2.66655e-07
2.6443e-07
2.61974e-07
2.59285e-07
2.56365e-07
2.53215e-07
2.49836e-07
2.46231e-07
2.42403e-07
2.38354e-07
2.34088e-07
2.2961e-07
2.24924e-07
2.20036e-07
2.14952e-07
2.09678e-07
2.04221e-07
1.98589e-07
1.92791e-07
1.86834e-07
1.80729e-07
1.74485e-07
1.68112e-07
1.61622e-07
1.55025e-07
1.48335e-07
1.41562e-07
1.34722e-07
1.27826e-07
1.20889e-07
1.13925e-07
1.0695e-07
9.99793e-08
9.30285e-08
8.61148e-08
7.92555e-08
7.24689e-08
6.5774e-08
5.91907e-08
5.27405e-08
4.64458e-08
4.03313e-08
3.44239e-08
2.87535e-08
2.33546e-08
1.82679e-08
1.35436e-08
9.24729e-09
5.47279e-09
2.37289e-09
2.63722e-10
1.77362e-10
1.59593e-09
3.68159e-09
6.22298e-09
9.11902e-09
1.23088e-08
1.57506e-08
1.94134e-08
2.32729e-08
2.73092e-08
3.15057e-08
3.58479e-08
4.03232e-08
4.49201e-08
4.96284e-08
5.44387e-08
5.93421e-08
6.43306e-08
6.93963e-08
7.45319e-08
7.97304e-08
8.4985e-08
9.02892e-08
9.56367e-08
1.01021e-07
1.06437e-07
1.11877e-07
1.17337e-07
1.2281e-07
1.28291e-07
1.33774e-07
1.39253e-07
1.44723e-07
1.50179e-07
1.55615e-07
1.61025e-07
1.66404e-07