/*--------------------------------*- C++ -*----------------------------------*\
  =========                 |
  \\      /  F ield         | OpenFOAM: The Open Source CFD Toolbox
   \\    /   O peration     | Website:  https://openfoam.org
    \\  /    A nd           | Version:  12
     \\/     M anipulation  |
\*---------------------------------------------------------------------------*/
FoamFile
{
    format      ascii;
    class       volVectorField;
    location    "8.5";
    object      U;
}
// * * * * * * * * * * * * * * * * * * * * * * * * * * * * * * * * * * * * * //

dimensions      [0 1 -1 0 0 0 0];

internalField   nonuniform List<vector> 
18225
(
(-1.01356e-07 2.02535e-07 0)
(-7.5045e-07 5.12184e-07 0)
(-1.82121e-06 7.09032e-07 0)
(-3.14583e-06 8.01477e-07 0)
(-4.51147e-06 8.16597e-07 0)
(-5.75996e-06 7.75214e-07 0)
(-6.77696e-06 6.93611e-07 0)
(-7.47663e-06 5.84676e-07 0)
(-7.79535e-06 4.5819e-07 0)
(-7.68732e-06 3.21169e-07 0)
(-7.12114e-06 1.78611e-07 0)
(-6.07664e-06 3.40478e-08 0)
(-4.54249e-06 -1.09997e-07 0)
(-2.51434e-06 -2.5179e-07 0)
(6.51149e-09 -3.90081e-07 0)
(3.01429e-06 -5.24016e-07 0)
(6.49953e-06 -6.52962e-07 0)
(1.04498e-05 -7.76485e-07 0)
(1.48501e-05 -8.94252e-07 0)
(1.96835e-05 -1.00603e-06 0)
(2.49311e-05 -1.11165e-06 0)
(3.05729e-05 -1.21097e-06 0)
(3.65873e-05 -1.30389e-06 0)
(4.29519e-05 -1.39036e-06 0)
(4.96432e-05 -1.4703e-06 0)
(5.66373e-05 -1.54369e-06 0)
(6.39094e-05 -1.61051e-06 0)
(7.14344e-05 -1.67075e-06 0)
(7.91867e-05 -1.72443e-06 0)
(8.71405e-05 -1.77157e-06 0)
(9.52698e-05 -1.8122e-06 0)
(0.000103548 -1.84637e-06 0)
(0.00011195 -1.87414e-06 0)
(0.00012045 -1.89559e-06 0)
(0.00012902 -1.91079e-06 0)
(0.000137636 -1.91985e-06 0)
(0.000146273 -1.92288e-06 0)
(0.000154904 -1.92e-06 0)
(0.000163506 -1.91133e-06 0)
(0.000172054 -1.89703e-06 0)
(0.000180525 -1.87725e-06 0)
(0.000188895 -1.85216e-06 0)
(0.000197142 -1.82192e-06 0)
(0.000205244 -1.78673e-06 0)
(0.000213181 -1.74676e-06 0)
(0.000220931 -1.70223e-06 0)
(0.000228475 -1.65334e-06 0)
(0.000235794 -1.60029e-06 0)
(0.000242871 -1.54332e-06 0)
(0.000249689 -1.48263e-06 0)
(0.000256231 -1.41845e-06 0)
(0.000262482 -1.35102e-06 0)
(0.000268428 -1.28057e-06 0)
(0.000274056 -1.20732e-06 0)
(0.000279353 -1.13151e-06 0)
(0.000284309 -1.05337e-06 0)
(0.000288913 -9.73145e-07 0)
(0.000293155 -8.91056e-07 0)
(0.000297027 -8.07335e-07 0)
(0.000300522 -7.22209e-07 0)
(0.000303633 -6.35902e-07 0)
(0.000306355 -5.48634e-07 0)
(0.000308683 -4.60622e-07 0)
(0.000310615 -3.72078e-07 0)
(0.000312146 -2.83207e-07 0)
(0.000313276 -1.94212e-07 0)
(0.000314004 -1.05288e-07 0)
(0.00031433 -1.66238e-08 0)
(0.000314254 7.15683e-08 0)
(0.000313779 1.59149e-07 0)
(0.000312907 2.45949e-07 0)
(0.000311642 3.31778e-07 0)
(0.000309987 4.16478e-07 0)
(0.000307948 4.99896e-07 0)
(0.00030553 5.81886e-07 0)
(0.00030274 6.62304e-07 0)
(0.000299585 7.41013e-07 0)
(0.000296072 8.1788e-07 0)
(0.000292209 8.92776e-07 0)
(0.000288007 9.65579e-07 0)
(0.000283474 1.03617e-06 0)
(0.000278621 1.10443e-06 0)
(0.000273458 1.17025e-06 0)
(0.000267998 1.23352e-06 0)
(0.000262251 1.29414e-06 0)
(0.000256231 1.35199e-06 0)
(0.00024995 1.40697e-06 0)
(0.000243421 1.45898e-06 0)
(0.00023666 1.50792e-06 0)
(0.000229681 1.55367e-06 0)
(0.000222498 1.59614e-06 0)
(0.000215127 1.63522e-06 0)
(0.000207585 1.6708e-06 0)
(0.000199887 1.70276e-06 0)
(0.000192051 1.731e-06 0)
(0.000184095 1.75539e-06 0)
(0.000176036 1.77581e-06 0)
(0.000167894 1.79213e-06 0)
(0.000159686 1.80421e-06 0)
(0.000151434 1.81193e-06 0)
(0.000143156 1.81512e-06 0)
(0.000134874 1.81365e-06 0)
(0.000126608 1.80734e-06 0)
(0.000118381 1.79603e-06 0)
(0.000110214 1.77955e-06 0)
(0.00010213 1.75772e-06 0)
(9.41519e-05 1.73033e-06 0)
(8.63036e-05 1.69719e-06 0)
(7.8609e-05 1.6581e-06 0)
(7.10925e-05 1.61284e-06 0)
(6.37792e-05 1.56118e-06 0)
(5.66941e-05 1.50289e-06 0)
(4.98627e-05 1.43775e-06 0)
(4.33109e-05 1.36551e-06 0)
(3.70643e-05 1.28593e-06 0)
(3.11489e-05 1.19879e-06 0)
(2.55903e-05 1.10385e-06 0)
(2.04138e-05 1.00092e-06 0)
(1.56442e-05 8.89836e-07 0)
(1.13054e-05 7.70496e-07 0)
(7.41973e-06 6.42897e-07 0)
(4.008e-06 5.07174e-07 0)
(1.08833e-06 3.63686e-07 0)
(-1.32448e-06 2.1313e-07 0)
(-3.22024e-06 5.66724e-08 0)
(-4.59492e-06 -1.03759e-07 0)
(-5.45266e-06 -2.65161e-07 0)
(-5.80855e-06 -4.22935e-07 0)
(-5.69208e-06 -5.70195e-07 0)
(-5.15182e-06 -6.9709e-07 0)
(-4.26094e-06 -7.89581e-07 0)
(-3.12585e-06 -8.28565e-07 0)
(-1.90593e-06 -7.86937e-07 0)
(-8.36605e-07 -6.21427e-07 0)
(-1.31607e-07 -2.84873e-07 0)
(-1.83682e-07 1.38456e-06 0)
(-1.40183e-06 3.31294e-06 0)
(-3.18822e-06 4.42583e-06 0)
(-5.21668e-06 4.81329e-06 0)
(-7.11616e-06 4.59928e-06 0)
(-8.60028e-06 3.9055e-06 0)
(-9.44671e-06 2.83939e-06 0)
(-9.47862e-06 1.49084e-06 0)
(-8.55683e-06 -6.66251e-08 0)
(-6.57476e-06 -1.7738e-06 0)
(-3.45376e-06 -3.58321e-06 0)
(8.61359e-07 -5.4569e-06 0)
(6.40593e-06 -7.36438e-06 0)
(1.31987e-05 -9.28113e-06 0)
(2.12442e-05 -1.11872e-05 0)
(3.05353e-05 -1.30664e-05 0)
(4.10547e-05 -1.49053e-05 0)
(5.27764e-05 -1.66928e-05 0)
(6.56673e-05 -1.84196e-05 0)
(7.96876e-05 -2.0078e-05 0)
(9.47926e-05 -2.16614e-05 0)
(0.000110933 -2.31642e-05 0)
(0.000128054 -2.45818e-05 0)
(0.000146101 -2.59102e-05 0)
(0.000165011 -2.7146e-05 0)
(0.000184725 -2.82866e-05 0)
(0.000205176 -2.93296e-05 0)
(0.000226299 -3.02732e-05 0)
(0.000248027 -3.1116e-05 0)
(0.00027029 -3.18571e-05 0)
(0.00029302 -3.24959e-05 0)
(0.000316147 -3.30319e-05 0)
(0.0003396 -3.34653e-05 0)
(0.00036331 -3.37965e-05 0)
(0.000387207 -3.40259e-05 0)
(0.00041122 -3.41547e-05 0)
(0.000435281 -3.41839e-05 0)
(0.000459323 -3.4115e-05 0)
(0.000483277 -3.39497e-05 0)
(0.000507078 -3.36898e-05 0)
(0.000530661 -3.33376e-05 0)
(0.000553963 -3.28954e-05 0)
(0.000576922 -3.23656e-05 0)
(0.000599478 -3.17511e-05 0)
(0.000621574 -3.10546e-05 0)
(0.000643153 -3.02792e-05 0)
(0.000664162 -2.94281e-05 0)
(0.000684548 -2.85046e-05 0)
(0.000704263 -2.75121e-05 0)
(0.000723259 -2.64541e-05 0)
(0.000741491 -2.53342e-05 0)
(0.000758918 -2.41561e-05 0)
(0.0007755 -2.29236e-05 0)
(0.0007912 -2.16404e-05 0)
(0.000805983 -2.03104e-05 0)
(0.000819817 -1.89374e-05 0)
(0.000832675 -1.75254e-05 0)
(0.000844528 -1.60781e-05 0)
(0.000855354 -1.45995e-05 0)
(0.000865131 -1.30935e-05 0)
(0.000873842 -1.15638e-05 0)
(0.00088147 -1.00143e-05 0)
(0.000888003 -8.44865e-06 0)
(0.000893429 -6.87066e-06 0)
(0.000897742 -5.28394e-06 0)
(0.000900935 -3.69209e-06 0)
(0.000903006 -2.09863e-06 0)
(0.000903955 -5.07003e-07 0)
(0.000903783 1.07942e-06 0)
(0.000902496 2.65735e-06 0)
(0.000900099 4.22357e-06 0)
(0.000896602 5.77495e-06 0)
(0.000892015 7.30844e-06 0)
(0.000886353 8.82108e-06 0)
(0.00087963 1.031e-05 0)
(0.000871864 1.17724e-05 0)
(0.000863074 1.32055e-05 0)
(0.000853281 1.46068e-05 0)
(0.00084251 1.59736e-05 0)
(0.000830784 1.73035e-05 0)
(0.00081813 1.8594e-05 0)
(0.000804578 1.98428e-05 0)
(0.000790156 2.10477e-05 0)
(0.000774898 2.22062e-05 0)
(0.000758836 2.33163e-05 0)
(0.000742005 2.43759e-05 0)
(0.000724442 2.53827e-05 0)
(0.000706186 2.63348e-05 0)
(0.000687274 2.723e-05 0)
(0.000667749 2.80664e-05 0)
(0.000647653 2.8842e-05 0)
(0.000627029 2.95547e-05 0)
(0.000605923 3.02027e-05 0)
(0.000584381 3.07838e-05 0)
(0.000562451 3.12962e-05 0)
(0.000540183 3.17379e-05 0)
(0.000517627 3.21069e-05 0)
(0.000494835 3.24012e-05 0)
(0.000471861 3.26189e-05 0)
(0.000448758 3.27579e-05 0)
(0.000425584 3.28164e-05 0)
(0.000402394 3.27922e-05 0)
(0.000379248 3.26835e-05 0)
(0.000356205 3.24882e-05 0)
(0.000333326 3.22046e-05 0)
(0.000310673 3.18306e-05 0)
(0.000288308 3.13646e-05 0)
(0.000266295 3.08047e-05 0)
(0.0002447 3.01493e-05 0)
(0.000223588 2.9397e-05 0)
(0.000203024 2.85464e-05 0)
(0.000183076 2.75966e-05 0)
(0.000163808 2.65466e-05 0)
(0.000145289 2.53961e-05 0)
(0.000127584 2.41451e-05 0)
(0.000110758 2.27942e-05 0)
(9.48752e-05 2.13448e-05 0)
(7.99963e-05 1.97991e-05 0)
(6.61807e-05 1.81605e-05 0)
(5.34836e-05 1.64337e-05 0)
(4.19556e-05 1.46256e-05 0)
(3.1641e-05 1.27451e-05 0)
(2.25764e-05 1.08044e-05 0)
(1.47887e-05 8.8196e-06 0)
(8.29212e-06 6.81186e-06 0)
(3.0857e-06 4.8091e-06 0)
(-8.5082e-07 2.84792e-06 0)
(-3.56155e-06 9.76249e-07 0)
(-5.1203e-06 -7.43385e-07 0)
(-5.63678e-06 -2.22997e-06 0)
(-5.26389e-06 -3.37933e-06 0)
(-4.20892e-06 -4.05951e-06 0)
(-2.75605e-06 -4.10734e-06 0)
(-1.29234e-06 -3.32892e-06 0)
(-1.86915e-07 -1.51539e-06 0)
(-1.78526e-07 2.87507e-06 0)
(-1.3096e-06 6.48873e-06 0)
(-2.79864e-06 8.25348e-06 0)
(-4.25614e-06 8.46768e-06 0)
(-5.26119e-06 7.402e-06 0)
(-5.48402e-06 5.29641e-06 0)
(-4.66137e-06 2.35975e-06 0)
(-2.5775e-06 -1.22931e-06 0)
(9.42702e-07 -5.31961e-06 0)
(6.03784e-06 -9.78434e-06 0)
(1.28138e-05 -1.45174e-05 0)
(2.13478e-05 -1.94302e-05 0)
(3.16918e-05 -2.44487e-05 0)
(4.38756e-05 -2.95108e-05 0)
(5.79097e-05 -3.45642e-05 0)
(7.37877e-05 -3.9565e-05 0)
(9.14884e-05 -4.44758e-05 0)
(0.000110978 -4.92648e-05 0)
(0.00013221 -5.3905e-05 0)
(0.00015513 -5.8373e-05 0)
(0.000179674 -6.26491e-05 0)
(0.000205771 -6.6716e-05 0)
(0.000233342 -7.05592e-05 0)
(0.000262303 -7.41662e-05 0)
(0.000292566 -7.75262e-05 0)
(0.000324038 -8.06304e-05 0)
(0.000356623 -8.34712e-05 0)
(0.00039022 -8.60426e-05 0)
(0.000424729 -8.83398e-05 0)
(0.000460044 -9.03592e-05 0)
(0.000496061 -9.20983e-05 0)
(0.000532672 -9.35554e-05 0)
(0.000569772 -9.47302e-05 0)
(0.000607252 -9.5623e-05 0)
(0.000645005 -9.62351e-05 0)
(0.000682924 -9.65684e-05 0)
(0.000720903 -9.6626e-05 0)
(0.000758837 -9.64114e-05 0)
(0.000796623 -9.59289e-05 0)
(0.000834157 -9.51836e-05 0)
(0.00087134 -9.4181e-05 0)
(0.000908074 -9.29273e-05 0)
(0.000944264 -9.14294e-05 0)
(0.000979816 -8.96946e-05 0)
(0.00101464 -8.77306e-05 0)
(0.00104865 -8.55456e-05 0)
(0.00108176 -8.31484e-05 0)
(0.00111389 -8.05479e-05 0)
(0.00114496 -7.77534e-05 0)
(0.0011749 -7.47747e-05 0)
(0.00120365 -7.16217e-05 0)
(0.00123112 -6.83044e-05 0)
(0.00125727 -6.48333e-05 0)
(0.00128203 -6.12188e-05 0)
(0.00130535 -5.74715e-05 0)
(0.00132717 -5.36022e-05 0)
(0.00134746 -4.96216e-05 0)
(0.00136617 -4.55406e-05 0)
(0.00138327 -4.13699e-05 0)
(0.00139871 -3.71202e-05 0)
(0.00141248 -3.28024e-05 0)
(0.00142454 -2.8427e-05 0)
(0.00143487 -2.40046e-05 0)
(0.00144346 -1.95457e-05 0)
(0.0014503 -1.50604e-05 0)
(0.00145537 -1.05589e-05 0)
(0.00145867 -6.05112e-06 0)
(0.0014602 -1.54688e-06 0)
(0.00145997 2.94429e-06 0)
(0.00145797 7.41302e-06 0)
(0.00145422 1.18502e-05 0)
(0.00144873 1.62468e-05 0)
(0.00144152 2.05943e-05 0)
(0.00143261 2.4884e-05 0)
(0.00142202 2.91078e-05 0)
(0.00140978 3.32576e-05 0)
(0.00139592 3.73256e-05 0)
(0.00138048 4.13042e-05 0)
(0.00136348 4.5186e-05 0)
(0.00134497 4.89638e-05 0)
(0.001325 5.26305e-05 0)
(0.0013036 5.61795e-05 0)
(0.00128082 5.96039e-05 0)
(0.00125672 6.28974e-05 0)
(0.00123134 6.60536e-05 0)
(0.00120474 6.90662e-05 0)
(0.00117698 7.19292e-05 0)
(0.00114812 7.46367e-05 0)
(0.00111823 7.71827e-05 0)
(0.00108735 7.95615e-05 0)
(0.00105557 8.17673e-05 0)
(0.00102295 8.37946e-05 0)
(0.000989569 8.56377e-05 0)
(0.000955491 8.72912e-05 0)
(0.000920795 8.87495e-05 0)
(0.00088556 9.00072e-05 0)
(0.000849864 9.1059e-05 0)
(0.000813791 9.18994e-05 0)
(0.000777422 9.25232e-05 0)
(0.000740845 9.29251e-05 0)
(0.000704146 9.31e-05 0)
(0.000667415 9.30427e-05 0)
(0.000630743 9.27483e-05 0)
(0.000594223 9.22121e-05 0)
(0.000557948 9.14293e-05 0)
(0.000522015 9.03955e-05 0)
(0.000486519 8.91067e-05 0)
(0.00045156 8.75591e-05 0)
(0.000417236 8.57494e-05 0)
(0.000383647 8.36748e-05 0)
(0.000350892 8.13333e-05 0)
(0.000319071 7.87235e-05 0)
(0.000288284 7.58454e-05 0)
(0.000258629 7.26998e-05 0)
(0.000230204 6.92892e-05 0)
(0.000203103 6.56179e-05 0)
(0.000177418 6.16923e-05 0)
(0.000153238 5.75216e-05 0)
(0.000130644 5.31182e-05 0)
(0.000109716 4.84987e-05 0)
(9.05195e-05 4.36843e-05 0)
(7.31154e-05 3.87026e-05 0)
(5.75504e-05 3.35887e-05 0)
(4.3857e-05 2.83867e-05 0)
(3.20505e-05 2.31524e-05 0)
(2.21251e-05 1.7956e-05 0)
(1.40504e-05 1.28851e-05 0)
(7.76628e-06 8.04928e-06 0)
(3.17782e-06 3.58469e-06 0)
(1.49854e-07 -3.39675e-07 0)
(-1.49922e-06 -3.51568e-06 0)
(-2.00608e-06 -5.68897e-06 0)
(-1.68056e-06 -6.55128e-06 0)
(-9.28013e-07 -5.72951e-06 0)
(-1.54107e-07 -2.77471e-06 0)
(-1.26038e-07 4.02439e-06 0)
(-7.5323e-07 8.65608e-06 0)
(-1.29861e-06 1.03791e-05 0)
(-1.36882e-06 9.68599e-06 0)
(-5.60378e-07 6.99268e-06 0)
(1.4543e-06 2.65602e-06 0)
(4.94403e-06 -3.01456e-06 0)
(1.01328e-05 -9.7514e-06 0)
(1.72051e-05 -1.73239e-05 0)
(2.63094e-05 -2.55339e-05 0)
(3.7561e-05 -3.42116e-05 0)
(5.10451e-05 -4.32114e-05 0)
(6.68201e-05 -5.24083e-05 0)
(8.49197e-05 -6.16952e-05 0)
(0.000105356 -7.09796e-05 0)
(0.00012812 -8.0182e-05 0)
(0.000153188 -8.92337e-05 0)
(0.000180516 -9.80753e-05 0)
(0.000210051 -0.000106655 0)
(0.000241724 -0.000114928 0)
(0.000275455 -0.000122856 0)
(0.000311155 -0.000130404 0)
(0.000348728 -0.000137544 0)
(0.000388066 -0.00014425 0)
(0.000429058 -0.000150502 0)
(0.000471586 -0.000156279 0)
(0.000515527 -0.000161567 0)
(0.000560754 -0.000166354 0)
(0.000607135 -0.000170628 0)
(0.000654538 -0.000174382 0)
(0.000702825 -0.000177611 0)
(0.000751861 -0.00018031 0)
(0.000801506 -0.000182477 0)
(0.000851621 -0.000184113 0)
(0.000902067 -0.00018522 0)
(0.000952704 -0.0001858 0)
(0.0010034 -0.000185858 0)
(0.001054 -0.000185402 0)
(0.00110439 -0.000184438 0)
(0.00115443 -0.000182975 0)
(0.00120399 -0.000181024 0)
(0.00125293 -0.000178596 0)
(0.00130114 -0.000175704 0)
(0.00134849 -0.000172361 0)
(0.00139486 -0.000168582 0)
(0.00144014 -0.000164382 0)
(0.00148423 -0.000159777 0)
(0.001527 -0.000154784 0)
(0.00156837 -0.000149421 0)
(0.00160823 -0.000143705 0)
(0.00164649 -0.000137656 0)
(0.00168306 -0.000131292 0)
(0.00171787 -0.000124633 0)
(0.00175084 -0.000117699 0)
(0.00178188 -0.00011051 0)
(0.00181095 -0.000103087 0)
(0.00183797 -9.54483e-05 0)
(0.00186289 -8.76162e-05 0)
(0.00188566 -7.96108e-05 0)
(0.00190624 -7.14524e-05 0)
(0.00192458 -6.31615e-05 0)
(0.00194066 -5.47584e-05 0)
(0.00195443 -4.62632e-05 0)
(0.0019659 -3.76958e-05 0)
(0.00197502 -2.90758e-05 0)
(0.00198179 -2.04227e-05 0)
(0.00198621 -1.17555e-05 0)
(0.00198827 -3.093e-06 0)
(0.00198798 5.54646e-06 0)
(0.00198533 1.41448e-05 0)
(0.00198036 2.26845e-05 0)
(0.00197306 3.11483e-05 0)
(0.00196347 3.95192e-05 0)
(0.00195161 4.7781e-05 0)
(0.00193751 5.59177e-05 0)
(0.00192121 6.39135e-05 0)
(0.00190275 7.17534e-05 0)
(0.00188216 7.94227e-05 0)
(0.00185951 8.69068e-05 0)
(0.00183484 9.41918e-05 0)
(0.0018082 0.000101264 0)
(0.00177966 0.00010811 0)
(0.00174928 0.000114717 0)
(0.00171712 0.000121073 0)
(0.00168326 0.000127165 0)
(0.00164777 0.00013298 0)
(0.00161072 0.000138508 0)
(0.0015722 0.000143736 0)
(0.00153228 0.000148654 0)
(0.00149106 0.00015325 0)
(0.00144862 0.000157513 0)
(0.00140506 0.000161432 0)
(0.00136046 0.000164996 0)
(0.00131493 0.000168196 0)
(0.00126857 0.000171021 0)
(0.00122148 0.000173461 0)
(0.00117376 0.000175505 0)
(0.00112553 0.000177144 0)
(0.0010769 0.000178368 0)
(0.00102797 0.000179167 0)
(0.000978864 0.000179532 0)
(0.000929698 0.000179455 0)
(0.000880593 0.000178926 0)
(0.000831668 0.000177937 0)
(0.000783046 0.000176481 0)
(0.000734854 0.00017455 0)
(0.000687215 0.000172137 0)
(0.000640257 0.000169238 0)
(0.000594107 0.000165847 0)
(0.000548894 0.00016196 0)
(0.000504745 0.000157577 0)
(0.000461786 0.000152695 0)
(0.000420145 0.000147319 0)
(0.000379946 0.000141451 0)
(0.000341309 0.000135099 0)
(0.000304355 0.000128274 0)
(0.000269196 0.000120991 0)
(0.000235941 0.00011327 0)
(0.000204692 0.000105137 0)
(0.000175542 9.66254e-05 0)
(0.000148574 8.77774e-05 0)
(0.000123858 7.86452e-05 0)
(0.000101451 6.92937e-05 0)
(8.13928e-05 5.98026e-05 0)
(6.37026e-05 5.02696e-05 0)
(4.83774e-05 4.0814e-05 0)
(3.53875e-05 3.15809e-05 0)
(2.46731e-05 2.27463e-05 0)
(1.61398e-05 1.4523e-05 0)
(9.65467e-06 7.16746e-06 0)
(5.04152e-06 9.87697e-07 0)
(2.07493e-06 -3.64839e-06 0)
(4.7178e-07 -6.30177e-06 0)
(-1.18584e-07 -6.44316e-06 0)
(-7.81115e-08 -3.42607e-06 0)
(-5.82001e-08 4.47091e-06 0)
(3.18611e-08 8.93916e-06 0)
(8.04863e-07 9.57547e-06 0)
(2.62536e-06 7.00668e-06 0)
(5.83545e-06 1.76265e-06 0)
(1.07292e-05 -5.70062e-06 0)
(1.75567e-05 -1.4985e-05 0)
(2.65295e-05 -2.57422e-05 0)
(3.78229e-05 -3.76675e-05 0)
(5.15791e-05 -5.04952e-05 0)
(6.79089e-05 -6.39929e-05 0)
(8.68943e-05 -7.79577e-05 0)
(0.00010859 -9.22124e-05 0)
(0.000133027 -0.000106602 0)
(0.000160212 -0.00012099 0)
(0.000190132 -0.000135259 0)
(0.000222753 -0.000149303 0)
(0.000258027 -0.000163031 0)
(0.000295886 -0.000176363 0)
(0.000336251 -0.000189228 0)
(0.000379029 -0.000201564 0)
(0.000424114 -0.000213317 0)
(0.000471393 -0.000224439 0)
(0.000520739 -0.000234889 0)
(0.000572022 -0.000244632 0)
(0.000625102 -0.000253636 0)
(0.000679832 -0.000261876 0)
(0.000736063 -0.000269331 0)
(0.000793639 -0.000275982 0)
(0.0008524 -0.000281816 0)
(0.000912185 -0.000286823 0)
(0.00097283 -0.000290996 0)
(0.00103417 -0.00029433 0)
(0.00109603 -0.000296825 0)
(0.00115826 -0.000298482 0)
(0.00122068 -0.000299307 0)
(0.00128313 -0.000299305 0)
(0.00134544 -0.000298487 0)
(0.00140746 -0.000296863 0)
(0.00146901 -0.000294448 0)
(0.00152995 -0.000291258 0)
(0.00159011 -0.000287309 0)
(0.00164935 -0.000282622 0)
(0.00170753 -0.000277218 0)
(0.00176449 -0.000271118 0)
(0.0018201 -0.000264347 0)
(0.00187422 -0.000256931 0)
(0.00192673 -0.000248896 0)
(0.00197751 -0.000240269 0)
(0.00202643 -0.000231079 0)
(0.00207338 -0.000221356 0)
(0.00211827 -0.00021113 0)
(0.00216098 -0.000200431 0)
(0.00220142 -0.000189291 0)
(0.00223952 -0.000177742 0)
(0.00227518 -0.000165816 0)
(0.00230833 -0.000153545 0)
(0.0023389 -0.000140962 0)
(0.00236684 -0.000128099 0)
(0.00239209 -0.00011499 0)
(0.00241459 -0.000101666 0)
(0.00243432 -8.81598e-05 0)
(0.00245122 -7.45041e-05 0)
(0.00246528 -6.07302e-05 0)
(0.00247648 -4.68696e-05 0)
(0.00248479 -3.29534e-05 0)
(0.00249021 -1.90122e-05 0)
(0.00249273 -5.07599e-06 0)
(0.00249236 8.82568e-06 0)
(0.00248911 2.26638e-05 0)
(0.00248299 3.64101e-05 0)
(0.00247402 5.00367e-05 0)
(0.00246223 6.35165e-05 0)
(0.00244765 7.6823e-05 0)
(0.00243032 8.99305e-05 0)
(0.00241029 0.000102814 0)
(0.00238759 0.000115448 0)
(0.00236229 0.000127809 0)
(0.00233443 0.000139875 0)
(0.0023041 0.000151621 0)
(0.00227134 0.000163027 0)
(0.00223624 0.00017407 0)
(0.00219887 0.00018473 0)
(0.00215932 0.000194986 0)
(0.00211766 0.000204818 0)
(0.00207399 0.000214206 0)
(0.0020284 0.000223132 0)
(0.00198098 0.000231577 0)
(0.00193185 0.000239523 0)
(0.00188111 0.000246951 0)
(0.00182885 0.000253844 0)
(0.0017752 0.000260185 0)
(0.00172028 0.000265957 0)
(0.00166419 0.000271143 0)
(0.00160707 0.000275727 0)
(0.00154904 0.000279693 0)
(0.00149022 0.000283026 0)
(0.00143075 0.00028571 0)
(0.00137076 0.000287729 0)
(0.00131039 0.000289071 0)
(0.00124978 0.00028972 0)
(0.00118907 0.000289663 0)
(0.00112841 0.000288888 0)
(0.00106793 0.000287382 0)
(0.0010078 0.000285134 0)
(0.000948147 0.000282135 0)
(0.000889136 0.000278375 0)
(0.000830914 0.000273848 0)
(0.000773633 0.000268548 0)
(0.000717444 0.000262471 0)
(0.000662499 0.000255618 0)
(0.000608947 0.000247989 0)
(0.000556937 0.000239591 0)
(0.000506614 0.000230433 0)
(0.000458121 0.000220529 0)
(0.000411595 0.0002099 0)
(0.000367169 0.000198571 0)
(0.000324968 0.000186577 0)
(0.000285109 0.000173961 0)
(0.000247702 0.000160776 0)
(0.000212841 0.000147088 0)
(0.000180611 0.000132978 0)
(0.000151078 0.000118544 0)
(0.000124294 0.000103903 0)
(0.000100289 8.9197e-05 0)
(7.90696e-05 7.45944e-05 0)
(6.06186e-05 6.02965e-05 0)
(4.48903e-05 4.65422e-05 0)
(3.18076e-05 3.36143e-05 0)
(2.126e-05 2.18469e-05 0)
(1.30993e-05 1.16329e-05 0)
(7.13808e-06 3.4333e-06 0)
(3.15181e-06 -2.21127e-06 0)
(8.85224e-07 -4.65933e-06 0)
(8.63892e-09 -3.14016e-06 0)
(1.55317e-08 4.07332e-06 0)
(9.2118e-07 6.93105e-06 0)
(3.20906e-06 5.2133e-06 0)
(7.20346e-06 -3.71879e-07 0)
(1.31645e-05 -9.21563e-06 0)
(2.13346e-05 -2.07865e-05 0)
(3.19298e-05 -3.46146e-05 0)
(4.51346e-05 -5.0283e-05 0)
(6.11025e-05 -6.74223e-05 0)
(7.99575e-05 -8.57052e-05 0)
(0.000101796 -0.000104841 0)
(0.000126686 -0.000124573 0)
(0.000154673 -0.000144673 0)
(0.000185775 -0.000164938 0)
(0.00021999 -0.000185188 0)
(0.000257295 -0.000205264 0)
(0.000297646 -0.000225023 0)
(0.000340982 -0.000244339 0)
(0.000387225 -0.000263102 0)
(0.000436281 -0.000281211 0)
(0.000488043 -0.000298579 0)
(0.000542392 -0.000315129 0)
(0.000599196 -0.000330791 0)
(0.000658313 -0.000345506 0)
(0.000719594 -0.000359223 0)
(0.000782878 -0.000371896 0)
(0.000848001 -0.000383486 0)
(0.00091479 -0.000393962 0)
(0.000983068 -0.000403297 0)
(0.00105265 -0.00041147 0)
(0.00112336 -0.000418466 0)
(0.00119501 -0.000424272 0)
(0.0012674 -0.000428882 0)
(0.00134034 -0.000432294 0)
(0.00141365 -0.000434509 0)
(0.00148713 -0.000435533 0)
(0.0015606 -0.000435375 0)
(0.00163386 -0.000434047 0)
(0.00170673 -0.000431566 0)
(0.00177902 -0.000427951 0)
(0.00185055 -0.000423222 0)
(0.00192115 -0.000417406 0)
(0.00199064 -0.000410529 0)
(0.00205885 -0.000402622 0)
(0.00212562 -0.000393715 0)
(0.00219079 -0.000383843 0)
(0.0022542 -0.000373043 0)
(0.0023157 -0.000361351 0)
(0.00237516 -0.000348807 0)
(0.00243244 -0.000335451 0)
(0.0024874 -0.000321327 0)
(0.00253993 -0.000306476 0)
(0.00258991 -0.000290943 0)
(0.00263724 -0.000274773 0)
(0.0026818 -0.000258011 0)
(0.00272351 -0.000240704 0)
(0.00276228 -0.000222898 0)
(0.00279803 -0.000204639 0)
(0.0028307 -0.000185974 0)
(0.00286021 -0.000166951 0)
(0.00288651 -0.000147616 0)
(0.00290956 -0.000128016 0)
(0.00292931 -0.000108196 0)
(0.00294572 -8.82038e-05 0)
(0.00295878 -6.80832e-05 0)
(0.00296847 -4.78796e-05 0)
(0.00297477 -2.76372e-05 0)
(0.00297767 -7.39935e-06 0)
(0.00297719 1.2791e-05 0)
(0.00297334 3.28921e-05 0)
(0.00296612 5.28626e-05 0)
(0.00295557 7.26623e-05 0)
(0.00294171 9.22518e-05 0)
(0.00292459 0.000111593 0)
(0.00290424 0.000130647 0)
(0.00288072 0.000149379 0)
(0.00285408 0.000167752 0)
(0.00282438 0.000185731 0)
(0.00279169 0.000203283 0)
(0.00275609 0.000220374 0)
(0.00271764 0.000236972 0)
(0.00267645 0.000253046 0)
(0.00263259 0.000268565 0)
(0.00258616 0.0002835 0)
(0.00253726 0.00029782 0)
(0.00248599 0.000311499 0)
(0.00243246 0.000324507 0)
(0.00237679 0.000336819 0)
(0.00231909 0.000348407 0)
(0.00225949 0.000359245 0)
(0.00219811 0.000369309 0)
(0.00213508 0.000378574 0)
(0.00207054 0.000387015 0)
(0.00200462 0.000394608 0)
(0.00193746 0.000401331 0)
(0.00186922 0.000407161 0)
(0.00180004 0.000412076 0)
(0.00173007 0.000416054 0)
(0.00165946 0.000419075 0)
(0.00158838 0.000421118 0)
(0.00151699 0.000422166 0)
(0.00144544 0.000422199 0)
(0.00137391 0.0004212 0)
(0.00130256 0.000419154 0)
(0.00123155 0.000416047 0)
(0.00116107 0.000411865 0)
(0.00109129 0.000406599 0)
(0.00102236 0.00040024 0)
(0.000954478 0.000392783 0)
(0.000887802 0.000384225 0)
(0.000822506 0.000374567 0)
(0.000758761 0.000363816 0)
(0.000696733 0.000351982 0)
(0.000636587 0.000339081 0)
(0.000578482 0.000325136 0)
(0.000522573 0.000310177 0)
(0.000469011 0.000294244 0)
(0.000417935 0.000277387 0)
(0.00036948 0.000259668 0)
(0.000323768 0.000241161 0)
(0.00028091 0.000221959 0)
(0.000241004 0.00020217 0)
(0.000204133 0.000181926 0)
(0.000170363 0.000161381 0)
(0.000139741 0.000140719 0)
(0.000112293 0.000120154 0)
(8.8022e-05 9.99389e-05 0)
(6.69084e-05 8.03674e-05 0)
(4.89046e-05 6.17824e-05 0)
(3.39358e-05 4.45813e-05 0)
(2.1897e-05 2.92245e-05 0)
(1.26537e-05 1.62424e-05 0)
(6.05635e-06 6.24665e-06 0)
(1.96146e-06 -5.05632e-08 0)
(9.78202e-08 -1.8116e-06 0)
(8.93739e-08 2.77507e-06 0)
(1.84685e-06 2.43949e-06 0)
(5.73803e-06 -3.03586e-06 0)
(1.20477e-05 -1.28991e-05 0)
(2.09479e-05 -2.64912e-05 0)
(3.2622e-05 -4.32275e-05 0)
(4.72433e-05 -6.2583e-05 0)
(6.49609e-05 -8.40858e-05 0)
(8.58976e-05 -0.000107312 0)
(0.000110151 -0.00013188 0)
(0.000137796 -0.000157449 0)
(0.00016888 -0.000183711 0)
(0.000203429 -0.00021039 0)
(0.000241448 -0.000237238 0)
(0.000282918 -0.000264032 0)
(0.000327801 -0.000290571 0)
(0.000376039 -0.000316678 0)
(0.000427557 -0.000342189 0)
(0.000482263 -0.000366962 0)
(0.000540048 -0.000390867 0)
(0.00060079 -0.000413788 0)
(0.000664353 -0.000435624 0)
(0.00073059 -0.000456284 0)
(0.000799341 -0.000475687 0)
(0.000870439 -0.000493763 0)
(0.000943707 -0.000510452 0)
(0.00101896 -0.000525701 0)
(0.001096 -0.000539467 0)
(0.00117465 -0.000551712 0)
(0.00125468 -0.000562407 0)
(0.0013359 -0.000571531 0)
(0.00141811 -0.000579066 0)
(0.00150108 -0.000585002 0)
(0.00158461 -0.000589336 0)
(0.00166848 -0.000592068 0)
(0.00175248 -0.000593206 0)
(0.00183641 -0.000592759 0)
(0.00192004 -0.000590746 0)
(0.00200317 -0.000587185 0)
(0.0020856 -0.000582102 0)
(0.00216712 -0.000575526 0)
(0.00224754 -0.000567489 0)
(0.00232665 -0.000558027 0)
(0.00240428 -0.000547179 0)
(0.00248024 -0.000534989 0)
(0.00255435 -0.0005215 0)
(0.00262643 -0.000506762 0)
(0.00269633 -0.000490824 0)
(0.00276388 -0.000473739 0)
(0.00282894 -0.00045556 0)
(0.00289135 -0.000436345 0)
(0.00295098 -0.000416151 0)
(0.0030077 -0.000395037 0)
(0.0030614 -0.000373063 0)
(0.00311195 -0.00035029 0)
(0.00315925 -0.000326779 0)
(0.0032032 -0.000302594 0)
(0.00324373 -0.000277797 0)
(0.00328074 -0.000252451 0)
(0.00331416 -0.000226618 0)
(0.00334394 -0.000200363 0)
(0.00337002 -0.000173747 0)
(0.00339235 -0.000146833 0)
(0.00341089 -0.000119683 0)
(0.00342563 -9.23575e-05 0)
(0.00343652 -6.49175e-05 0)
(0.00344358 -3.74227e-05 0)
(0.00344678 -9.93173e-06 0)
(0.00344613 1.74975e-05 0)
(0.00344165 4.48082e-05 0)
(0.00343335 7.19446e-05 0)
(0.00342126 9.88521e-05 0)
(0.00340542 0.000125477 0)
(0.00338587 0.000151768 0)
(0.00336265 0.000177673 0)
(0.00333582 0.000203143 0)
(0.00330545 0.000228129 0)
(0.0032716 0.000252584 0)
(0.00323435 0.000276461 0)
(0.00319378 0.000299716 0)
(0.00314999 0.000322305 0)
(0.00310306 0.000344184 0)
(0.00305309 0.000365313 0)
(0.0030002 0.000385651 0)
(0.00294449 0.000405158 0)
(0.00288609 0.000423796 0)
(0.00282511 0.000441528 0)
(0.00276168 0.000458316 0)
(0.00269593 0.000474124 0)
(0.002628 0.000488919 0)
(0.00255804 0.000502666 0)
(0.00248619 0.000515332 0)
(0.00241259 0.000526884 0)
(0.00233742 0.000537291 0)
(0.00226081 0.000546522 0)
(0.00218295 0.000554546 0)
(0.00210398 0.000561337 0)
(0.0020241 0.000566864 0)
(0.00194345 0.000571102 0)
(0.00186223 0.000574024 0)
(0.00178062 0.000575606 0)
(0.00169879 0.000575825 0)
(0.00161693 0.000574659 0)
(0.00153522 0.00057209 0)
(0.00145385 0.000568099 0)
(0.00137302 0.000562673 0)
(0.00129291 0.000555798 0)
(0.00121372 0.000547466 0)
(0.00113562 0.000537673 0)
(0.00105883 0.000526417 0)
(0.000983511 0.000513702 0)
(0.000909865 0.000499538 0)
(0.000838074 0.000483943 0)
(0.000768318 0.000466938 0)
(0.000700774 0.000448558 0)
(0.000635613 0.000428844 0)
(0.000573001 0.00040785 0)
(0.000513096 0.000385641 0)
(0.000456047 0.000362298 0)
(0.000401992 0.000337918 0)
(0.00035106 0.000312617 0)
(0.000303367 0.000286533 0)
(0.000259014 0.000259827 0)
(0.000218087 0.000232689 0)
(0.000180657 0.000205338 0)
(0.000146773 0.000178031 0)
(0.00011647 0.000151064 0)
(8.97574e-05 0.000124776 0)
(6.66282e-05 9.95575e-05 0)
(4.70515e-05 7.5856e-05 0)
(3.09734e-05 5.41807e-05 0)
(1.83199e-05 3.51103e-05 0)
(9.02172e-06 1.93013e-05 0)
(3.0489e-06 7.50474e-06 0)
(1.84757e-07 5.87122e-07 0)
(1.6092e-07 5.65928e-07 0)
(2.77352e-06 -4.60004e-06 0)
(8.2941e-06 -1.53084e-05 0)
(1.69738e-05 -3.07874e-05 0)
(2.88989e-05 -5.03486e-05 0)
(4.41922e-05 -7.33711e-05 0)
(6.29813e-05 -9.92897e-05 0)
(8.53756e-05 -0.000127589 0)
(0.000111463 -0.000157801 0)
(0.000141309 -0.0001895 0)
(0.00017496 -0.000222296 0)
(0.000212439 -0.00025584 0)
(0.000253751 -0.00028981 0)
(0.000298877 -0.000323916 0)
(0.00034778 -0.000357894 0)
(0.000400403 -0.000391507 0)
(0.000456671 -0.000424537 0)
(0.000516491 -0.000456788 0)
(0.000579754 -0.000488084 0)
(0.000646334 -0.000518266 0)
(0.000716092 -0.000547191 0)
(0.000788876 -0.00057473 0)
(0.00086452 -0.000600769 0)
(0.000942849 -0.000625208 0)
(0.00102368 -0.000647956 0)
(0.0011068 -0.000668937 0)
(0.00119203 -0.000688082 0)
(0.00127915 -0.000705337 0)
(0.00136794 -0.000720652 0)
(0.00145818 -0.00073399 0)
(0.00154964 -0.000745321 0)
(0.0016421 -0.000754624 0)
(0.00173533 -0.000761885 0)
(0.0018291 -0.000767098 0)
(0.00192316 -0.000770263 0)
(0.00201729 -0.000771387 0)
(0.00211126 -0.000770486 0)
(0.00220484 -0.000767578 0)
(0.0022978 -0.000762689 0)
(0.00238991 -0.000755851 0)
(0.00248095 -0.000747099 0)
(0.00257072 -0.000736475 0)
(0.00265898 -0.000724025 0)
(0.00274555 -0.000709797 0)
(0.00283021 -0.000693847 0)
(0.00291277 -0.000676232 0)
(0.00299305 -0.000657012 0)
(0.00307086 -0.000636253 0)
(0.00314603 -0.000614019 0)
(0.0032184 -0.000590382 0)
(0.0032878 -0.000565413 0)
(0.00335408 -0.000539185 0)
(0.00341711 -0.000511774 0)
(0.00347675 -0.000483257 0)
(0.00353288 -0.000453712 0)
(0.00358538 -0.000423218 0)
(0.00363415 -0.000391856 0)
(0.00367909 -0.000359705 0)
(0.00372011 -0.000326846 0)
(0.00375714 -0.00029336 0)
(0.00379011 -0.000259328 0)
(0.00381896 -0.000224831 0)
(0.00384363 -0.000189949 0)
(0.00386409 -0.00015476 0)
(0.00388031 -0.000119345 0)
(0.00389226 -8.37796e-05 0)
(0.00389994 -4.81423e-05 0)
(0.00390333 -1.25084e-05 0)
(0.00390244 2.30476e-05 0)
(0.00389728 5.84524e-05 0)
(0.00388788 9.36341e-05 0)
(0.00387426 0.000128522 0)
(0.00385647 0.000163048 0)
(0.00383455 0.000197143 0)
(0.00380855 0.000230743 0)
(0.00377853 0.000263782 0)
(0.00374458 0.000296197 0)
(0.00370675 0.000327928 0)
(0.00366513 0.000358915 0)
(0.00361983 0.000389099 0)
(0.00357093 0.000418424 0)
(0.00351853 0.000446835 0)
(0.00346276 0.000474277 0)
(0.00340372 0.000500698 0)
(0.00334154 0.000526048 0)
(0.00327635 0.000550276 0)
(0.00320828 0.000573334 0)
(0.00313747 0.000595175 0)
(0.00306407 0.000615753 0)
(0.00298824 0.000635024 0)
(0.00291012 0.000652942 0)
(0.00282987 0.000669467 0)
(0.00274767 0.000684557 0)
(0.00266369 0.000698172 0)
(0.00257809 0.000710272 0)
(0.00249105 0.000720821 0)
(0.00240276 0.000729781 0)
(0.00231341 0.000737118 0)
(0.00222318 0.000742798 0)
(0.00213227 0.000746789 0)
(0.00204086 0.000749062 0)
(0.00194917 0.000749588 0)
(0.0018574 0.000748341 0)
(0.00176573 0.000745299 0)