/*--------------------------------*- C++ -*----------------------------------*\
  =========                 |
  \\      /  F ield         | OpenFOAM: The Open Source CFD Toolbox
   \\    /   O peration     | Website:  https://openfoam.org
    \\  /    A nd           | Version:  12
     \\/     M anipulation  |
\*---------------------------------------------------------------------------*/
FoamFile
{
    format      ascii;
    class       volScalarField;
    location    "4.5";
    object      k;
}
// * * * * * * * * * * * * * * * * * * * * * * * * * * * * * * * * * * * * * //

dimensions      [0 2 -2 0 0 0 0];

internalField   nonuniform List<scalar> 
5625
(
1.18229e-11
8.9304e-11
1.89312e-10
3.0871e-10
4.43234e-10
5.89664e-10
7.45652e-10
9.09392e-10
1.0794e-09
1.25441e-09
1.43326e-09
1.6149e-09
1.79836e-09
1.9827e-09
2.16702e-09
2.35048e-09
2.53226e-09
2.71156e-09
2.88762e-09
3.05971e-09
3.22712e-09
3.38917e-09
3.54521e-09
3.69461e-09
3.8368e-09
3.9712e-09
4.0973e-09
4.2146e-09
4.32265e-09
4.42102e-09
4.50933e-09
4.58724e-09
4.65443e-09
4.71065e-09
4.75565e-09
4.78926e-09
4.81133e-09
4.82176e-09
4.8205e-09
4.80753e-09
4.78286e-09
4.74656e-09
4.69876e-09
4.6396e-09
4.56929e-09
4.48807e-09
4.39623e-09
4.2941e-09
4.18205e-09
4.06049e-09
3.92989e-09
3.79072e-09
3.64354e-09
3.48891e-09
3.32744e-09
3.15978e-09
2.98661e-09
2.80867e-09
2.62671e-09
2.44151e-09
2.25392e-09
2.0648e-09
1.87506e-09
1.68567e-09
1.49762e-09
1.312e-09
1.12995e-09
9.52716e-10
7.81706e-10
6.18531e-10
4.65149e-10
3.24088e-10
1.98789e-10
9.37861e-11
1.24161e-11
7.99277e-11
7.11443e-10
1.62163e-09
2.7104e-09
3.93074e-09
5.25443e-09
6.66173e-09
8.13729e-09
9.66831e-09
1.12436e-08
1.2853e-08
1.44873e-08
1.61376e-08
1.77956e-08
1.94533e-08
2.11032e-08
2.27379e-08
2.43502e-08
2.59334e-08
2.74808e-08
2.89861e-08
3.04432e-08
3.18463e-08
3.31897e-08
3.44682e-08
3.56768e-08
3.68107e-08
3.78655e-08
3.88371e-08
3.97218e-08
4.05161e-08
4.12168e-08
4.18212e-08
4.23268e-08
4.27318e-08
4.30342e-08
4.32329e-08
4.3327e-08
4.33157e-08
4.31992e-08
4.29775e-08
4.26512e-08
4.22214e-08
4.16896e-08
4.10575e-08
4.03273e-08
3.95016e-08
3.85833e-08
3.75759e-08
3.6483e-08
3.53087e-08
3.40574e-08
3.2734e-08
3.13436e-08
2.98917e-08
2.8384e-08
2.68269e-08
2.52267e-08
2.35902e-08
2.19246e-08
2.02373e-08
1.85361e-08
1.68292e-08
1.51252e-08
1.34331e-08
1.17623e-08
1.01232e-08
8.5268e-09
6.98536e-09
5.51286e-09
4.12598e-09
2.84602e-09
1.70317e-09
7.47308e-10
8.39572e-11
1.77637e-10
1.59307e-09
3.65493e-09
6.13855e-09
8.9336e-09
1.19722e-08
1.52067e-08
1.86002e-08
2.21224e-08
2.5747e-08
2.94504e-08
3.32111e-08
3.70086e-08
4.08239e-08
4.46387e-08
4.84352e-08
5.21968e-08
5.5907e-08
5.955e-08
6.31109e-08
6.65749e-08
6.99281e-08
7.31569e-08
7.62487e-08
7.91912e-08
8.19729e-08
8.45829e-08
8.70111e-08
8.9248e-08
9.12848e-08
9.31137e-08
9.47275e-08
9.61197e-08
9.7285e-08
9.82184e-08
9.89161e-08
9.93752e-08
9.95935e-08
9.95697e-08
9.93039e-08
9.87957e-08
9.80469e-08
9.70599e-08
9.58379e-08
9.4385e-08
9.27063e-08
9.08076e-08
8.86958e-08
8.63786e-08
8.38643e-08
8.11625e-08
7.82834e-08
7.5238e-08
7.2038e-08
6.86962e-08
6.5226e-08
6.16415e-08
5.79577e-08
5.41901e-08
5.03552e-08
4.64702e-08
4.25531e-08
3.86226e-08
3.46986e-08
3.08018e-08
2.69544e-08
2.318e-08
1.95046e-08
1.59569e-08
1.257e-08
9.38395e-09
6.45023e-09
3.84141e-09
1.67456e-09
1.86725e-10
2.93548e-10
2.63691e-09
6.06252e-09
1.02031e-08
1.48759e-08
1.99664e-08
2.53928e-08
3.10918e-08
3.70109e-08
4.3105e-08
4.93337e-08
5.56599e-08
6.20494e-08
6.84695e-08
7.48892e-08
8.12789e-08
8.761e-08
9.3855e-08
9.99875e-08
1.05982e-07
1.11814e-07
1.17459e-07
1.22896e-07
1.28102e-07
1.33057e-07
1.37742e-07
1.42138e-07
1.46229e-07
1.49998e-07
1.5343e-07
1.56512e-07
1.59233e-07
1.61581e-07
1.63547e-07
1.65123e-07
1.66302e-07
1.6708e-07
1.67452e-07
1.67417e-07
1.66974e-07
1.66124e-07
1.64867e-07
1.6321e-07
1.61157e-07
1.58715e-07
1.55892e-07
1.52699e-07
1.49146e-07
1.45247e-07
1.41016e-07
1.36468e-07
1.31621e-07
1.26494e-07
1.21106e-07
1.15479e-07
1.09635e-07
1.03598e-07
9.73934e-08
9.10475e-08
8.45881e-08
7.80441e-08
7.14461e-08
6.48258e-08
5.82168e-08
5.16545e-08
4.51766e-08
3.88237e-08
3.264e-08
2.66753e-08
2.09867e-08
1.56432e-08
1.07331e-08
6.37893e-09
2.77489e-09
3.08911e-10
4.22201e-10
3.79488e-09
8.73285e-09
1.47123e-08
2.14721e-08
2.88471e-08
3.67184e-08
4.49929e-08
5.35935e-08
6.24534e-08
7.1513e-08
8.07177e-08
9.00167e-08
9.93624e-08
1.08709e-07
1.18014e-07
1.27234e-07
1.36331e-07
1.45264e-07
1.53997e-07
1.62494e-07
1.70721e-07
1.78644e-07
1.86232e-07
1.93455e-07
2.00286e-07
2.06696e-07
2.12661e-07
2.18159e-07
2.23167e-07
2.27666e-07
2.31638e-07
2.35067e-07
2.3794e-07
2.40246e-07
2.41973e-07
2.43116e-07
2.43668e-07
2.43626e-07
2.42991e-07
2.4176e-07
2.39939e-07
2.37532e-07
2.34548e-07
2.30997e-07
2.2689e-07
2.22242e-07
2.1707e-07
2.11392e-07
2.0523e-07
1.98605e-07
1.91544e-07
1.84072e-07
1.7622e-07
1.68019e-07
1.595e-07
1.507e-07
1.41655e-07
1.32404e-07
1.22987e-07
1.13448e-07
1.0383e-07
9.41803e-08
8.45488e-08
7.49875e-08
6.55519e-08
5.63021e-08
4.73038e-08
3.86304e-08
3.03665e-08
2.26134e-08
1.54996e-08
9.2023e-09
3.99939e-09
4.44959e-10
5.60039e-10
5.03523e-09
1.15927e-08
1.95417e-08
2.85378e-08
3.83627e-08
4.88585e-08
5.99008e-08
7.13859e-08
8.32238e-08
9.53341e-08
1.07643e-07
1.20082e-07
1.32587e-07
1.45097e-07
1.57552e-07
1.69898e-07
1.82078e-07
1.94043e-07
2.05741e-07
2.17125e-07
2.28148e-07
2.38766e-07
2.48936e-07
2.5862e-07
2.67778e-07
2.76375e-07
2.84377e-07
2.91753e-07
2.98474e-07
3.04514e-07
3.09849e-07
3.14459e-07
3.18323e-07
3.21427e-07
3.23757e-07
3.25304e-07
3.26059e-07
3.26019e-07
3.25184e-07
3.23549e-07
3.21123e-07
3.17912e-07
3.13927e-07
3.0918e-07
3.03688e-07
2.97469e-07
2.90547e-07
2.82945e-07
2.74692e-07
2.65819e-07
2.56358e-07
2.46347e-07
2.35825e-07
2.24832e-07
2.13415e-07
2.01618e-07
1.89493e-07
1.77092e-07
1.64469e-07
1.51681e-07
1.3879e-07
1.25859e-07
1.12954e-07
1.00146e-07
8.75107e-08
7.51298e-08
6.30919e-08
5.14962e-08
4.04567e-08
3.01091e-08
2.06247e-08
1.22381e-08
5.31622e-09
5.91296e-10
7.04371e-10
6.33387e-09
1.45867e-08
2.45971e-08
3.59343e-08
4.8325e-08
6.15708e-08
7.55149e-08
9.00263e-08
1.04991e-07
1.20306e-07
1.35879e-07
1.51622e-07
1.67452e-07
1.83292e-07
1.99068e-07
2.14707e-07
2.30141e-07
2.45303e-07
2.60131e-07
2.74563e-07
2.8854e-07
3.02006e-07
3.14908e-07
3.27193e-07
3.38815e-07
3.49727e-07
3.59887e-07
3.69255e-07
3.77795e-07
3.85472e-07
3.92257e-07
3.98122e-07
4.03044e-07
4.07002e-07
4.0998e-07
4.11965e-07
4.12946e-07
4.12918e-07
4.11883e-07
4.09833e-07
4.06778e-07
4.02726e-07
3.97691e-07
3.91689e-07
3.8474e-07
3.76868e-07
3.68102e-07
3.58472e-07
3.48013e-07
3.36766e-07
3.24772e-07
3.12078e-07
2.98732e-07
2.8479e-07
2.70306e-07
2.55342e-07
2.39959e-07
2.24226e-07
2.08212e-07
1.91991e-07
1.75639e-07
1.59239e-07
1.42876e-07
1.26641e-07
1.10629e-07
9.49459e-08
7.97042e-08
6.50305e-08
5.10693e-08
3.7992e-08
2.60144e-08
1.54307e-08
6.70122e-09
7.45227e-10
8.52994e-10
7.67103e-09
1.76692e-08
2.98017e-08
4.35489e-08
5.85811e-08
7.46588e-08
9.15923e-08
1.09223e-07
1.27411e-07
1.46033e-07
1.64974e-07
1.84128e-07
2.03394e-07
2.22677e-07
2.41885e-07
2.60932e-07
2.79733e-07
2.98208e-07
3.16278e-07
3.3387e-07
3.5091e-07
3.67331e-07
3.83066e-07
3.98055e-07
4.12236e-07
4.25556e-07
4.37961e-07
4.49403e-07
4.59837e-07
4.69223e-07
4.77522e-07
4.84701e-07
4.90732e-07
4.95589e-07
4.99252e-07
5.01703e-07
5.02932e-07
5.0293e-07
5.017e-07
4.99231e-07
4.95536e-07
4.90624e-07
4.84511e-07
4.77216e-07
4.68765e-07
4.59186e-07
4.48513e-07
4.36784e-07
4.24042e-07
4.10335e-07
3.95714e-07
3.80236e-07
3.63963e-07
3.46958e-07
3.29292e-07
3.11038e-07
2.92273e-07
2.7308e-07
2.53545e-07
2.33758e-07
2.13815e-07
1.93816e-07
1.73865e-07
1.54074e-07
1.34562e-07
1.15457e-07
9.68964e-08
7.90356e-08
6.20501e-08
4.61482e-08
3.15909e-08
1.87342e-08
8.13442e-09
9.04525e-10
1.00403e-09
9.02982e-09
2.08014e-08
3.50898e-08
5.12852e-08
6.90011e-08
8.7956e-08
1.07927e-07
1.28728e-07
1.50194e-07
1.72179e-07
1.94547e-07
2.17172e-07
2.39936e-07
2.62726e-07
2.85433e-07
3.07954e-07
3.3019e-07
3.52043e-07
3.73423e-07
3.94241e-07
4.14411e-07
4.33852e-07
4.52486e-07
4.7024e-07
4.87043e-07
5.02829e-07
5.17536e-07
5.31107e-07
5.43487e-07
5.54628e-07
5.64487e-07
5.73022e-07
5.80199e-07
5.85988e-07
5.90365e-07
5.93309e-07
5.94805e-07
5.94844e-07
5.93429e-07
5.90546e-07
5.86209e-07
5.80431e-07
5.73228e-07
5.64623e-07
5.54646e-07
5.43331e-07
5.30716e-07
5.16847e-07
5.01776e-07
4.85557e-07
4.68254e-07
4.49932e-07
4.30664e-07
4.10528e-07
3.89606e-07
3.67985e-07
3.45759e-07
3.23025e-07
2.99887e-07
2.76451e-07
2.52833e-07
2.2915e-07
2.05529e-07
1.82103e-07
1.59012e-07
1.36408e-07
1.14457e-07
9.33396e-08
7.32649e-08
5.44781e-08
3.72864e-08
2.21083e-08
9.59834e-09
1.06724e-09
1.15584e-09
1.03955e-08
2.39493e-08
4.04041e-08
5.90596e-08
7.94717e-08
1.01318e-07
1.24341e-07
1.48327e-07
1.73087e-07
1.98453e-07
2.24267e-07
2.50384e-07
2.76667e-07
3.02986e-07
3.29214e-07
3.55234e-07
3.80928e-07
4.06187e-07
4.30904e-07
4.54975e-07
4.78302e-07
5.00792e-07
5.22354e-07
5.42902e-07
5.62355e-07
5.80636e-07
5.97674e-07
6.13401e-07
6.27756e-07
6.40681e-07
6.52124e-07
6.6204e-07
6.70388e-07
6.77133e-07
6.82244e-07
6.857e-07
6.87481e-07
6.87576e-07
6.8599e-07
6.82704e-07
6.77735e-07
6.71095e-07
6.62804e-07
6.52889e-07
6.41382e-07
6.28323e-07
6.13756e-07
5.97734e-07
5.80316e-07
5.61567e-07
5.41557e-07
5.20364e-07
4.98073e-07
4.74774e-07
4.50561e-07
4.25538e-07
3.99813e-07
3.73499e-07
3.46717e-07
3.19592e-07
2.92257e-07
2.64851e-07
2.3752e-07
2.10418e-07
1.8371e-07
1.57572e-07
1.32194e-07
1.07787e-07
8.45923e-08
6.28918e-08
4.30393e-08
2.55165e-08
1.10771e-08
1.23162e-09
1.30699e-09
1.17552e-08
2.70832e-08
4.56946e-08
6.67985e-08
8.98939e-08
1.14616e-07
1.40677e-07
1.67833e-07
1.95872e-07
2.24601e-07
2.53845e-07
2.83438e-07
3.13225e-07
3.43057e-07
3.72794e-07
4.02298e-07
4.3144e-07
4.60092e-07
4.88135e-07
5.15452e-07
5.4193e-07
5.67462e-07
5.91947e-07
6.15287e-07
6.37389e-07
6.58166e-07
6.77537e-07
6.95424e-07
7.11758e-07
7.26473e-07
7.3951e-07
7.50817e-07
7.60346e-07
7.68057e-07
7.73916e-07
7.77897e-07
7.79977e-07
7.80144e-07
7.78401e-07
7.74728e-07
7.69141e-07
7.61654e-07
7.52291e-07
7.41079e-07
7.28056e-07
7.13265e-07
6.96758e-07
6.78594e-07
6.58838e-07
6.37565e-07
6.14856e-07
5.90798e-07
5.65488e-07
5.39028e-07
5.11527e-07
4.83103e-07
4.53878e-07
4.23984e-07
3.93557e-07
3.62741e-07
3.31688e-07
3.00556e-07
2.69513e-07
2.38735e-07
2.08409e-07
1.78735e-07
1.49931e-07
1.22235e-07
9.59196e-08
7.13054e-08
4.87922e-08
2.89249e-08
1.25559e-08
1.396e-09
1.45623e-09
1.30977e-08
3.01773e-08
5.09174e-08
7.44379e-08
1.00181e-07
1.27742e-07
1.568e-07
1.87083e-07
2.18355e-07
2.50403e-07
2.83029e-07
3.16051e-07
3.49294e-07
3.82592e-07
4.15789e-07
4.48732e-07
4.81275e-07
5.13278e-07
5.44604e-07
5.75124e-07
6.04714e-07
6.33252e-07
6.60625e-07
6.86724e-07
7.11446e-07
7.34692e-07
7.56372e-07
7.76399e-07
7.94695e-07
8.11186e-07
8.25807e-07
8.38497e-07
8.49204e-07
8.57881e-07
8.64492e-07
8.69003e-07
8.71392e-07
8.71643e-07
8.69759e-07
8.65716e-07
8.59531e-07
8.51221e-07
8.40809e-07
8.28328e-07
8.13817e-07
7.97325e-07
7.78908e-07
7.58633e-07
7.36573e-07
7.1281e-07
6.87435e-07
6.60547e-07
6.32252e-07
6.02666e-07
5.71912e-07
5.40122e-07
5.07433e-07
4.73993e-07
4.39956e-07
4.05485e-07
3.70749e-07
3.35926e-07
3.01206e-07
2.66786e-07
2.32876e-07
1.99699e-07
1.675e-07
1.36546e-07
1.0714e-07
7.96398e-08
5.4491e-08
3.23012e-08
1.40209e-08
1.55884e-09
1.60249e-09
1.44134e-08
3.32095e-08
5.60353e-08
8.1923e-08
1.1026e-07
1.40601e-07
1.72592e-07
2.05936e-07
2.40373e-07
2.75668e-07
3.11604e-07
3.47979e-07
3.84602e-07
4.21291e-07
4.57872e-07
4.94177e-07
5.30046e-07
5.65323e-07
5.9986e-07
6.33513e-07
6.66145e-07
6.97622e-07
7.2782e-07
7.56619e-07
7.83903e-07
8.09566e-07
8.33507e-07
8.5563e-07
8.75849e-07
8.94082e-07
9.10256e-07
9.24305e-07
9.36171e-07
9.45801e-07
9.53154e-07
9.58195e-07
9.60895e-07
9.61237e-07
9.59226e-07
9.54832e-07
9.48073e-07
9.38967e-07
9.2754e-07
9.13825e-07
8.97867e-07
8.79718e-07
8.59441e-07
8.37106e-07
8.12796e-07
7.866e-07
7.58619e-07
7.28961e-07
6.97745e-07
6.65098e-07
6.31158e-07
5.96068e-07
5.59984e-07
5.23067e-07
4.8549e-07
4.47432e-07
4.09082e-07
3.70638e-07
3.3231e-07
2.94315e-07
2.56887e-07
2.20274e-07
1.84743e-07
1.50591e-07
1.18152e-07
8.7819e-08
6.00838e-08
3.56147e-08
1.54586e-08
1.71866e-09
1.74489e-09
1.56943e-08
3.61612e-08
6.10171e-08
8.92084e-08
1.20069e-07
1.53113e-07
1.87956e-07
2.24276e-07
2.61788e-07
3.00237e-07
3.39387e-07
3.79018e-07
4.18921e-07
4.58899e-07
4.98762e-07
5.38327e-07
5.77419e-07
6.1587e-07
6.53517e-07
6.90204e-07
7.25782e-07
7.60105e-07
7.93037e-07
8.24448e-07
8.54213e-07
8.82214e-07
9.08342e-07
9.32494e-07
9.54573e-07
9.74492e-07
9.92171e-07
1.00754e-06
1.02053e-06
1.03108e-06
1.03916e-06
1.04471e-06
1.04772e-06
1.04815e-06
1.04602e-06
1.0413e-06
1.03399e-06
1.02412e-06
1.01171e-06
9.96809e-07
9.79455e-07
9.59707e-07
9.37631e-07
9.13306e-07
8.86818e-07
8.58268e-07
8.27763e-07
7.95422e-07
7.61374e-07
7.2576e-07
6.88727e-07
6.50436e-07
6.11055e-07
5.70762e-07
5.29746e-07
4.88204e-07
4.46343e-07
4.04381e-07
3.62545e-07
3.21076e-07
2.80229e-07
2.40274e-07
2.01505e-07
1.64244e-07
1.28856e-07
9.577e-08
6.55205e-08
3.88357e-08
1.68562e-08
1.87402e-09
1.88273e-09
1.69341e-08
3.90182e-08
6.58384e-08
9.62582e-08
1.29558e-07
1.65216e-07
2.02816e-07
2.4201e-07
2.82491e-07
3.23983e-07
3.66233e-07
4.09002e-07
4.52066e-07
4.9521e-07
5.38231e-07
5.80931e-07
6.23122e-07
6.64621e-07
7.05253e-07
7.44851e-07
7.83252e-07
8.20301e-07
8.55852e-07
8.89762e-07
9.21899e-07
9.52135e-07
9.80353e-07
1.00644e-06
1.0303e-06
1.05182e-06
1.07094e-06
1.08756e-06
1.10162e-06
1.11305e-06
1.12181e-06
1.12786e-06
1.13115e-06
1.13167e-06
1.12943e-06
1.12438e-06
1.11654e-06
1.10594e-06
1.0926e-06
1.07656e-06
1.05787e-06
1.03659e-06
1.01279e-06
9.86555e-07
9.57982e-07
9.27174e-07
8.94249e-07
8.59334e-07
8.22569e-07
7.84106e-07
7.44104e-07
7.02738e-07
6.60189e-07
6.16652e-07
5.7233e-07
5.27437e-07
4.82199e-07
4.36851e-07
3.91641e-07
3.4683e-07
3.02692e-07
2.59521e-07
2.17636e-07
1.77383e-07
1.39157e-07
1.03421e-07
7.07522e-08
4.19353e-08
1.82011e-08
2.02352e-09
2.01551e-09
1.81284e-08
4.17701e-08
7.04817e-08
1.03047e-07
1.38695e-07
1.76866e-07
2.17116e-07
2.5907e-07
3.02401e-07
3.46814e-07
3.92034e-07
4.37809e-07
4.83897e-07
5.30068e-07
5.76105e-07
6.21796e-07
6.66938e-07
7.11339e-07
7.5481e-07
7.97172e-07
8.38251e-07
8.77884e-07
9.15911e-07
9.52184e-07
9.86559e-07
1.0189e-06
1.04909e-06
1.077e-06
1.10252e-06
1.12555e-06
1.14601e-06
1.1638e-06
1.17885e-06
1.1911e-06
1.2005e-06
1.20699e-06
1.21054e-06
1.21113e-06
1.20877e-06
1.2034e-06
1.19505e-06
1.18375e-06
1.16951e-06
1.15239e-06
1.13242e-06
1.10969e-06
1.08425e-06
1.05621e-06
1.02565e-06
9.92704e-07
9.57481e-07
9.20123e-07
8.80778e-07
8.39609e-07
7.96788e-07
7.52499e-07
7.06941e-07
6.60319e-07
6.12853e-07
5.64775e-07
5.16324e-07
4.67756e-07
4.19335e-07
3.71342e-07
3.24072e-07
2.77842e-07
2.32989e-07
1.89889e-07
1.48962e-07
1.10704e-07
7.57315e-08
4.48852e-08
1.94811e-08
2.16579e-09
2.14295e-09
1.92746e-08
4.44108e-08
7.49369e-08
1.09559e-07
1.47457e-07
1.88036e-07
2.30821e-07
2.75416e-07
3.2147e-07
3.68669e-07
4.16723e-07
4.65359e-07
5.14322e-07
5.63368e-07
6.12263e-07
6.60784e-07
7.08717e-07
7.55854e-07
8.01997e-07
8.46956e-07
8.90547e-07
9.32597e-07
9.72937e-07
1.01141e-06
1.04787e-06
1.08216e-06
1.11417e-06
1.14375e-06
1.17081e-06
1.19522e-06
1.2169e-06
1.23576e-06
1.25171e-06
1.26469e-06
1.27465e-06
1.28153e-06
1.2853e-06
1.28592e-06
1.28341e-06
1.27773e-06
1.26888e-06
1.2569e-06
1.2418e-06
1.22365e-06
1.20248e-06
1.17837e-06
1.15139e-06
1.12164e-06
1.08923e-06
1.05426e-06
1.01688e-06
9.77231e-07
9.35465e-07
8.91757e-07
8.46289e-07
7.99259e-07
7.50874e-07
7.01357e-07
6.5094e-07
5.99869e-07
5.484e-07
4.96806e-07
4.45368e-07
3.94384e-07
3.44171e-07
2.95063e-07
2.47422e-07
2.01644e-07
1.58178e-07
1.17549e-07
8.04115e-08
4.76577e-08
2.0684e-08
2.29951e-09
2.26497e-09
2.0372e-08
4.69388e-08
7.92013e-08
1.15791e-07
1.5584e-07
1.98718e-07
2.43923e-07
2.91034e-07
3.39681e-07
3.89528e-07
4.40269e-07
4.91617e-07
5.43298e-07
5.95056e-07
6.46643e-07
6.97822e-07
7.48368e-07
7.98061e-07
8.46693e-07
8.94064e-07
9.3998e-07
9.84259e-07
1.02673e-06
1.06721e-06
1.10557e-06
1.14164e-06
1.17529e-06
1.20638e-06
1.23481e-06
1.26045e-06
1.28321e-06
1.303e-06
1.31973e-06
1.33334e-06
1.34376e-06
1.35095e-06
1.35486e-06
1.35547e-06
1.35279e-06
1.34677e-06
1.33742e-06
1.32477e-06
1.30886e-06
1.28972e-06
1.26742e-06
1.24201e-06
1.2136e-06
1.18226e-06
1.14811e-06
1.11128e-06
1.07189e-06
1.03012e-06
9.86109e-07
9.4005e-07
8.92133e-07
8.42565e-07
7.91566e-07
7.39368e-07
6.86219e-07
6.32378e-07
5.78116e-07
5.23718e-07
4.69486e-07
4.15733e-07
3.62792e-07
3.11018e-07
2.60793e-07
2.12534e-07
1.66715e-07
1.23889e-07
8.47466e-08
5.02258e-08
2.17982e-08
2.42337e-09
2.38172e-09
2.14219e-08
4.93573e-08
8.328e-08
1.21749e-07
1.63852e-07
2.08924e-07
2.56434e-07
3.05939e-07
3.57047e-07
4.09406e-07
4.62689e-07
5.16594e-07
5.70834e-07
6.25135e-07
6.79239e-07
7.32896e-07
7.85867e-07
8.37924e-07
8.88847e-07
9.38427e-07
9.86463e-07
1.03276e-06
1.07715e-06
1.11944e-06
1.15949e-06
1.19713e-06
1.23222e-06
1.26463e-06
1.29424e-06
1.32093e-06
1.3446e-06
1.36516e-06
1.38252e-06
1.39662e-06
1.40738e-06
1.41477e-06
1.41875e-06
1.41928e-06
1.41637e-06
1.40997e-06
1.40011e-06
1.38681e-06
1.3701e-06
1.35003e-06
1.32666e-06
1.30005e-06
1.27029e-06
1.23748e-06
1.20174e-06
1.16319e-06
1.12197e-06
1.07826e-06
1.0322e-06
9.84001e-07
9.33854e-07
8.81977e-07
8.28599e-07
7.73964e-07
7.1833e-07
6.61968e-07
6.05164e-07
5.48217e-07
4.91441e-07
4.35167e-07
3.79744e-07
3.25543e-07
2.72964e-07
2.22447e-07
1.74486e-07
1.2966e-07
8.86918e-08
5.25629e-08
2.28122e-08
2.53607e-09
2.49359e-09
2.24279e-08
5.16742e-08
8.71864e-08
1.27455e-07
1.7152e-07
2.18685e-07
2.68393e-07
3.20175e-07
3.7362e-07
4.28355e-07
4.84039e-07
5.4035e-07
5.96987e-07
6.53664e-07
7.10106e-07
7.66053e-07
8.21255e-07
8.75473e-07
9.28478e-07
9.80051e-07
1.02998e-06
1.07808e-06
1.12415e-06
1.16802e-06
1.20953e-06
1.2485e-06
1.28481e-06
1.31831e-06
1.34888e-06
1.37641e-06
1.40079e-06
1.42193e-06
1.43974e-06
1.45417e-06
1.46513e-06
1.4726e-06
1.47652e-06
1.47687e-06
1.47367e-06
1.46685e-06
1.45645e-06
1.44249e-06
1.425e-06
1.40403e-06
1.37964e-06
1.3519e-06
1.32091e-06
1.28676e-06
1.24957e-06
1.20946e-06
1.1666e-06
1.12114e-06
1.07325e-06
1.02314e-06
9.71002e-07
9.17066e-07
8.61569e-07
8.04764e-07
7.46918e-07
6.88313e-07
6.29247e-07
5.7003e-07
5.1099e-07
4.52472e-07
3.94838e-07
3.38475e-07
2.83801e-07
2.31273e-07
1.81404e-07
1.34797e-07
9.22035e-08
5.46429e-08
2.37145e-08
2.63637e-09
2.60119e-09
2.33955e-08
5.39021e-08
9.09418e-08
1.32937e-07
1.78885e-07
2.28055e-07
2.79862e-07
3.33816e-07
3.89482e-07
4.46469e-07
5.04418e-07
5.62991e-07
6.2187e-07
6.80755e-07
7.39359e-07
7.97408e-07
8.54641e-07
9.1081e-07
9.65676e-07
1.01901e-06
1.07061e-06
1.12026e-06
1.16777e-06
1.21296e-06
1.25566e-06
1.29572e-06
1.33298e-06
1.36732e-06
1.39861e-06
1.42673e-06
1.45158e-06
1.47308e-06
1.49114e-06
1.5057e-06
1.51669e-06
1.52406e-06
1.52779e-06
1.52785e-06
1.52426e-06
1.51694e-06
1.50595e-06
1.4913e-06
1.47304e-06
1.4512e-06
1.42585e-06
1.39707e-06
1.36494e-06
1.32957e-06
1.29108e-06
1.24959e-06
1.20527e-06
1.15828e-06
1.10879e-06
1.05701e-06
1.00314e-06
9.47416e-07
8.90083e-07
8.31399e-07
7.7164e-07
7.11096e-07
6.50074e-07
5.88895e-07
5.27897e-07
4.67437e-07
4.07891e-07
3.4966e-07
2.93173e-07
2.38904e-07
1.87385e-07
1.39238e-07
9.5239e-08
5.64407e-08
2.44944e-08
2.72306e-09
2.70537e-09
2.43322e-08
5.60586e-08
9.45757e-08
1.3824e-07
1.86004e-07
2.37104e-07
2.9093e-07
3.46963e-07
4.0475e-07
4.63878e-07
5.2397e-07
5.84669e-07
6.45644e-07
7.06577e-07
7.67169e-07
8.27132e-07
8.86196e-07
9.44101e-07
1.0006e-06
1.05546e-06
1.10847e-06
1.15941e-06
1.20808e-06
1.25432e-06
1.29794e-06
1.33879e-06
1.37673e-06
1.41162e-06
1.44334e-06
1.47178e-06
1.49685e-06
1.51845e-06
1.53651e-06
1.55097e-06
1.56177e-06
1.56887e-06
1.57224e-06
1.57186e-06
1.56775e-06
1.55985e-06
1.54819e-06
1.53282e-06
1.51376e-06
1.49107e-06
1.4648e-06
1.43505e-06
1.40188e-06
1.36542e-06
1.32578e-06
1.28309e-06
1.23751e-06
1.18921e-06
1.13836e-06
1.08517e-06
1.02985e-06
9.72628e-07
9.13763e-07
8.53515e-07
7.92165e-07
7.3001e-07
6.67364e-07
6.04556e-07
5.41934e-07
4.79863e-07
4.18729e-07
3.58945e-07
3.00953e-07
2.45239e-07
1.92349e-07
1.42924e-07
9.77576e-08
5.79321e-08
2.51413e-08
2.79495e-09
2.8072e-09
2.52477e-08
5.81659e-08
9.81253e-08
1.43417e-07
1.9295e-07
2.45926e-07
3.01706e-07
3.59747e-07
4.19573e-07
4.80749e-07
5.42878e-07
6.05585e-07
6.6852e-07
7.31352e-07
7.93764e-07
8.5546e-07
9.16154e-07
9.75578e-07
1.03348e-06
1.08962e-06
1.14377e-06
1.19572e-06
1.24527e-06
1.29225e-06
1.33649e-06
1.37782e-06
1.41612e-06
1.45124e-06
1.48309e-06
1.51154e-06
1.53651e-06
1.55793e-06
1.57571e-06
1.58981e-06
1.60018e-06
1.60679e-06
1.6096e-06
1.60861e-06
1.60382e-06
1.59521e-06
1.58281e-06
1.56664e-06
1.54676e-06
1.52322e-06
1.49607e-06
1.46539e-06
1.43129e-06
1.39386e-06
1.35322e-06
1.30951e-06
1.26288e-06
1.21349e-06
1.16153e-06
1.10721e-06
1.05073e-06
9.92324e-07
9.3225e-07
8.70774e-07
8.08178e-07
7.44764e-07
6.80851e-07
6.16772e-07
5.52883e-07
4.89555e-07
4.27183e-07
3.66187e-07
3.0702e-07
2.50178e-07
1.96219e-07
1.45796e-07
9.97203e-08
5.90941e-08
2.56452e-08
2.85096e-09
2.90795e-09
2.61534e-08
6.02503e-08
1.01635e-07
1.48533e-07
1.99809e-07
2.54629e-07
3.12325e-07
3.72326e-07
4.34131e-07
4.97284e-07
5.61364e-07
6.25978e-07
6.90755e-07
7.55348e-07
8.19426e-07
8.82676e-07
9.44804e-07
1.00553e-06
1.06459e-06
1.12175e-06
1.17677e-06
1.22944e-06
1.27957e-06
1.32697e-06
1.37148e-06
1.41296e-06
1.45127e-06
1.48628e-06
1.51789e-06
1.54601e-06
1.57056e-06
1.59146e-06
1.60866e-06
1.62211e-06
1.63177e-06
1.63762e-06
1.63964e-06
1.63784e-06
1.6322e-06
1.62273e-06
1.60946e-06
1.59243e-06
1.57167e-06
1.54726e-06
1.51924e-06
1.48771e-06
1.45274e-06
1.41446e-06
1.37298e-06
1.32842e-06
1.28095e-06
1.23072e-06
1.17792e-06
1.12275e-06
1.06541e-06
1.00615e-06
9.4521e-07
8.8286e-07
8.19385e-07
7.55086e-07
6.90283e-07
6.25316e-07
5.6054e-07
4.96333e-07
4.33095e-07
3.71252e-07
3.11263e-07
2.53632e-07
1.98924e-07
1.47803e-07
1.01091e-07
5.99053e-08
2.59968e-08
2.89004e-09
3.00911e-09
2.70628e-08
6.23427e-08
1.05157e-07
1.53664e-07
2.06683e-07
2.63342e-07
3.2294e-07
3.84881e-07
4.48633e-07
5.13717e-07
5.79686e-07
6.46127e-07
7.12648e-07
7.78881e-07
8.4448e-07
9.09117e-07
9.72486e-07
1.0343e-06
1.09428e-06
1.15219e-06
1.20779e-06
1.26087e-06
1.31124e-06
1.35872e-06
1.40316e-06
1.44441e-06
1.48235e-06
1.51687e-06
1.54787e-06
1.57528e-06
1.59903e-06
1.61906e-06
1.63532e-06
1.64779e-06
1.65643e-06
1.66123e-06
1.6622e-06
1.65935e-06
1.65266e-06
1.64216e-06
1.62789e-06
1.60988e-06
1.58818e-06
1.56286e-06
1.53399e-06
1.50163e-06
1.46589e-06
1.42687e-06
1.38468e-06
1.33947e-06
1.29136e-06
1.24054e-06
1.18716e-06
1.13144e-06
1.07357e-06
1.01379e-06
9.52338e-07
8.89487e-07
8.25516e-07
7.60725e-07
6.95434e-07
6.2998e-07
5.6472e-07
5.00034e-07
4.36324e-07
3.74018e-07
3.13579e-07
2.55516e-07
2.00399e-07
1.48896e-07
1.01837e-07
6.03462e-08
2.61879e-08
2.91126e-09
3.11233e-09
2.79907e-08
6.44772e-08
1.08749e-07
1.58894e-07
2.13683e-07
2.72205e-07
3.33726e-07
3.97614e-07
4.63312e-07
5.30308e-07
5.98133e-07
6.66344e-07
7.3453e-07
8.02301e-07
8.69291e-07
9.35158e-07
9.9958e-07
1.06226e-06
1.12292e-06
1.1813e-06
1.23719e-06
1.29035e-06
1.34062e-06
1.38781e-06
1.43178e-06
1.47241e-06
1.50957e-06
1.54318e-06
1.57317e-06
1.59945e-06
1.62199e-06
1.64075e-06
1.6557e-06
1.66681e-06
1.6741e-06
1.67754e-06
1.67716e-06
1.67299e-06
1.66502e-06
1.6533e-06
1.63786e-06
1.61875e-06
1.59603e-06
1.56976e-06
1.54001e-06
1.50687e-06
1.47042e-06
1.43077e-06
1.38802e-06
1.34232e-06
1.29381e-06
1.24262e-06
1.18895e-06
1.13298e-06
1.0749e-06
1.01495e-06
9.53368e-07
8.90403e-07
8.26337e-07
7.61465e-07
6.96101e-07
6.30581e-07
5.65259e-07
5.00512e-07
4.36741e-07
3.74376e-07
3.13879e-07
2.55759e-07
2.00587e-07
1.49034e-07
1.0193e-07
6.04004e-08
2.62111e-08
2.91383e-09
3.2194e-09
2.89533e-08
6.66911e-08
1.12473e-07
1.64314e-07
2.20932e-07
2.81375e-07
3.44868e-07
4.10747e-07
4.78419e-07
5.47342e-07
6.17015e-07
6.86969e-07
7.56764e-07
8.25988e-07
8.94253e-07
9.612e-07
1.02649e-06
1.08982e-06
1.15091e-06
1.20949e-06
1.26534e-06
1.31824e-06
1.36803e-06
1.41454e-06
1.45763e-06
1.4972e-06
1.53315e-06
1.56541e-06
1.59392e-06
1.61864e-06
1.63954e-06
1.65659e-06
1.66981e-06
1.67918e-06
1.68472e-06
1.68646e-06
1.68443e-06
1.67865e-06
1.66915e-06
1.65599e-06
1.63921e-06
1.61887e-06
1.59503e-06
1.56776e-06
1.53714e-06
1.50324e-06
1.46616e-06
1.42599e-06
1.38285e-06
1.33686e-06
1.28815e-06
1.23687e-06
1.18319e-06
1.12728e-06
1.06933e-06
1.00957e-06
9.48228e-07
8.85542e-07
8.21786e-07
7.57246e-07
6.92232e-07
6.2707e-07
5.62109e-07
4.97723e-07
4.34308e-07
3.72289e-07
3.12128e-07
2.54329e-07
1.99463e-07
1.48196e-07
1.01354e-07
6.0058e-08
2.60621e-08
2.89724e-09
3.33226e-09
2.99678e-08
6.90241e-08
1.16397e-07
1.70021e-07
2.2856e-07
2.91014e-07
3.56567e-07
4.24514e-07
4.94224e-07
5.65119e-07
6.36664e-07
7.08356e-07
7.79728e-07
8.50338e-07
9.19777e-07
9.87664e-07
1.05365e-06
1.11741e-06
1.17866e-06
1.23714e-06
1.29262e-06
1.3449e-06
1.39381e-06
1.43921e-06
1.48098e-06
1.51904e-06
1.5533e-06
1.58373e-06
1.61028e-06
1.63295e-06
1.65173e-06
1.66662e-06
1.67766e-06
1.68486e-06
1.68828e-06
1.68795e-06
1.68393e-06
1.67625e-06
1.66496e-06
1.65014e-06
1.63184e-06
1.61013e-06
1.58506e-06
1.55673e-06
1.52519e-06
1.49054e-06
1.45287e-06
1.41227e-06
1.36885e-06
1.32272e-06
1.27402e-06
1.22288e-06
1.16945e-06
1.11391e-06
1.05644e-06
9.97232e-07
9.36511e-07
8.74513e-07
8.11492e-07
7.47726e-07
6.83509e-07
6.1916e-07
5.55018e-07
4.91447e-07
4.28835e-07
3.67601e-07
3.08199e-07
2.51129e-07
1.96953e-07
1.4633e-07
1.00077e-07
5.93005e-08
2.5733e-08
2.86065e-09
3.45288e-09
3.10522e-08
7.15174e-08
1.20589e-07
1.76117e-07
2.36702e-07
3.01294e-07
3.69028e-07
4.39155e-07
5.11001e-07
5.83947e-07
6.57417e-07
7.30871e-07
8.03807e-07
8.75754e-07
9.46275e-07
1.01497e-06
1.08146e-06
1.14543e-06
1.20657e-06
1.26463e-06
1.31939e-06
1.37065e-06
1.41826e-06
1.4621e-06
1.50207e-06
1.53811e-06
1.57018e-06
1.59825e-06
1.62234e-06
1.64244e-06
1.65859e-06
1.67084e-06
1.67925e-06
1.68386e-06
1.68474e-06
1.68195e-06
1.67558e-06
1.66567e-06
1.65232e-06
1.63559e-06
1.61556e-06
1.5923e-06
1.56589e-06
1.53641e-06
1.50393e-06
1.46855e-06
1.43034e-06
1.38941e-06
1.34585e-06
1.29977e-06
1.2513e-06
1.20055e-06
1.14767e-06
1.09282e-06
1.03616e-06
9.77877e-07
9.18177e-07
8.5728e-07
7.95425e-07
7.32874e-07
6.69907e-07
6.06828e-07
5.43963e-07
4.81662e-07
4.20304e-07
3.60295e-07
3.02079e-07
2.46145e-07
1.93046e-07
1.43427e-07
9.80914e-08
5.81236e-08
2.52222e-08
2.80386e-09
3.58329e-09
3.22245e-08
7.42128e-08
1.2512e-07
1.82703e-07
2.45495e-07
3.12386e-07
3.8246e-07
4.54916e-07
5.29031e-07
6.04137e-07
6.79612e-07
7.54875e-07
8.29383e-07
9.02628e-07
9.74145e-07
1.0435e-06
1.11032e-06
1.17425e-06
1.235e-06
1.2923e-06
1.34594e-06
1.39575e-06
1.4416e-06
1.48338e-06
1.52103e-06
1.55452e-06
1.58385e-06
1.60902e-06
1.63008e-06
1.64708e-06
1.6601e-06
1.66921e-06
1.67449e-06
1.67604e-06
1.67396e-06
1.66833e-06
1.65926e-06
1.64682e-06
1.63113e-06
1.61226e-06
1.59031e-06
1.56537e-06
1.53751e-06
1.50682e-06
1.47338e-06
1.43728e-06
1.39861e-06
1.35745e-06
1.3139e-06
1.26805e-06
1.22002e-06
1.16992e-06
1.11787e-06
1.06402e-06
1.00852e-06
9.51531e-07
8.93244e-07
8.3386e-07
7.736e-07
7.12704e-07
6.51437e-07
5.90083e-07
5.28951e-07
4.68377e-07
4.0872e-07
3.50375e-07
2.93771e-07
2.39381e-07
1.87745e-07
1.39491e-07
9.53994e-08
5.65284e-08
2.45298e-08
2.72689e-09
3.72548e-09
3.35028e-08
7.71516e-08
1.30059e-07
1.8988e-07
2.55072e-07
3.24461e-07
3.97068e-07
4.72036e-07
5.48583e-07
6.25988e-07
7.03575e-07
7.80713e-07
8.56812e-07
9.31325e-07
1.00375e-06
1.07363e-06
1.14057e-06
1.20419e-06
1.26422e-06
1.32038e-06
1.37248e-06
1.42037e-06
1.46393e-06
1.50311e-06
1.53788e-06
1.56825e-06
1.59424e-06
1.61593e-06
1.63339e-06
1.64674e-06
1.65607e-06
1.66151e-06
1.66318e-06
1.66123e-06
1.65576e-06
1.64691e-06
1.6348e-06
1.61954e-06
1.60125e-06
1.58003e-06
1.556e-06
1.52924e-06
1.49984e-06
1.46791e-06
1.43352e-06
1.39675e-06
1.35769e-06
1.31642e-06
1.27303e-06
1.2276e-06
1.18024e-06
1.13104e-06
1.08012e-06
1.02759e-06
9.73586e-07
9.18262e-07
8.61779e-07
8.04316e-07
7.46074e-07
6.87272e-07
6.2815e-07
5.68973e-07
5.10028e-07
4.5163e-07
3.9412e-07
3.37874e-07
2.83302e-07
2.30861e-07
1.81068e-07
1.34534e-07
9.20108e-08
5.45208e-08
2.36587e-08
2.63005e-09
3.88136e-09
3.49042e-08
8.03732e-08
1.35473e-07
1.97745e-07
2.65563e-07
3.37679e-07
4.13046e-07
4.9074e-07
5.69914e-07
6.49781e-07
7.29606e-07
8.08699e-07
8.86414e-07
9.6216e-07
1.03539e-06
1.10563e-06
1.17244e-06
1.23547e-06
1.29439e-06
1.34899e-06
1.39906e-06
1.4445e-06
1.48522e-06
1.5212e-06
1.55246e-06
1.57907e-06
1.6011e-06
1.61868e-06
1.63195e-06
1.64105e-06
1.64612e-06
1.64737e-06
1.64497e-06
1.63905e-06
1.6298e-06
1.61737e-06
1.60191e-06
1.58356e-06
1.56246e-06
1.53872e-06
1.51247e-06
1.48382e-06
1.45285e-06
1.41967e-06
1.38435e-06
1.34699e-06
1.30765e-06
1.26642e-06
1.22337e-06
1.17857e-06
1.13212e-06
1.08409e-06
1.03458e-06
9.83692e-07
9.31538e-07
8.78244e-07
8.23949e-07
7.6881e-07
7.13003e-07
6.56721e-07
6.0018e-07
5.4362e-07
4.87303e-07
4.31521e-07
3.76592e-07
3.22868e-07
2.70738e-07
2.20637e-07
1.7306e-07
1.28589e-07
8.7948e-08
5.21144e-08
2.26146e-08
2.51399e-09
4.05272e-09
3.64445e-08
8.39142e-08
1.41423e-07
2.06387e-07
2.77086e-07
3.52189e-07
4.30573e-07
5.11234e-07
5.93252e-07
6.75766e-07
7.57967e-07
8.39096e-07
9.18449e-07
9.95377e-07
1.06929e-06
1.13968e-06
1.20609e-06
1.26814e-06
1.32554e-06
1.37807e-06
1.42556e-06
1.46794e-06
1.50517e-06
1.53728e-06
1.56436e-06
1.58653e-06
1.60392e-06
1.61674e-06
1.62517e-06
1.62939e-06
1.62969e-06
1.62625e-06
1.61928e-06
1.60899e-06
1.59559e-06
1.57927e-06
1.5602e-06
1.53854e-06
1.51446e-06
1.48809e-06
1.45956e-06
1.42898e-06
1.39645e-06
1.36208e-06
1.32593e-06
1.28809e-06
1.24863e-06
1.20762e-06
1.16512e-06
1.12119e-06
1.07591e-06
1.02934e-06
9.81551e-07
9.32632e-07
8.82669e-07
8.31767e-07
7.80038e-07
7.27616e-07
6.74646e-07
6.21297e-07
5.67755e-07
5.14234e-07
4.60968e-07
4.08221e-07