/*--------------------------------*- C++ -*----------------------------------*\
  =========                 |
  \\      /  F ield         | OpenFOAM: The Open Source CFD Toolbox
   \\    /   O peration     | Website:  https://openfoam.org
    \\  /    A nd           | Version:  12
     \\/     M anipulation  |
\*---------------------------------------------------------------------------*/
FoamFile
{
    format      ascii;
    class       surfaceScalarField;
    location    "4.5";
    object      phi;
}
// * * * * * * * * * * * * * * * * * * * * * * * * * * * * * * * * * * * * * //

dimensions      [0 3 -1 0 0 0 0];

internalField   nonuniform List<scalar> 
11100
(
-3.14649e-11
3.14929e-11
-7.92762e-11
4.78131e-11
-1.14314e-10
3.50383e-11
-1.1932e-10
5.00611e-12
-8.4834e-11
-3.44854e-11
-5.97688e-12
-7.88566e-11
1.18872e-10
-1.24848e-10
2.89188e-10
-1.70316e-10
5.02998e-10
-2.1381e-10
7.57378e-10
-2.5438e-10
1.04879e-09
-2.91408e-10
1.37329e-09
-3.24503e-10
1.72673e-09
-3.53437e-10
2.10482e-09
-3.78089e-10
2.50324e-09
-3.98421e-10
2.91769e-09
-4.14451e-10
3.34393e-09
-4.26241e-10
3.77781e-09
-4.33889e-10
4.21533e-09
-4.37516e-10
4.65259e-09
-4.37264e-10
5.08589e-09
-4.33294e-10
5.51167e-09
-4.2578e-10
5.92657e-09
-4.14908e-10
6.32744e-09
-4.00872e-10
6.71132e-09
-3.83875e-10
7.07545e-09
-3.64129e-10
7.4173e-09
-3.41848e-10
7.73455e-09
-3.17251e-10
8.02511e-09
-2.90561e-10
8.28711e-09
-2.62002e-10
8.51891e-09
-2.31801e-10
8.71909e-09
-2.00183e-10
8.88647e-09
-1.67374e-10
9.02006e-09
-1.33599e-10
9.11915e-09
-9.90825e-11
9.18319e-09
-6.4045e-11
9.2119e-09
-2.87063e-11
9.20518e-09
6.71688e-12
9.16317e-09
4.20107e-11
9.08621e-09
7.69653e-11
8.97483e-09
1.11372e-10
8.82981e-09
1.45026e-10
8.65208e-09
1.77727e-10
8.44281e-09
2.09276e-10
8.20333e-09
2.39476e-10
7.93519e-09
2.68137e-10
7.64013e-09
2.95068e-10
7.32005e-09
3.20082e-10
6.97705e-09
3.42993e-10
6.61344e-09
3.63619e-10
6.23166e-09
3.8178e-10
5.83436e-09
3.97299e-10
5.42436e-09
4.1e-10
5.00465e-09
4.1971e-10
4.57839e-09
4.2626e-10
4.14891e-09
4.29487e-10
3.71968e-09
4.2923e-10
3.29434e-09
4.25339e-10
2.87667e-09
4.17671e-10
2.47057e-09
4.06096e-10
2.08007e-09
3.90507e-10
1.70925e-09
3.70817e-10
1.36227e-09
3.46979e-10
1.04327e-09
3.18998e-10
7.56324e-10
2.86951e-10
5.05302e-10
2.51023e-10
2.9375e-10
2.11552e-10
1.24651e-10
1.691e-10
7.85365e-14
1.24572e-10
-7.93194e-11
7.93983e-11
-1.14911e-10
3.55916e-11
-1.11363e-10
-3.54709e-12
-7.77485e-11
-3.36143e-11
-3.10384e-11
-4.67096e-11
-3.10382e-11
-1.55555e-11
4.70487e-11
-1.49871e-11
4.72449e-11
3.77316e-11
-1.76805e-11
1.66649e-10
-1.23911e-10
3.87326e-10
-2.55163e-10
7.08306e-10
-3.99836e-10
1.13299e-09
-5.49536e-10
1.66085e-09
-6.98171e-10
2.28838e-09
-8.41346e-10
3.00992e-09
-9.75915e-10
3.81816e-09
-1.09965e-09
4.70465e-09
-1.211e-09
5.66013e-09
-1.30892e-09
6.6748e-09
-1.39275e-09
7.73851e-09
-1.46214e-09
8.841e-09
-1.51694e-09
9.97195e-09
-1.55719e-09
1.11212e-08
-1.5831e-09
1.22786e-08
-1.59495e-09
1.34345e-08
-1.59316e-09
1.45794e-08
-1.5782e-09
1.57043e-08
-1.55063e-09
1.68004e-08
-1.51104e-09
1.78596e-08
-1.46009e-09
1.88742e-08
-1.39846e-09
1.98369e-08
-1.32688e-09
2.07412e-08
-1.24609e-09
2.15808e-08
-1.15687e-09
2.23502e-08
-1.06e-09
2.30445e-08
-9.56288e-10
2.36592e-08
-8.46536e-10
2.41906e-08
-7.3156e-10
2.46354e-08
-6.12177e-10
2.4991e-08
-4.89204e-10
2.52554e-08
-3.63456e-10
2.54271e-08
-2.35742e-10
2.55053e-08
-1.06867e-10
2.54896e-08
2.23739e-11
2.53804e-08
1.51193e-10
2.51786e-08
2.78813e-10
2.48855e-08
4.04466e-10
2.45031e-08
5.27397e-10
2.4034e-08
6.4686e-10
2.34811e-08
7.62124e-10
2.28481e-08
8.72466e-10
2.21391e-08
9.77178e-10
2.13586e-08
1.07556e-09
2.05117e-08
1.16694e-09
1.96041e-08
1.25063e-09
1.86417e-08
1.32598e-09
1.76312e-08
1.39234e-09
1.65794e-08
1.4491e-09
1.54938e-08
1.49563e-09
1.43821e-08
1.53135e-09
1.32527e-08
1.55569e-09
1.2114e-08
1.56813e-09
1.09751e-08
1.56815e-09
9.84516e-09
1.5553e-09
8.73363e-09
1.5292e-09
7.65023e-09
1.4895e-09
6.60476e-09
1.43598e-09
5.60705e-09
1.36853e-09
4.66684e-09
1.28719e-09
3.79363e-09
1.19221e-09
2.99645e-09
1.08413e-09
2.28364e-09
9.63837e-10
1.66246e-09
8.32731e-10
1.13868e-09
6.92877e-10
7.15994e-10
5.47261e-10
3.95282e-10
4.00111e-10
1.73508e-10
2.57366e-10
4.26825e-11
1.27279e-10
-1.22568e-11
2.13257e-11
-1.46968e-11
-4.42689e-11
-4.57347e-11
2.56697e-11
2.13786e-11
1.32571e-10
-5.96566e-11
3.45091e-10
-2.30201e-10
6.81316e-10
-4.60136e-10
1.15331e-09
-7.27153e-10
1.76775e-09
-1.01428e-09
2.52668e-09
-1.30846e-09
3.42818e-09
-1.59967e-09
4.4671e-09
-1.88027e-09
5.63566e-09
-2.14447e-09
6.924e-09
-2.38798e-09
8.32064e-09
-2.60763e-09
9.81288e-09
-2.80116e-09
1.13872e-08
-2.96704e-09
1.30293e-08
-3.1043e-09
1.47248e-08
-3.21245e-09
1.6459e-08
-3.29138e-09
1.82172e-08
-3.34131e-09
1.9985e-08
-3.36269e-09
2.1748e-08
-3.35621e-09
2.34926e-08
-3.32275e-09
2.52053e-08
-3.26334e-09
2.68734e-08
-3.17913e-09
2.84847e-08
-3.07141e-09
3.00278e-08
-2.94153e-09
3.14918e-08
-2.79094e-09
3.28669e-08
-2.62117e-09
3.41438e-08
-2.43377e-09
3.53142e-08
-2.23037e-09
3.63705e-08
-2.0126e-09
3.73061e-08
-1.78213e-09
3.81152e-08
-1.54066e-09
3.87929e-08
-1.28989e-09
3.93352e-08
-1.03151e-09
3.9739e-08
-7.67228e-10
4.0002e-08
-4.98748e-10
4.01228e-08
-2.27752e-10
4.01011e-08
4.40838e-11
3.99372e-08
3.15102e-10
3.96324e-08
5.83663e-10
3.91887e-08
8.48149e-10
3.86091e-08
1.10696e-09
3.78974e-08
1.35853e-09
3.70583e-08
1.60132e-09
3.60969e-08
1.83379e-09
3.50196e-08
2.05446e-09
3.38333e-08
2.26187e-09
3.25457e-08
2.45459e-09
3.11651e-08
2.63121e-09
2.97007e-08
2.79038e-09
2.81623e-08
2.93076e-09
2.65603e-08
3.05109e-09
2.49058e-08
3.15012e-09
2.32105e-08
3.22668e-09
2.14865e-08
3.27967e-09
1.97466e-08
3.30805e-09
1.80038e-08
3.3109e-09
1.62718e-08
3.28738e-09
1.45641e-08
3.23683e-09
1.28949e-08
3.15875e-09
1.1278e-08
3.05284e-09
9.72744e-09
2.91909e-09
8.2568e-09
2.75783e-09
6.87922e-09
2.56979e-09
5.60706e-09
2.35629e-09
4.45159e-09
2.1193e-09
3.42264e-09
1.86169e-09
2.52804e-09
1.58747e-09
1.77321e-09
1.3021e-09
1.16041e-09
1.01291e-09
6.88123e-10
7.2965e-10
3.50288e-10
4.65115e-10
1.35552e-10
2.36062e-10
2.66382e-11
6.46452e-11
-1.90962e-11
7.2338e-11
-5.09598e-11
3.00728e-10
-2.88047e-10
6.95711e-10
-6.25184e-10
1.26545e-09
-1.02987e-09
2.01484e-09
-1.47655e-09
2.94531e-09
-1.94476e-09
4.05488e-09
-2.41803e-09
5.33837e-09
-2.88317e-09
6.7878e-09
-3.32969e-09
8.3927e-09
-3.74938e-09
1.01405e-08
-4.13584e-09
1.20171e-08
-4.48422e-09
1.40069e-08
-4.79093e-09
1.60933e-08
-5.05341e-09
1.8259e-08
-5.26997e-09
2.04862e-08
-5.43966e-09
2.27569e-08
-5.56212e-09
2.50531e-08
-5.63751e-09
2.73569e-08
-5.66645e-09
2.96506e-08
-5.64991e-09
3.1917e-08
-5.5892e-09
3.41396e-08
-5.4859e-09
3.63022e-08
-5.3418e-09
3.83898e-08
-5.15893e-09
4.03877e-08
-4.93947e-09
4.22825e-08
-4.68575e-09
4.40616e-08
-4.40022e-09
4.57132e-08
-4.08543e-09
4.72269e-08
-3.74401e-09
4.85929e-08
-3.37867e-09
4.9803e-08
-2.99216e-09
5.08496e-08
-2.58726e-09
5.17265e-08
-2.16679e-09
5.24285e-08
-1.73356e-09
5.29517e-08
-1.29041e-09
5.32931e-08
-8.40173e-10
5.3451e-08
-3.85651e-10
5.34248e-08
7.03574e-11
5.32148e-08
5.25082e-10
5.28227e-08
9.7578e-10
5.22511e-08
1.41974e-09
5.15037e-08
1.8543e-09
5.05854e-08
2.27683e-09
4.9502e-08
2.68473e-09
4.82603e-08
3.07547e-09
4.68682e-08
3.44656e-09
4.53346e-08
3.79556e-09
4.3669e-08
4.1201e-09
4.18824e-08
4.41786e-09
3.99862e-08
4.68659e-09
3.79928e-08
4.92413e-09
3.59155e-08
5.12838e-09
3.37683e-08
5.29736e-09
3.15658e-08
5.42919e-09
2.93233e-08
5.52211e-09
2.70568e-08
5.57453e-09
2.47827e-08
5.58502e-09
2.25177e-08
5.55238e-09
2.02789e-08
5.47564e-09
1.80835e-08
5.35416e-09
1.59487e-08
5.18765e-09
1.38915e-08
4.97627e-09
1.19286e-08
4.72073e-09
1.0076e-08
4.42241e-09
8.3488e-09
4.08348e-09
6.76096e-09
3.70714e-09
5.32488e-09
3.29777e-09
4.05106e-09
2.86129e-09
2.94772e-09
2.40544e-09
2.02042e-09
1.94021e-09
1.2717e-09
1.47837e-09
7.0085e-10
1.03597e-09
3.03809e-10
6.33105e-10
7.33651e-11
2.95089e-10
5.4269e-11
1.17343e-10
-1.68303e-10
4.6651e-10
-6.37215e-10
1.04572e-09
-1.2044e-09
1.853e-09
-1.83715e-09
2.88501e-09
-2.50856e-09
4.1365e-09
-3.19624e-09
5.6e-09
-3.88153e-09
7.26578e-09
-4.54896e-09
9.12197e-09
-5.18588e-09
1.11547e-08
-5.78206e-09
1.33482e-08
-6.32935e-09
1.56853e-08
-6.82139e-09
1.81477e-08
-7.25333e-09
2.0716e-08
-7.62165e-09
2.337e-08
-7.92396e-09
2.60891e-08
-8.15883e-09
2.88527e-08
-8.32566e-09
3.16398e-08
-8.42459e-09
3.44297e-08
-8.45639e-09
3.72021e-08
-8.42235e-09
3.99372e-08
-8.32425e-09
4.26155e-08
-8.16427e-09
4.52187e-08
-7.94497e-09
4.7729e-08
-7.66917e-09
5.01295e-08
-7.34e-09
5.24045e-08
-6.96077e-09
5.45393e-08
-6.53503e-09
5.65203e-08
-6.06644e-09
5.83351e-08
-5.55882e-09
5.99726e-08
-5.01609e-09
6.14226e-08
-4.44225e-09
6.26767e-08
-3.84137e-09
6.37275e-08
-3.21754e-09
6.45689e-08
-2.57491e-09
6.51961e-08
-1.91762e-09
6.56057e-08
-1.24982e-09
6.57957e-08
-5.75639e-10
6.57652e-08
1.00812e-10
6.55149e-08
7.75454e-10
6.50464e-08
1.44425e-09
6.43629e-08
2.10321e-09
6.34688e-08
2.7484e-09
6.23697e-08
3.37594e-09
6.10724e-08
3.98202e-09
5.9585e-08
4.56291e-09
5.79166e-08
5.11495e-09
5.60776e-08
5.63456e-09
5.40794e-08
6.11826e-09
5.19346e-08
6.56267e-09
4.96567e-08
6.96452e-09
4.72602e-08
7.32066e-09
4.47605e-08
7.62807e-09
4.21739e-08
7.88391e-09
3.95176e-08
8.08549e-09
3.68094e-08
8.23035e-09
3.40676e-08
8.31625e-09
3.13114e-08
8.34123e-09
2.85602e-08
8.30366e-09
2.58335e-08
8.20227e-09
2.31514e-08
8.03626e-09
2.05337e-08
7.80535e-09
1.80001e-08
7.50988e-09
1.55699e-08
7.15095e-09
1.32618e-08
6.73052e-09
1.10937e-08
6.25161e-09
9.08232e-09
5.71849e-09
7.2432e-09
5.13689e-09
5.59019e-09
4.5143e-09
4.13537e-09
3.86026e-09
2.88884e-09
3.18674e-09
1.85866e-09
2.50855e-09
1.05087e-09
1.84375e-09
4.69782e-10
1.2142e-09
1.18485e-10
6.46387e-10
1.72754e-10
1.59019e-10
-3.27321e-10
6.22772e-10
-1.10097e-09
1.37957e-09
-1.96119e-09
2.4184e-09
-2.87598e-09
3.72798e-09
-3.81814e-09
5.29609e-09
-4.76435e-09
7.10923e-09
-5.69467e-09
9.15243e-09
-6.59217e-09
1.14092e-08
-7.44267e-09
1.38616e-08
-8.23447e-09
1.64903e-08
-8.95806e-09
1.92748e-08
-9.60588e-09
2.21936e-08
-1.01721e-08
2.52243e-08
-1.06524e-08
2.83442e-08
-1.10438e-08
3.15299e-08
-1.13445e-08
3.47581e-08
-1.15539e-08
3.80055e-08
-1.1672e-08
4.12489e-08
-1.16998e-08
4.44657e-08
-1.16391e-08
4.76337e-08
-1.14922e-08
5.07314e-08
-1.1262e-08
5.37381e-08
-1.09517e-08
5.66342e-08
-1.05653e-08
5.9401e-08
-1.01068e-08
6.20208e-08
-9.5806e-09
6.44773e-08
-8.99153e-09
6.67553e-08
-8.34447e-09
6.88411e-08
-7.64455e-09
7.0722e-08
-6.89704e-09
7.23871e-08
-6.10733e-09
7.38266e-08
-5.2809e-09
7.50324e-08
-4.4233e-09
7.59976e-08
-3.54014e-09
7.6717e-08
-2.63701e-09
7.71867e-08
-1.71955e-09
7.74045e-08
-7.93366e-10
7.73693e-08
1.3597e-10
7.70818e-08
1.06291e-09
7.65441e-08
1.98198e-09
7.57596e-08
2.88774e-09
7.47331e-08
3.77484e-09
7.3471e-08
4.63802e-09
7.1981e-08
5.4721e-09
7.02719e-08
6.272e-09
6.83541e-08
7.03275e-09
6.62391e-08
7.74951e-09
6.39398e-08
8.41756e-09
6.14702e-08
9.03233e-09
5.88453e-08
9.5894e-09
5.60814e-08
1.00846e-08
5.31957e-08
1.05138e-08
5.02065e-08
1.08732e-08
4.71327e-08
1.11593e-08
4.39943e-08
1.13688e-08
4.08118e-08
1.14987e-08
3.76065e-08
1.15466e-08
3.43999e-08
1.15102e-08
3.12142e-08
1.1388e-08
2.80716e-08
1.11789e-08
2.49943e-08
1.08826e-08
2.20046e-08
1.04996e-08
1.91244e-08
1.00312e-08
1.63751e-08
9.47977e-09
1.37776e-08
8.84908e-09
1.13519e-08
8.14419e-09
9.117e-09
7.37184e-09
7.09065e-09
6.54065e-09
5.2895e-09
5.66141e-09
3.72885e-09
4.74739e-09
2.42282e-09
3.81459e-09
1.38446e-09
2.88211e-09
6.26178e-10
1.97248e-09
1.60286e-10
1.11228e-09
3.3304e-10
1.97489e-10
-5.24809e-10
7.68926e-10
-1.6724e-09
1.69473e-09
-2.88699e-09
2.95621e-09
-4.13746e-09
4.53481e-09
-5.39674e-09
6.41164e-09
-6.64118e-09
8.56712e-09
-7.85014e-09
1.09808e-08
-9.00583e-09
1.36312e-08
-1.00931e-08
1.64959e-08
-1.10992e-08
1.95516e-08
-1.20137e-08
2.2774e-08
-1.28283e-08
2.61383e-08
-1.35364e-08
2.9619e-08
-1.41331e-08
3.31905e-08
-1.46152e-08
3.68267e-08
-1.49807e-08
4.05017e-08
-1.52289e-08
4.41899e-08
-1.53601e-08
4.78658e-08
-1.53757e-08
5.15046e-08
-1.52779e-08
5.5082e-08
-1.50697e-08
5.85748e-08
-1.47547e-08
6.19604e-08
-1.43373e-08
6.52174e-08
-1.38223e-08
6.83254e-08
-1.32148e-08
7.12656e-08
-1.25207e-08
7.40199e-08
-1.17459e-08
7.65722e-08
-1.08967e-08
7.89073e-08
-9.97964e-09
8.10117e-08
-9.00149e-09
8.28735e-08
-7.96914e-09
8.44822e-08
-6.88961e-09
8.58289e-08
-5.77002e-09
8.69063e-08
-4.61754e-09
8.77087e-08
-3.43938e-09
8.82319e-08
-2.24275e-09
8.84734e-08
-1.03488e-09
8.84323e-08
1.77079e-10
8.81092e-08
1.38599e-09
8.75064e-08
2.5848e-09
8.66276e-08
3.76652e-09
8.54782e-08
4.92427e-09
8.4065e-08
6.05126e-09
8.23962e-08
7.14084e-09
8.04818e-08
8.18647e-09
7.83327e-08
9.18176e-09
7.59618e-08
1.01205e-08
7.33827e-08
1.09966e-08
7.06108e-08
1.18042e-08
6.76624e-08
1.25377e-08
6.45553e-08
1.31917e-08
6.13081e-08
1.3761e-08
5.79406e-08
1.42407e-08
5.44736e-08
1.46263e-08
5.09287e-08
1.49136e-08
4.73284e-08
1.5099e-08
4.36958e-08
1.51792e-08
4.00545e-08
1.51514e-08
3.64288e-08
1.50137e-08
3.28431e-08
1.47646e-08
2.93221e-08
1.44036e-08
2.58906e-08
1.39311e-08
2.25731e-08
1.33487e-08
1.9394e-08
1.26588e-08
1.63774e-08
1.18657e-08
1.35467e-08
1.09749e-08
1.09248e-08
9.99376e-09
8.53379e-09
8.93163e-09
6.39518e-09
7.80002e-09
4.52969e-09
6.61288e-09
2.95748e-09
5.3868e-09
1.69834e-09
4.14125e-09
7.72036e-10
2.89878e-09
1.98788e-10
1.68553e-09
5.31827e-10
2.33489e-10
-7.58297e-10
9.06897e-10
-2.34581e-09
1.9942e-09
-3.97429e-09
3.47007e-09
-5.61333e-09
5.30943e-09
-7.2361e-09
7.48713e-09
-8.81887e-09
9.97766e-09
-1.03407e-08
1.2755e-08
-1.17832e-08
1.57927e-08
-1.31308e-08
1.90636e-08
-1.43701e-08
2.254e-08
-1.54901e-08
2.61938e-08
-1.64821e-08
2.99964e-08
-1.7339e-08
3.39192e-08
-1.80559e-08
3.79332e-08
-1.86293e-08
4.20099e-08
-1.90574e-08
4.61206e-08
-1.93396e-08
5.02373e-08
-1.94768e-08
5.43323e-08
-1.94707e-08
5.83786e-08
-1.93243e-08
6.23503e-08
-1.90413e-08
6.62221e-08
-1.86265e-08
6.99699e-08
-1.80851e-08
7.35708e-08
-1.74232e-08
7.70032e-08
-1.66472e-08
8.02465e-08
-1.57641e-08
8.32821e-08
-1.47814e-08
8.60923e-08
-1.37069e-08
8.86612e-08
-1.25486e-08
9.09746e-08
-1.13149e-08
9.30198e-08
-1.00143e-08
9.47855e-08
-8.65536e-09
9.62625e-08
-7.24699e-09
9.7443e-08
-5.79801e-09
9.83209e-08
-4.31732e-09
9.8892e-08
-2.81384e-09
9.91536e-08
-1.29646e-09
9.91047e-08
2.25943e-10
9.87461e-08
1.74456e-09
9.80803e-08
3.25067e-09
9.71112e-08
4.73563e-09
9.58445e-08
6.19093e-09
9.42876e-08
7.60818e-09
9.24493e-08
8.97914e-09
9.03401e-08
1.02957e-08
8.79718e-08
1.155e-08
8.53579e-08
1.27344e-08
8.25132e-08
1.38413e-08
7.9454e-08
1.48635e-08
7.61978e-08
1.5794e-08
7.27634e-08
1.66261e-08
6.91709e-08
1.73535e-08
6.54414e-08
1.79702e-08
6.15972e-08
1.84705e-08
5.76614e-08
1.88494e-08
5.36584e-08
1.91021e-08
4.96128e-08
1.92247e-08
4.55505e-08
1.92138e-08
4.14976e-08
1.90666e-08
3.74809e-08
1.87814e-08
3.35273e-08
1.83572e-08
2.96643e-08
1.77942e-08
2.59192e-08
1.70937e-08
2.23196e-08
1.62584e-08
1.88928e-08
1.52925e-08
1.5666e-08
1.42017e-08
1.2666e-08
1.29937e-08
9.9197e-09
1.1678e-08
7.45329e-09
1.02664e-08
5.29294e-09
8.77322e-09
3.46466e-09
7.21508e-09
1.99449e-09
5.61141e-09
9.08798e-10
3.98448e-09
2.34587e-10
2.35974e-09
7.66414e-10
2.67887e-10
-1.02618e-09
1.03939e-09
-3.11731e-09
2.28289e-09
-5.21779e-09
3.96716e-09
-7.2976e-09
6.06114e-09
-9.33008e-09
8.53375e-09
-1.12915e-08
1.13538e-08
-1.31607e-08
1.44898e-08
-1.49192e-08
1.79101e-08
-1.6551e-08
2.15827e-08
-1.80427e-08
2.54755e-08
-1.93829e-08
2.95563e-08
-2.05628e-08
3.37927e-08
-2.15754e-08
3.81524e-08
-2.24157e-08
4.26036e-08
-2.30805e-08
4.71144e-08
-2.35682e-08
5.16537e-08
-2.3879e-08
5.61909e-08
-2.4014e-08
6.06962e-08
-2.3976e-08
6.51406e-08
-2.37687e-08
6.94962e-08
-2.33969e-08
7.37361e-08
-2.28664e-08
7.78347e-08
-2.21837e-08
8.17676e-08
-2.13561e-08
8.55119e-08
-2.03915e-08
8.90463e-08
-1.92984e-08
9.23507e-08
-1.80858e-08
9.54069e-08
-1.67631e-08
9.81981e-08
-1.53398e-08
1.00709e-07
-1.38262e-08
1.02927e-07
-1.22323e-08
1.04841e-07
-1.05687e-08
1.0644e-07
-8.84574e-09
1.07716e-07
-7.07418e-09
1.08663e-07
-5.26467e-09
1.09277e-07
-3.4279e-09
1.09555e-07
-1.57455e-09
1.09496e-07
2.84744e-10
1.09102e-07
2.13941e-09
1.08373e-07
3.97898e-09
1.07316e-07
5.79309e-09
1.05935e-07
7.57152e-09
1.04239e-07
9.30419e-09
1.02237e-07
1.09812e-08
9.99399e-08
1.25929e-08
9.73603e-08
1.41297e-08
9.45122e-08
1.55825e-08
9.14113e-08
1.69421e-08
8.80748e-08
1.82e-08
8.45211e-08
1.93476e-08
8.07702e-08
2.0377e-08
7.68432e-08
2.12805e-08
7.27625e-08
2.20508e-08
6.85518e-08
2.26812e-08
6.42357e-08
2.31654e-08
5.98401e-08
2.34978e-08
5.53914e-08
2.36733e-08
5.09174e-08
2.36878e-08
4.64463e-08
2.35377e-08
4.2007e-08
2.32207e-08
3.7629e-08
2.27351e-08
3.33423e-08
2.20808e-08
2.91774e-08
2.12587e-08
2.51648e-08
2.0271e-08
2.13354e-08
1.91219e-08
1.77203e-08
1.78169e-08
1.43505e-08
1.63635e-08
1.12572e-08
1.47712e-08
8.47176e-09
1.30519e-08
6.02543e-09
1.12195e-08
3.94982e-09
9.2907e-09
2.27678e-09
7.28445e-09
1.03864e-09
5.22262e-09
2.68403e-10
3.12997e-09
1.03482e-09
3.01508e-10
-1.32769e-09
1.16913e-09
-3.98493e-09
2.56605e-09
-6.6147e-09
4.45548e-09
-9.18703e-09
6.80068e-09
-1.16753e-08
9.56487e-09
-1.40557e-08
1.27112e-08
-1.63071e-08
1.62029e-08
-1.84109e-08
2.00031e-08
-2.03512e-08
2.40749e-08
-2.21145e-08
2.83816e-08
-2.36897e-08
3.28867e-08
-2.50679e-08
3.7554e-08
-2.62426e-08
4.23475e-08
-2.72092e-08
4.72319e-08
-2.79649e-08
5.21726e-08
-2.85089e-08
5.71355e-08
-2.88419e-08
6.20876e-08
-2.89661e-08
6.69968e-08
-2.88852e-08
7.18322e-08
-2.8604e-08
7.65638e-08
-2.81286e-08
8.11634e-08
-2.74659e-08
8.56037e-08
-2.66241e-08
8.98593e-08
-2.56117e-08
9.3906e-08
-2.44383e-08
9.77215e-08
-2.31139e-08
1.01285e-07
-2.16493e-08
1.04577e-07
-2.00554e-08
1.07581e-07
-1.83438e-08
1.10281e-07
-1.65262e-08
1.12664e-07
-1.46147e-08
1.14717e-07
-1.26215e-08
1.1643e-07
-1.0559e-08
1.17795e-07
-8.43962e-09
1.18807e-07
-6.27592e-09
1.19459e-07
-4.08044e-09
1.1975e-07
-1.86569e-09
1.19679e-07
3.55847e-10
1.19247e-07
2.5718e-09
1.18456e-07
4.76989e-09
1.17311e-07
6.93797e-09
1.15818e-07
9.06405e-09
1.13986e-07
1.11363e-08
1.11824e-07
1.31432e-08
1.09344e-07
1.50732e-08
1.06558e-07
1.69153e-08
1.03482e-07
1.86586e-08
1.00132e-07
2.02924e-08
9.65254e-08
2.18066e-08
9.26818e-08
2.31912e-08
8.86221e-08
2.44368e-08
8.43685e-08
2.55341e-08
7.99446e-08
2.64748e-08
7.53752e-08
2.72506e-08
7.06865e-08
2.78541e-08
6.59057e-08
2.82785e-08
6.10613e-08
2.85177e-08
5.61826e-08
2.85665e-08
5.13e-08
2.84204e-08
4.64447e-08
2.8076e-08
4.16486e-08
2.75312e-08
3.69446e-08
2.67848e-08
3.2366e-08
2.58373e-08
2.79467e-08
2.46903e-08
2.37212e-08
2.33474e-08
1.97244e-08
2.18137e-08
1.59915e-08
2.00963e-08
1.25583e-08
1.82045e-08
9.46076e-09
1.61494e-08
6.73545e-09
1.39449e-08
4.4192e-09
1.16069e-08
2.54935e-09
9.15431e-09
1.16376e-09
6.60821e-09
3.0091e-10
3.99282e-09
1.33573e-09
3.35066e-10
-1.66275e-09
1.29855e-09
-4.94842e-09
2.84842e-09
-8.16457e-09
4.94241e-09
-1.1281e-08
7.53813e-09
-1.4271e-08
1.05932e-08
-1.71107e-08
1.40651e-08
-1.9779e-08
1.79116e-08
-2.22575e-08
2.20908e-08
-2.45303e-08
2.65607e-08
-2.65844e-08
3.128e-08
-2.8409e-08
3.62078e-08
-2.99957e-08
4.13038e-08
-3.13386e-08
4.65284e-08
-3.24338e-08
5.18429e-08
-3.32794e-08
5.72095e-08
-3.38755e-08
6.25914e-08
-3.42238e-08
6.79531e-08
-3.43278e-08
7.32602e-08
-3.41923e-08
7.84797e-08
-3.38235e-08
8.35801e-08
-3.3229e-08
8.85314e-08
-3.24172e-08
9.33051e-08
-3.13978e-08
9.78745e-08
-3.01811e-08
1.02215e-07
-2.87783e-08
1.06302e-07
-2.72013e-08
1.10115e-07
-2.54625e-08
1.13635e-07
-2.35748e-08
1.16842e-07
-2.15516e-08
1.19723e-07
-1.94065e-08
1.22261e-07
-1.71534e-08
1.24446e-07
-1.48064e-08
1.26267e-07
-1.238e-08
1.27716e-07
-9.88831e-09
1.28786e-07
-7.34592e-09
1.29473e-07
-4.76722e-09
1.29774e-07
-2.16662e-09
1.29688e-07
4.41548e-10
1.29217e-07
3.04303e-09
1.28363e-07
5.62369e-09
1.27131e-07
8.16959e-09
1.25528e-07
1.06669e-08
1.23563e-07
1.3102e-08
1.21244e-07
1.54616e-08
1.18585e-07
1.77326e-08
1.15598e-07
1.9902e-08
1.12299e-07
2.19573e-08
1.08706e-07
2.38863e-08
1.04835e-07
2.5677e-08
1.00708e-07
2.73181e-08
9.63465e-08
2.87985e-08
9.17732e-08
3.01074e-08
8.7013e-08
3.1235e-08
8.20919e-08
3.21717e-08
7.70374e-08
3.29086e-08
7.18782e-08
3.34377e-08
6.66445e-08
3.37515e-08
6.13674e-08
3.38436e-08
5.60793e-08
3.37084e-08
5.08139e-08
3.33415e-08
4.56055e-08
3.27396e-08
4.04897e-08
3.19006e-08
3.55029e-08
3.08241e-08
3.06823e-08
2.95109e-08
2.6066e-08
2.79637e-08
2.16928e-08
2.61869e-08
1.76023e-08
2.41869e-08
1.38344e-08
2.19723e-08
1.04302e-08
1.95537e-08
7.4309e-09
1.69441e-08
4.87863e-09
1.41592e-08
2.81597e-09
1.1217e-08
1.28608e-09
8.1381e-09
3.32678e-10
4.94621e-09
1.6684e-09
3.69134e-10
-2.03188e-09
1.42961e-09
-6.00889e-09
3.13389e-09
-9.86886e-09
5.434e-09
-1.35811e-08
8.28176e-09
-1.71188e-08
1.1629e-08
-2.04579e-08
1.54275e-08
-2.35775e-08
1.96296e-08
-2.64596e-08
2.41879e-08
-2.90886e-08
2.90556e-08
-3.14521e-08
3.41864e-08
-3.35398e-08
3.95352e-08
-3.53445e-08
4.50575e-08
-3.68609e-08
5.071e-08
-3.80863e-08
5.64504e-08
-3.90199e-08
6.2238e-08
-3.96631e-08
6.80331e-08
-4.00189e-08
7.37977e-08
-4.00924e-08
7.94953e-08
-3.98898e-08
8.50909e-08
-3.94191e-08
9.05513e-08
-3.86894e-08
9.5845e-08
-3.7711e-08
1.00942e-07
-3.64952e-08
1.05816e-07
-3.50544e-08
1.10439e-07
-3.34015e-08
1.14788e-07
-3.15504e-08
1.18841e-07
-2.95154e-08
1.22577e-07
-2.73114e-08
1.2598e-07
-2.49537e-08
1.29031e-07
-2.24579e-08
1.31717e-07
-1.98398e-08
1.34027e-07
-1.71157e-08
1.35949e-07
-1.43017e-08
1.37474e-07
-1.14143e-08
1.38598e-07
-8.46961e-09
1.39315e-07
-5.48419e-09
1.39623e-07
-2.47432e-09
1.39521e-07
5.43768e-10
1.3901e-07
3.55393e-09
1.38093e-07
6.54018e-09
1.36776e-07
9.4867e-09
1.35065e-07
1.23778e-08
1.32969e-07
1.51982e-08
1.30498e-07
1.79326e-08
1.27664e-07
2.05661e-08
1.24482e-07
2.30842e-08
1.20967e-07
2.54725e-08
1.17136e-07
2.7717e-08
1.13009e-07
2.98042e-08
1.08606e-07
3.17209e-08
1.0395e-07
3.34545e-08
9.9065e-08
3.49927e-08
9.39762e-08
3.63238e-08
8.87111e-08
3.74368e-08
8.32984e-08
3.83214e-08
7.77682e-08
3.89679e-08
7.21523e-08
3.93674e-08
6.64837e-08
3.95122e-08
6.07969e-08
3.93952e-08
5.51276e-08
3.90108e-08
4.95129e-08
3.83543e-08
4.3991e-08
3.74225e-08
3.86014e-08
3.62136e-08
3.33848e-08
3.47276e-08
2.83827e-08
3.29658e-08
2.36378e-08
3.09318e-08
1.91939e-08
2.86308e-08
1.50955e-08
2.60706e-08
1.13882e-08
2.3261e-08
8.11832e-09
2.0214e-08
5.33287e-09
1.69447e-08
3.07968e-09
1.34702e-08
1.40714e-09
9.81064e-09
3.64154e-10
5.9892e-09
2.03255e-09
4.04142e-10
-2.43603e-09
1.56376e-09
-7.16851e-09
3.42528e-09
-1.17304e-08
5.93459e-09
-1.60904e-08
9.03735e-09
-2.02215e-08
1.26793e-08
-2.40998e-08
1.68065e-08
-2.77047e-08
2.13653e-08
-3.10184e-08
2.6303e-08
-3.40264e-08
3.15677e-08
-3.67167e-08
3.71083e-08
-3.90805e-08
4.28751e-08
-4.11113e-08
4.88195e-08
-4.28053e-08
5.48944e-08
-4.41612e-08
6.10543e-08
-4.51798e-08
6.72552e-08
-4.5864e-08
7.34549e-08
-4.62186e-08
7.96127e-08
-4.62503e-08
8.56902e-08
-4.59673e-08
9.16506e-08
-4.53795e-08
9.74591e-08
-4.44979e-08
1.03083e-07
-4.33348e-08
1.08491e-07
-4.19037e-08
1.13656e-07
-4.02187e-08
1.18549e-07
-3.82951e-08
1.23147e-07
-3.61486e-08
1.27428e-07
-3.37957e-08
1.3137e-07
-3.12534e-08
1.34955e-07
-2.85389e-08
1.38167e-07
-2.567e-08
1.40992e-07
-2.26646e-08
1.43417e-07
-1.95408e-08
1.45432e-07
-1.63169e-08
1.47029e-07
-1.30111e-08
1.48201e-07
-9.64195e-09
1.48945e-07
-6.22759e-09
1.49257e-07
-2.78634e-09
1.49137e-07
6.6366e-10
1.48586e-07
4.10437e-09
1.47608e-07
7.51793e-09
1.46209e-07
1.08866e-08
1.44393e-07
1.4193e-08
1.42172e-07
1.74198e-08
1.39554e-07
2.05501e-08
1.36553e-07
2.3567e-08
1.33183e-07
2.64542e-08
1.2946e-07
2.91957e-08
1.25402e-07
3.17756e-08
1.21027e-07
3.41786e-08
1.16358e-07
3.63898e-08
1.11418e-07
3.83948e-08
1.06231e-07
4.01797e-08
1.00824e-07
4.17309e-08
9.52247e-08
4.30359e-08
8.94637e-08
4.40825e-08
8.35722e-08
4.48594e-08
7.75834e-08
4.53562e-08
7.15322e-08
4.55634e-08
6.5455e-08
4.54724e-08
5.93898e-08
4.50759e-08
5.33762e-08
4.43679e-08
4.74551e-08
4.33436e-08
4.16691e-08
4.19997e-08
3.6062e-08
4.03346e-08
3.06792e-08
3.83486e-08
2.55672e-08
3.60437e-08
2.07739e-08
3.34241e-08
1.63484e-08
3.04962e-08
1.23409e-08
2.72685e-08
8.80246e-09
2.37524e-08
5.78542e-09
1.99617e-08
3.34273e-09
1.59129e-08
1.52808e-09
1.16253e-08
3.95666e-10
7.12161e-09
2.42822e-09
4.40366e-10
-2.87639e-09
1.70189e-09
-8.43003e-09
3.72422e-09
-1.37527e-08
6.44648e-09
-1.88127e-08
9.80769e-09
-2.35827e-08
1.37471e-08
-2.80393e-08
1.82046e-08
-3.21621e-08
2.31206e-08
-3.59344e-08
2.84367e-08
-3.93425e-08
3.40958e-08
-4.23757e-08
4.00418e-08
-4.50265e-08
4.62207e-08
-4.72901e-08
5.25796e-08
-4.91643e-08
5.90679e-08
-5.06495e-08
6.56366e-08
-5.17485e-08
7.22387e-08
-5.24661e-08
7.88294e-08
-5.28093e-08
8.53661e-08
-5.27869e-08
9.18081e-08
-5.24093e-08
9.81171e-08
-5.16885e-08
1.04257e-07
-5.06378e-08
1.10194e-07
-4.92717e-08
1.15896e-07
-4.76059e-08
1.21334e-07
-4.56569e-08
1.26481e-07
-4.3442e-08
1.31312e-07
-4.09794e-08
1.35804e-07
-3.82876e-08
1.39936e-07
-3.53858e-08
1.43691e-07
-3.22934e-08
1.47051e-07
-2.90302e-08
1.50003e-07
-2.56163e-08
1.52534e-07
-2.20718e-08
1.54634e-07
-1.8417e-08
1.56295e-07
-1.46723e-08
1.57511e-07
-1.08579e-08
1.58278e-07
-6.99409e-09
1.58592e-07
-3.10107e-09
1.58455e-07
8.0111e-10
1.57867e-07
4.69254e-09
1.56831e-07
8.55348e-09
1.55353e-07
1.23644e-08
1.5344e-07
1.61059e-08
1.51101e-07
1.9759e-08
1.48346e-07
2.33048e-08
1.45189e-07
2.67248e-08
1.41642e-07
3.00008e-08
1.37723e-07
3.31147e-08
1.33449e-07
3.60491e-08
1.28841e-07
3.87867e-08
1.2392e-07
4.13109e-08
1.1871e-07
4.36053e-08
1.13235e-07
4.56541e-08
1.07524e-07
4.74421e-08
1.01605e-07
4.89547e-08
9.55099e-08
5.0178e-08
8.92704e-08
5.10989e-08
8.29217e-08
5.17049e-08
7.65001e-08
5.19849e-08
7.00442e-08
5.19284e-08
6.35939e-08
5.15262e-08
5.71913e-08
5.07705e-08
5.08801e-08
4.96548e-08
4.47057e-08
4.8174e-08
3.87155e-08
4.63249e-08
3.29582e-08
4.41059e-08
2.74843e-08
4.15176e-08
2.2346e-08
3.85625e-08
1.75967e-08
3.52455e-08
1.32913e-08
3.15739e-08
9.4861e-09
2.75576e-08
6.23839e-09
2.32094e-08
3.60651e-09
1.85447e-08
1.64961e-09
1.35822e-08
4.27425e-10
8.3438e-09
2.85564e-09
4.7792e-10
-3.35431e-09
1.84428e-09
-9.79639e-09
4.031e-09
-1.59394e-08
6.96969e-09
-2.17514e-08
1.05921e-08
-2.72052e-08
1.48306e-08
-3.22777e-08
1.96182e-08
-3.69498e-08
2.48895e-08
-4.12057e-08
3.058e-08
-4.5033e-08
3.66271e-08
-4.84229e-08
4.29702e-08
-5.13696e-08
4.95503e-08
-5.38702e-08
5.63109e-08
-5.59249e-08
6.31975e-08
-5.75361e-08
7.0158e-08
-5.8709e-08
7.71427e-08
-5.94508e-08
8.41045e-08
-5.97711e-08
9.09986e-08
-5.9681e-08
9.77828e-08
-5.91935e-08
1.04417e-07
-5.83231e-08
1.10865e-07
-5.70856e-08
1.17091e-07
-5.5498e-08
1.23064e-07
-5.35784e-08
1.28753e-07
-5.13459e-08
1.34131e-07
-4.88201e-08
1.39173e-07
-4.60215e-08
1.43856e-07
-4.29709e-08
1.4816e-07
-3.96898e-08
1.52067e-07
-3.61998e-08
1.5556e-07
-3.2523e-08
1.58625e-07
-2.86814e-08
1.6125e-07
-2.46972e-08
1.63426e-07
-2.05928e-08
1.65144e-07
-1.63905e-08
1.66399e-07
-1.21126e-08
1.67186e-07
-7.78112e-09
1.67503e-07
-3.41825e-09
1.6735e-07
9.54117e-10
1.66728e-07
5.31422e-09
1.65641e-07
9.64049e-09
1.64094e-07
1.39116e-08
1.62094e-07
1.81063e-08
1.59649e-07
2.22037e-08
1.56771e-07
2.61833e-08
1.53471e-07
3.00245e-08
1.49765e-07
3.37073e-08
1.45667e-07
3.7212e-08
1.41197e-07
4.0519e-08
1.36375e-07
4.36094e-08
1.31221e-07
4.64644e-08
1.25761e-07
4.90658e-08
1.20019e-07
5.13958e-08
1.14024e-07
5.34373e-08
1.07805e-07
5.51736e-08
1.01394e-07
5.65887e-08
9.48255e-08
5.76675e-08
8.81348e-08
5.83956e-08
8.136e-08
5.87596e-08
7.45414e-08
5.8747e-08
6.7721e-08
5.83466e-08
6.09432e-08
5.75483e-08
5.42543e-08
5.63437e-08
4.77028e-08
5.47255e-08
4.13391e-08
5.26886e-08
3.52156e-08
5.02294e-08
2.93869e-08
4.73463e-08
2.39091e-08
4.40403e-08
1.88402e-08
4.03143e-08
1.42401e-08
3.6174e-08
1.017e-08
3.16278e-08
6.69251e-09
2.66869e-08
3.87159e-09
2.13657e-08
1.77206e-09
1.56817e-08
4.59535e-10
9.65632e-09
3.31517e-09
5.16742e-10
-3.87105e-09
1.99049e-09
-1.12701e-08
4.3444e-09
-1.82933e-08
7.50166e-09
-2.49087e-08
1.13861e-08
-3.10896e-08
1.59224e-08
-3.6814e-08
2.10367e-08
-4.20642e-08
2.66569e-08
-4.68258e-08
3.27127e-08
-5.10888e-08
3.91359e-08
-5.48462e-08
4.58609e-08
-5.80946e-08
5.28244e-08
-6.08338e-08
5.9966e-08
-6.30664e-08
6.72277e-08
-6.47978e-08
7.45545e-08
-6.60358e-08
8.18945e-08
-6.67908e-08
8.91982e-08
-6.70748e-08
9.64193e-08
-6.69021e-08
1.03514e-07
-6.62885e-08
1.10442e-07
-6.52513e-08
1.17166e-07
-6.38091e-08
1.2365e-07
-6.19817e-08
1.29861e-07
-5.97899e-08
1.3577e-07
-5.72552e-08
1.4135e-07
-5.43999e-08
1.46576e-07
-5.1247e-08
1.51424e-07
-4.78196e-08
1.55876e-07
-4.41416e-08
1.59913e-07
-4.02368e-08
1.63519e-07
-3.61293e-08
1.66682e-07
-3.18435e-08
1.69388e-07
-2.74035e-08
1.71629e-07
-2.28338e-08
1.73397e-07
-1.81584e-08
1.74686e-07
-1.34016e-08
1.75492e-07
-8.58732e-09
1.75813e-07
-3.73955e-09
1.75649e-07
1.11803e-09
1.75002e-07
5.96188e-09
1.73874e-07
1.07687e-08
1.7227e-07
1.55152e-08
1.70198e-07
2.01786e-08
1.67665e-07
2.47362e-08
1.64683e-07
2.91655e-08
1.61263e-07
3.34443e-08
1.5742e-07
3.75506e-08
1.53169e-07
4.14629e-08
1.48528e-07
4.51596e-08
1.43518e-07
4.86199e-08
1.38159e-07
5.1823e-08
1.32476e-07
5.47487e-08
1.26495e-07
5.73771e-08
1.20243e-07
5.96888e-08
1.13752e-07
6.16652e-08
1.07053e-07
6.32879e-08
1.00181e-07
6.45396e-08
9.31726e-08
6.54035e-08
8.60682e-08
6.5864e-08
7.89091e-08
6.59062e-08
7.17393e-08
6.55164e-08
6.46053e-08
6.46823e-08
5.7556e-08
6.3393e-08
5.06427e-08
6.16388e-08
4.39191e-08
5.94122e-08
3.74412e-08
5.67073e-08
3.12672e-08
5.35203e-08
2.54578e-08
4.98497e-08
2.00755e-08
4.56966e-08
1.5185e-08
4.10645e-08
1.08528e-08
3.59599e-08
7.14717e-09
3.03925e-08
4.13771e-09
2.43751e-08
1.89538e-09
1.79241e-08
4.91999e-10
1.10597e-08
3.80717e-09
5.56574e-10
-4.42762e-09
2.13936e-09
-1.28529e-08
4.66152e-09
-2.08155e-08
8.03689e-09
-2.8284e-08
1.21805e-08
-3.52332e-08
1.70089e-08
-4.16425e-08
2.24409e-08
-4.74961e-08
2.83973e-08
-5.27823e-08
3.48018e-08
-5.74933e-08
4.15808e-08
-6.16251e-08
4.86636e-08
-6.51774e-08
5.59828e-08
-6.8153e-08
6.34742e-08
-7.05578e-08
7.1077e-08
-7.24006e-08
7.87336e-08
-7.36924e-08