/*--------------------------------*- C++ -*----------------------------------*\
  =========                 |
  \\      /  F ield         | OpenFOAM: The Open Source CFD Toolbox
   \\    /   O peration     | Website:  https://openfoam.org
    \\  /    A nd           | Version:  12
     \\/     M anipulation  |
\*---------------------------------------------------------------------------*/
FoamFile
{
    format      ascii;
    class       volScalarField;
    location    "1.3";
    object      p;
}
// * * * * * * * * * * * * * * * * * * * * * * * * * * * * * * * * * * * * * //

dimensions      [0 2 -2 0 0 0 0];

internalField   nonuniform List<scalar> 
400
(
-1.81807e-07
0.000377047
0.000551172
0.000299146
-0.00038304
-0.00144303
-0.00281611
-0.00443202
-0.00621875
-0.00810636
-0.0100273
-0.0119152
-0.0137025
-0.0153191
-0.0166928
-0.0177531
-0.0184352
-0.0186867
-0.0185119
-0.0181338
-0.000293882
0.000166293
0.000360088
7.62257e-05
-0.000635261
-0.00169765
-0.00304422
-0.00461052
-0.0063319
-0.00814518
-0.00998886
-0.0118023
-0.0135241
-0.0150907
-0.0164375
-0.0174999
-0.0182111
-0.0184941
-0.0182993
-0.017838
0.00137018
0.00176687
0.00181456
0.00131336
0.000362923
-0.000928316
-0.00248126
-0.00422965
-0.00611235
-0.0080734
-0.0100602
-0.0120216
-0.0139048
-0.0156536
-0.0172068
-0.018498
-0.0194477
-0.0199475
-0.0198977
-0.0194989
0.00584298
0.00584579
0.00537819
0.00432135
0.00281449
0.000992138
-0.0010516
-0.00324894
-0.00554057
-0.00788533
-0.0102473
-0.0125929
-0.0148862
-0.0170836
-0.0191288
-0.0209517
-0.0224577
-0.0235121
-0.0239757
-0.0239686
0.0136834
0.012767
0.0112014
0.00908212
0.00659023
0.00387718
0.00104729
-0.00183295
-0.00472655
-0.00761922
-0.0105107
-0.013405
-0.0163017
-0.0191856
-0.022019
-0.0247343
-0.0272261
-0.0293419
-0.0309002
-0.0318082
0.0255516
0.0228908
0.019348
0.0154458
0.0114087
0.00738618
0.00348036
-0.000263995
-0.00385462
-0.00733809
-0.0107846
-0.014272
-0.0178698
-0.0216233
-0.0255386
-0.0295687
-0.0336091
-0.0375078
-0.0410385
-0.0436836
0.0419905
0.036302
0.0294582
0.0227629
0.0164736
0.0106953
0.00549624
0.000862482
-0.00330576
-0.00717165
-0.0109355
-0.0148095
-0.018993
-0.023647
-0.0288683
-0.0346667
-0.0409691
-0.0476643
-0.0544901
-0.0601525
0.0629963
0.052331
0.0402572
0.0294075
0.0200352
0.0121143
0.00561646
0.000401904
-0.00380244
-0.00736692
-0.0107173
-0.0142972
-0.0185309
-0.0237858
-0.0303303
-0.0382971
-0.0477053
-0.0585684
-0.0706221
-0.0812483
0.0872092
0.0687309
0.0487281
0.0319921
0.0186824
0.00848166
0.00114955
-0.00369505
-0.00662883
-0.00836938
-0.00971241
-0.0114785
-0.0144622
-0.0193783
-0.0267975
-0.0370909
-0.0504828
-0.0672674
-0.0872613
-0.105692
0.11052
0.080287
0.0487805
0.0241475
0.00627388
-0.00572962
-0.0125165
-0.0148973
-0.0139516
-0.010949
-0.00726145
-0.00429319
-0.00341742
-0.00590486
-0.012832
-0.0249989
-0.043036
-0.0677925
-0.0993368
-0.129535
0.123802
0.0766264
0.029211
-0.00529056
-0.0276071
-0.0396725
-0.042891
-0.0387977
-0.0292637
-0.0163918
-0.00240274
0.0104439
0.0199174
0.0238995
0.0205063
0.0082026
-0.0143918
-0.0491521
-0.0967253
-0.143941
0.109331
0.0388464
-0.0293296
-0.0748812
-0.0997791
-0.107792
-0.10163
-0.0839964
-0.0579485
-0.0267728
0.00614025
0.0373611
0.0634671
0.0811165
0.0871933
0.0789509
0.0536791
0.00767422
-0.0609063
-0.131638
0.0352325
-0.0655817
-0.158743
-0.214149
-0.236192
-0.231808
-0.205915
-0.163028
-0.107875
-0.0452936
0.0198616
0.0827161
0.138334
0.181728
0.208006
0.212495
0.190184
0.134153
0.0401757
-0.061331
-0.153222
-0.290561
-0.409784
-0.468219
-0.475008
-0.442564
-0.379453
-0.292864
-0.189672
-0.0764968
0.0402658
0.154271
0.258942
0.347319
0.412172
0.445902
0.439589
0.380662
0.260106
0.1213
-0.548533
-0.723884
-0.861033
-0.903104
-0.868889
-0.78029
-0.651677
-0.493831
-0.315927
-0.126121
0.0681985
0.259829
0.441161
0.603675
0.737331
0.830308
0.867305
0.825902
0.687175
0.509315
-1.31218
-1.5109
-1.63331
-1.61139
-1.4843
-1.29023
-1.05186
-0.783764
-0.496615
-0.198539
0.104199
0.40594
0.700067
0.977653
1.22665
1.43091
1.56614
1.59243
1.46963
1.2677
-2.73138
-2.89141
-2.90675
-2.71189
-2.38976
-2.00562
-1.5914
-1.16332
-0.729311
-0.292046
0.14834
0.592219
1.03856
1.48301
1.91601
2.31975
2.65927
2.86618
2.85525
2.69339
-5.33453
-5.25661
-4.90856
-4.30771
-3.61165
-2.91183
-2.23962
-1.60023
-0.98831
-0.392893
0.199832
0.80436
1.43407
2.09878
2.80156
3.53313
4.25772
4.88106
5.24224
5.32428
-11.1826
-9.54073
-7.66715
-6.05722
-4.724
-3.6043
-2.65476
-1.83637
-1.10859
-0.431983
0.231224
0.918073
1.66654
2.5156
3.50456
4.66978
6.0497
7.69915
9.60202
11.2636
-29.316
-19.966
-13.208
-9.10227
-6.39378
-4.46386
-3.05231
-1.99195
-1.1516
-0.428672
0.260501
0.995048
1.85884
2.95379
4.41246
6.40296
9.18325
13.3626
20.1807
29.568
)
;

boundaryField
{
    movingWall
    {
        type            zeroGradient;
    }
    fixedWalls
    {
        type            zeroGradient;
    }
    frontAndBack
    {
        type            empty;
    }
}


// ************************************************************************* //
