/*--------------------------------*- C++ -*----------------------------------*\
  =========                 |
  \\      /  F ield         | OpenFOAM: The Open Source CFD Toolbox
   \\    /   O peration     | Website:  https://openfoam.org
    \\  /    A nd           | Version:  12
     \\/     M anipulation  |
\*---------------------------------------------------------------------------*/
FoamFile
{
    format      ascii;
    class       volVectorField;
    location    "1.3";
    object      U;
}
// * * * * * * * * * * * * * * * * * * * * * * * * * * * * * * * * * * * * * //

dimensions      [0 1 -1 0 0 0 0];

internalField   nonuniform List<vector> 
400
(
(2.46254e-06 -4.92355e-06 0)
(2.27432e-05 -1.40627e-05 0)
(5.74546e-05 -2.00352e-05 0)
(0.000100705 -2.23184e-05 0)
(0.00014533 -2.17636e-05 0)
(0.000186426 -1.92765e-05 0)
(0.000221073 -1.56219e-05 0)
(0.000247705 -1.13677e-05 0)
(0.000265622 -6.86998e-06 0)
(0.000274611 -2.30403e-06 0)
(0.000274643 2.27286e-06 0)
(0.00026571 6.84337e-06 0)
(0.000247834 1.13491e-05 0)
(0.00022122 1.56125e-05 0)
(0.000186565 1.92752e-05 0)
(0.000145441 2.17671e-05 0)
(0.000100775 2.23217e-05 0)
(5.74829e-05 2.0034e-05 0)
(2.27439e-05 1.40554e-05 0)
(2.45783e-06 4.91556e-06 0)
(6.61637e-06 -4.47269e-05 0)
(5.28131e-05 -0.000110155 0)
(0.000121333 -0.000148791 0)
(0.000200586 -0.000162658 0)
(0.000278453 -0.000157204 0)
(0.000347486 -0.000138524 0)
(0.000403842 -0.00011191 0)
(0.000445989 -8.12772e-05 0)
(0.000473745 -4.90669e-05 0)
(0.000487495 -1.64587e-05 0)
(0.000487584 1.62006e-05 0)
(0.000473997 4.88511e-05 0)
(0.000446361 8.11362e-05 0)
(0.000404274 0.000111859 0)
(0.000347911 0.000138559 0)
(0.000278811 0.000157302 0)
(0.000200839 0.000162777 0)
(0.000121471 0.000148892 0)
(5.28608e-05 0.000110205 0)
(6.61871e-06 4.47295e-05 0)
(8.29109e-06 -0.000107345 0)
(6.14957e-05 -0.000244531 0)
(0.000132087 -0.000314167 0)
(0.000205642 -0.000330459 0)
(0.00026961 -0.000309082 0)
(0.000318691 -0.000264457 0)
(0.000352538 -0.000208083 0)
(0.000373482 -0.000147792 0)
(0.000384881 -8.77996e-05 0)
(0.000389789 -2.92827e-05 0)
(0.000389975 2.85569e-05 0)
(0.000385407 8.71936e-05 0)
(0.000374263 0.0001474 0)
(0.000353455 0.00020795 0)
(0.00031961 0.000264584 0)
(0.000270402 0.000309407 0)
(0.000206221 0.000330878 0)
(0.000132423 0.000314555 0)
(6.1625e-05 0.000244783 0)
(8.30133e-06 0.000107416 0)
(8.25322e-06 -0.000170858 0)
(4.8045e-05 -0.00036466 0)
(8.42431e-05 -0.000441505 0)
(0.000102776 -0.000436239 0)
(9.60805e-05 -0.000381057 0)
(6.65485e-05 -0.000302556 0)
(2.28207e-05 -0.000220022 0)
(-2.38315e-05 -0.000144833 0)
(-6.22563e-05 -8.09588e-05 0)
(-8.36607e-05 -2.63935e-05 0)
(-8.32902e-05 2.47209e-05 0)
(-6.12035e-05 7.95547e-05 0)
(-2.22682e-05 0.000143915 0)
(2.46739e-05 0.000219715 0)
(6.84363e-05 0.000302865 0)
(9.77353e-05 0.000381858 0)
(0.000104007 0.000437302 0)
(8.49744e-05 0.000442541 0)
(4.83379e-05 0.00036539 0)
(8.27853e-06 0.000171108 0)
(6.27909e-06 -0.000211225 0)
(4.72693e-06 -0.000403208 0)
(-4.66312e-05 -0.000428353 0)
(-0.000156598 -0.00035338 0)
(-0.000319119 -0.000235056 0)
(-0.000515341 -0.000116635 0)
(-0.000719226 -2.62633e-05 0)
(-0.000902868 2.31289e-05 0)
(-0.00104103 3.23455e-05 0)
(-0.00111479 1.29746e-05 0)
(-0.00111409 -1.65193e-05 0)
(-0.00103902 -3.53427e-05 0)
(-0.000899836 -2.51236e-05 0)
(-0.000715602 2.55529e-05 0)
(-0.00051163 0.000117242 0)
(-0.000315817 0.000236759 0)
(-0.000154095 0.000355723 0)
(-4.51116e-05 0.00043072 0)
(5.35328e-06 0.000404962 0)
(6.33734e-06 0.000211881 0)
(7.5817e-07 -0.000193196 0)
(-8.76965e-05 -0.000258625 0)
(-0.000312035 -0.000118448 0)
(-0.000667381 0.000111815 0)
(-0.00112002 0.000339919 0)
(-0.00162073 0.000500835 0)
(-0.00211307 0.000557713 0)
(-0.00254098 0.000500819 0)
(-0.0028558 0.000344171 0)
(-0.00302193 0.000120165 0)
(-0.00302066 -0.000127244 0)
(-0.00285217 -0.000350206 0)
(-0.00253546 -0.000504928 0)
(-0.00210641 -0.000559328 0)
(-0.00161383 -0.000499816 0)
(-0.00111377 -0.000336623 0)
(-0.000662551 -0.000107083 0)
(-0.000309032 0.000123403 0)
(-8.64198e-05 0.000262441 0)
(8.85693e-07 0.000194711 0)
(-1.12029e-05 -5.66236e-05 0)
(-0.000261909 0.000236857 0)
(-0.000796549 0.00074152 0)
(-0.00158211 0.00126897 0)
(-0.0025344 0.00167739 0)
(-0.00355227 0.00187495 0)
(-0.00452931 0.00181891 0)
(-0.00536448 0.00151212 0)
(-0.00597229 0.000996438 0)
(-0.00629117 0.000343449 0)
(-0.00628907 -0.00035676 0)
(-0.00596624 -0.0010079 0)
(-0.00535521 -0.00152013 0)
(-0.00451798 -0.00182237 0)
(-0.00354031 -0.00187348 0)
(-0.00252337 -0.00167147 0)
(-0.00157338 -0.00126004 0)
(-0.000790974 -0.000731802 0)
(-0.000259449 -0.000229071 0)
(-1.09342e-05 5.98813e-05 0)
(-3.42055e-05 0.000298391 0)
(-0.00056762 0.00135348 0)
(-0.00162633 0.00255151 0)
(-0.00312485 0.00359937 0)
(-0.00489273 0.00428927 0)
(-0.00674451 0.00449963 0)
(-0.00849576 0.00418991 0)
(-0.00997684 0.00339255 0)
(-0.0110471 0.0022011 0)
(-0.0116066 0.000754954 0)
(-0.0116034 -0.000778246 0)
(-0.0110381 -0.00222139 0)
(-0.00996288 -0.00340716 0)
(-0.00847836 -0.00419684 0)
(-0.00672571 -0.00449796 0)
(-0.0048749 -0.00427947 0)
(-0.0031103 -0.00358361 0)
(-0.00161671 -0.0025336 0)
(-0.000563183 -0.00133851 0)
(-3.36743e-05 -0.000291795 0)
(-7.52036e-05 0.00103076 0)
(-0.00107585 0.00350949 0)
(-0.00297779 0.0059188 0)
(-0.00560399 0.00782224 0)
(-0.00864354 0.00893037 0)
(-0.0117802 0.00909505 0)
(-0.0147132 0.00829583 0)
(-0.0171731 0.00662382 0)
(-0.0189408 0.00426136 0)
(-0.0198624 0.00145809 0)
(-0.0198586 -0.00149526 0)
(-0.0189298 -0.00429423 0)
(-0.0171555 -0.00664838 0)
(-0.0146905 -0.00830874 0)
(-0.0117548 -0.00909426 0)
(-0.00861828 -0.00891584 0)
(-0.00558239 -0.00779668 0)
(-0.00296278 -0.00588811 0)
(-0.00106852 -0.00348256 0)
(-7.42279e-05 -0.00101821 0)
(-0.000144209 0.00238234 0)
(-0.00188288 0.00732489 0)
(-0.00508369 0.0117257 0)
(-0.00941752 0.0149644 0)
(-0.0143543 0.0166616 0)
(-0.0193835 0.0166598 0)
(-0.0240388 0.014994 0)
(-0.0279139 0.0118612 0)
(-0.0306846 0.00758789 0)
(-0.0321262 0.00259366 0)
(-0.0321235 -0.00264552 0)
(-0.0306765 -0.00763485 0)
(-0.0278997 -0.0118983 0)
(-0.0240185 -0.0150161 0)
(-0.0193581 -0.0166629 0)
(-0.0143263 -0.0166437 0)
(-0.00939117 -0.0149277 0)
(-0.00506368 -0.011678 0)
(-0.00187219 -0.00728025 0)
(-0.000142578 -0.00236012 0)
(-0.00025514 0.00470588 0)
(-0.00311239 0.0136782 0)
(-0.00823119 0.0211936 0)
(-0.0150393 0.0264158 0)
(-0.0226776 0.0288896 0)
(-0.0303602 0.0284937 0)
(-0.0373987 0.0253827 0)
(-0.043212 0.0199343 0)
(-0.0473472 0.0126974 0)
(-0.0494951 0.00434054 0)
(-0.0494985 -0.00439681 0)
(-0.0473558 -0.0127511 0)
(-0.0432216 -0.0199812 0)
(-0.037404 -0.0254167 0)
(-0.0303572 -0.0285073 0)
(-0.0226651 -0.0288763 0)
(-0.0150204 -0.0263737 0)
(-0.00821216 -0.0211298 0)
(-0.00309991 -0.0136122 0)
(-0.000252751 -0.00467001 0)
(-0.000426869 0.00849491 0)
(-0.00491426 0.0237556 0)
(-0.0127447 0.0359193 0)
(-0.0229688 0.0439361 0)
(-0.0342518 0.0473385 0)
(-0.0454382 0.046141 0)
(-0.0555653 0.040732 0)
(-0.0638534 0.0317827 0)
(-0.0697134 0.0201688 0)
(-0.0727523 0.00690252 0)
(-0.072772 -0.00692582 0)
(-0.0697681 -0.020199 0)
(-0.0639309 -0.0318222 0)
(-0.0556487 -0.0407762 0)
(-0.0455105 -0.0461778 0)
(-0.0343008 -0.0473516 0)
(-0.0229907 -0.043912 0)
(-0.0127457 -0.0358568 0)
(-0.00490693 -0.0236751 0)
(-0.000424097 -0.00844424 0)
(-0.000685057 0.014413 0)
(-0.00746008 0.039072 0)
(-0.018945 0.0578416 0)
(-0.0336176 0.069544 0)
(-0.0494836 0.0738684 0)
(-0.0649278 0.0711662 0)
(-0.0786943 0.0622527 0)
(-0.089825 0.0482573 0)
(-0.0976316 0.030511 0)
(-0.101672 0.0104651 0)
(-0.101726 -0.0103653 0)
(-0.0977842 -0.0304424 0)
(-0.0900494 -0.0482411 0)
(-0.078952 -0.0622927 0)
(-0.0651763 -0.0712461 0)
(-0.0496857 -0.0739552 0)
(-0.0337513 -0.0695984 0)
(-0.0190097 -0.0578362 0)
(-0.00747604 -0.0390126 0)
(-0.000683561 -0.014357 0)
(-0.00106703 0.0233248 0)
(-0.0109404 0.0614391 0)
(-0.0270739 0.0890618 0)
(-0.0470894 0.105169 0)
(-0.068126 0.109991 0)
(-0.0880724 0.104601 0)
(-0.105454 0.0905592 0)
(-0.119257 0.0696764 0)
(-0.128821 0.0438722 0)
(-0.133753 0.0150971 0)
(-0.133866 -0.0146962 0)
(-0.129143 -0.0435508 0)
(-0.11974 -0.0694959 0)
(-0.106026 -0.090548 0)
(-0.0886512 -0.104746 0)
(-0.0686293 -0.110234 0)
(-0.0474569 -0.105423 0)
(-0.0272831 -0.0892404 0)
(-0.0110166 -0.0614963 0)
(-0.00107104 -0.023299 0)
(-0.00164051 0.0363528 0)
(-0.0155805 0.0928427 0)
(-0.0371614 0.131385 0)
(-0.0627544 0.151846 0)
(-0.0884732 0.155826 0)
(-0.111848 0.145819 0)
(-0.131472 0.124615 0)
(-0.146591 0.0949735 0)
(-0.156848 0.0594851 0)
(-0.162098 0.020548 0)
(-0.162289 -0.019579 0)
(-0.157401 -0.0586803 0)
(-0.147438 -0.0944641 0)
(-0.132502 -0.124468 0)
(-0.112926 -0.146042 0)
(-0.0894542 -0.156341 0)
(-0.0635155 -0.152499 0)
(-0.037633 -0.131982 0)
(-0.0157776 -0.0932151 0)
(-0.00165872 -0.0364443 0)
(-0.0025352 0.0549614 0)
(-0.0216608 0.135071 0)
(-0.0486847 0.185217 0)
(-0.0782944 0.207986 0)
(-0.105723 0.208039 0)
(-0.128729 0.190467 0)
(-0.146664 0.159924 0)
(-0.159625 0.120323 0)
(-0.168016 0.0748081 0)
(-0.17223 0.0259449 0)
(-0.172485 -0.02408 0)
(-0.168757 -0.0732001 0)
(-0.160775 -0.119203 0)
(-0.148103 -0.159472 0)
(-0.1303 -0.190734 0)
(-0.107232 -0.208945 0)
(-0.0795442 -0.209287 0)
(-0.0495211 -0.186572 0)
(-0.0220486 -0.136088 0)
(-0.00258274 -0.0553349 0)
(-0.00382061 0.0812796 0)
(-0.0292147 0.188864 0)
(-0.0591988 0.247028 0)
(-0.0869777 0.265824 0)
(-0.108153 0.256176 0)
(-0.12225 0.2273 0)
(-0.13066 0.186118 0)
(-0.135132 0.137462 0)
(-0.137222 0.0845408 0)
(-0.13808 0.0294135 0)
(-0.138301 -0.0265022 0)
(-0.13788 -0.0819842 0)
(-0.136199 -0.135582 0)
(-0.13208 -0.185164 0)
(-0.123895 -0.227422 0)
(-0.109823 -0.257361 0)
(-0.0884765 -0.267856 0)
(-0.0602982 -0.249411 0)
(-0.0297874 -0.19087 0)
(-0.00390065 -0.0821411 0)
(-0.00567738 0.121377 0)
(-0.0361692 0.252318 0)
(-0.0587989 0.30271 0)
(-0.0690536 0.30332 0)
(-0.0675332 0.27566 0)
(-0.0583177 0.233221 0)
(-0.0457642 0.183969 0)
(-0.033431 0.132215 0)
(-0.0238561 0.0799581 0)
(-0.0186517 0.0278162 0)
(-0.0186134 -0.0243194 0)
(-0.0237722 -0.0767881 0)
(-0.0333838 -0.129712 0)
(-0.0458607 -0.182475 0)
(-0.0586517 -0.233033 0)
(-0.0681453 -0.276928 0)
(-0.0698364 -0.305889 0)
(-0.0595169 -0.30613 0)
(-0.0366594 -0.255632 0)
(-0.00579186 -0.123022 0)
(-0.0145068 0.185289 0)
(-0.0304637 0.315803 0)
(-0.00974727 0.32553 0)
(0.033489 0.28937 0)
(0.0837751 0.238961 0)
(0.13211 0.18716 0)
(0.173939 0.138915 0)
(0.206803 0.0954228 0)
(0.229365 0.056056 0)
(0.240984 0.0193563 0)
(0.241396 -0.0164658 0)
(0.230557 -0.0533019 0)
(0.20864 -0.0929831 0)
(0.176205 -0.137028 0)
(0.134495 -0.186151 0)
(0.0859322 -0.23919 0)
(0.0350922 -0.291072 0)
(-0.00894819 -0.32851 0)
(-0.0302889 -0.319063 0)
(-0.0145628 -0.187185 0)
(0.102254 0.097845 0)
(0.170891 0.136615 0)
(0.285787 0.116744 0)
(0.399393 0.0889078 0)
(0.490753 0.0651395 0)
(0.559866 0.0463299 0)
(0.610715 0.0317471 0)
(0.646389 0.0204721 0)
(0.669079 0.0115094 0)
(0.680251 0.00389583 0)
(0.680635 -0.00327094 0)
(0.670278 -0.0108174 0)
(0.648323 -0.0197197 0)
(0.61331 -0.0309178 0)
(0.562973 -0.0454405 0)
(0.494121 -0.064261 0)
(0.402646 -0.0881788 0)
(0.28839 -0.116392 0)
(0.172343 -0.136867 0)
(0.102609 -0.0984018 0)
)
;

boundaryField
{
    movingWall
    {
        type            fixedValue;
        value           uniform (1 0 0);
    }
    fixedWalls
    {
        type            noSlip;
    }
    frontAndBack
    {
        type            empty;
    }
}


// ************************************************************************* //
