/*--------------------------------*- C++ -*----------------------------------*\
  =========                 |
  \\      /  F ield         | OpenFOAM: The Open Source CFD Toolbox
   \\    /   O peration     | Website:  https://openfoam.org
    \\  /    A nd           | Version:  12
     \\/     M anipulation  |
\*---------------------------------------------------------------------------*/
FoamFile
{
    format      ascii;
    class       volScalarField;
    location    "3.5";
    object      epsilon;
}
// * * * * * * * * * * * * * * * * * * * * * * * * * * * * * * * * * * * * * //

dimensions      [0 2 -3 0 0 0 0];

internalField   nonuniform List<scalar> 
5625
(
1.42673e-07
2.69418e-07
5.7112e-07
9.31308e-07
1.3371e-06
1.77878e-06
2.24926e-06
2.74306e-06
3.25573e-06
3.78338e-06
4.32257e-06
4.8701e-06
5.42299e-06
5.97843e-06
6.53373e-06
7.08632e-06
7.63371e-06
8.17351e-06
8.70343e-06
9.22125e-06
9.72484e-06
1.02122e-05
1.06812e-05
1.11302e-05
1.15574e-05
1.19609e-05
1.23394e-05
1.26913e-05
1.30152e-05
1.331e-05
1.35744e-05
1.38074e-05
1.40081e-05
1.41757e-05
1.43096e-05
1.44092e-05
1.4474e-05
1.45039e-05
1.44986e-05
1.44581e-05
1.43825e-05
1.4272e-05
1.41269e-05
1.39477e-05
1.37351e-05
1.34898e-05
1.32126e-05
1.29046e-05
1.25669e-05
1.22007e-05
1.18074e-05
1.13885e-05
1.09456e-05
1.04804e-05
9.99481e-06
9.49068e-06
8.97011e-06
8.43526e-06
7.8884e-06
7.33193e-06
6.76832e-06
6.20019e-06
5.63027e-06
5.06143e-06
4.49668e-06
3.93925e-06
3.39257e-06
2.86041e-06
2.34694e-06
1.85701e-06
1.3965e-06
9.72993e-07
5.96812e-07
2.81568e-07
1.49105e-07
9.64519e-07
5.24687e-07
5.10703e-07
6.1007e-07
7.62922e-07
9.47851e-07
1.15458e-06
1.37718e-06
1.61176e-06
1.85547e-06
2.10604e-06
2.36157e-06
2.62039e-06
2.88099e-06
3.14197e-06
3.40201e-06
3.65987e-06
3.91437e-06
4.16438e-06
4.40883e-06
4.64667e-06
4.87692e-06
5.09864e-06
5.31093e-06
5.51295e-06
5.70389e-06
5.883e-06
6.04956e-06
6.20294e-06
6.34253e-06
6.46778e-06
6.57819e-06
6.67334e-06
6.75284e-06
6.81638e-06
6.86368e-06
6.89454e-06
6.90884e-06
6.9065e-06
6.88749e-06
6.85184e-06
6.79964e-06
6.73109e-06
6.64639e-06
6.54585e-06
6.42981e-06
6.2987e-06
6.153e-06
5.99322e-06
5.81999e-06
5.63395e-06
5.43581e-06
5.22636e-06
5.00642e-06
4.77689e-06
4.53869e-06
4.29284e-06
4.04038e-06
3.78244e-06
3.52019e-06
3.25487e-06
2.98779e-06
2.72035e-06
2.45404e-06
2.19048e-06
1.93148e-06
1.67908e-06
1.4357e-06
1.20439e-06
9.893e-07
7.96685e-07
6.3736e-07
5.33756e-07
5.4849e-07
1.00823e-06
2.14356e-06
1.05069e-06
8.1036e-07
7.65213e-07
8.02345e-07
8.84883e-07
9.96216e-07
1.12731e-06
1.27261e-06
1.42837e-06
1.59187e-06
1.76102e-06
1.93413e-06
2.10975e-06
2.28664e-06
2.46369e-06
2.63987e-06
2.81424e-06
2.98594e-06
3.15413e-06
3.31804e-06
3.47695e-06
3.63015e-06
3.77699e-06
3.91685e-06
4.04916e-06
4.17337e-06
4.28898e-06
4.39551e-06
4.49254e-06
4.57967e-06
4.65654e-06
4.72285e-06
4.77832e-06
4.82272e-06
4.85586e-06
4.87759e-06
4.88781e-06
4.88646e-06
4.87354e-06
4.84903e-06
4.81303e-06
4.76565e-06
4.70705e-06
4.63743e-06
4.55706e-06
4.46622e-06
4.36527e-06
4.25457e-06
4.13457e-06
4.00574e-06
3.86861e-06
3.72373e-06
3.57172e-06
3.41323e-06
3.24898e-06
3.0797e-06
2.90621e-06
2.72936e-06
2.55008e-06
2.36936e-06
2.18829e-06
2.00805e-06
1.82999e-06
1.65564e-06
1.4868e-06
1.32571e-06
1.17523e-06
1.03934e-06
9.23865e-07
8.38288e-07
8.00008e-07
8.47605e-07
1.09917e-06
2.24231e-06
3.54212e-06
1.69926e-06
1.23222e-06
1.06247e-06
1.01071e-06
1.02116e-06
1.06987e-06
1.14433e-06
1.23705e-06
1.34313e-06
1.45913e-06
1.58249e-06
1.71121e-06
1.84367e-06
1.97855e-06
2.11467e-06
2.25102e-06
2.38668e-06
2.52084e-06
2.65272e-06
2.78164e-06
2.90692e-06
3.02798e-06
3.14423e-06
3.25514e-06
3.36022e-06
3.45901e-06
3.55107e-06
3.63601e-06
3.71346e-06
3.78309e-06
3.84461e-06
3.89775e-06
3.94228e-06
3.978e-06
4.00476e-06
4.02242e-06
4.03089e-06
4.03012e-06
4.02012e-06
4.00086e-06
3.97241e-06
3.93488e-06
3.88839e-06
3.83312e-06
3.76928e-06
3.69711e-06
3.61691e-06
3.529e-06
3.43374e-06
3.33156e-06
3.2229e-06
3.10825e-06
2.98814e-06
2.86317e-06
2.73395e-06
2.60118e-06
2.46558e-06
2.32797e-06
2.18923e-06
2.05033e-06
1.91237e-06
1.77658e-06
1.6444e-06
1.51756e-06
1.39815e-06
1.28889e-06
1.1934e-06
1.1168e-06
1.06696e-06
1.05701e-06
1.112e-06
1.2903e-06
1.77966e-06
3.70948e-06
5.09427e-06
2.4262e-06
1.72108e-06
1.43009e-06
1.29819e-06
1.24767e-06
1.24608e-06
1.27689e-06
1.33054e-06
1.40087e-06
1.48365e-06
1.57581e-06
1.67499e-06
1.77933e-06
1.8873e-06
1.99762e-06
2.1092e-06
2.22107e-06
2.33238e-06
2.44237e-06
2.55034e-06
2.65565e-06
2.75772e-06
2.856e-06
2.94999e-06
3.03921e-06
3.12325e-06
3.2017e-06
3.27419e-06
3.34039e-06
3.4e-06
3.45273e-06
3.49836e-06
3.53666e-06
3.56746e-06
3.59061e-06
3.60599e-06
3.61351e-06
3.61313e-06
3.60485e-06
3.58863e-06
3.56456e-06
3.53271e-06
3.49321e-06
3.44621e-06
3.39191e-06
3.33054e-06
3.26235e-06
3.18766e-06
3.10682e-06
3.0202e-06
2.92823e-06
2.83139e-06
2.7302e-06
2.62521e-06
2.51704e-06
2.40638e-06
2.29397e-06
2.18064e-06
2.06729e-06
1.95497e-06
1.84486e-06
1.73831e-06
1.63695e-06
1.54275e-06
1.45819e-06
1.38654e-06
1.33222e-06
1.30167e-06
1.30493e-06
1.35928e-06
1.49874e-06
1.80476e-06
2.54472e-06
5.34294e-06
6.757e-06
3.20785e-06
2.25341e-06
1.84026e-06
1.63143e-06
1.52509e-06
1.4793e-06
1.47312e-06
1.4946e-06
1.53626e-06
1.59302e-06
1.66124e-06
1.73818e-06
1.8217e-06
1.91009e-06
2.00193e-06
2.096e-06
2.19127e-06
2.28682e-06
2.38186e-06
2.47565e-06
2.56755e-06
2.65694e-06
2.74329e-06
2.82609e-06
2.90489e-06
2.97926e-06
3.04882e-06
3.11321e-06
3.1721e-06
3.22521e-06
3.27227e-06
3.31304e-06
3.34732e-06
3.37494e-06
3.39576e-06
3.40966e-06
3.41656e-06
3.41641e-06
3.40921e-06
3.39494e-06
3.37366e-06
3.34546e-06
3.31045e-06
3.26878e-06
3.22064e-06
3.16626e-06
3.10588e-06
3.03983e-06
2.96843e-06
2.89207e-06
2.81118e-06
2.72623e-06
2.63774e-06
2.54629e-06
2.45252e-06
2.35714e-06
2.26092e-06
2.16473e-06
2.06956e-06
1.97652e-06
1.88691e-06
1.80227e-06
1.72442e-06
1.65564e-06
1.5988e-06
1.5577e-06
1.53767e-06
1.54655e-06
1.59685e-06
1.71054e-06
1.93161e-06
2.36696e-06
3.37054e-06
7.09971e-06
8.49777e-06
4.02764e-06
2.81507e-06
2.27809e-06
1.99357e-06
1.83414e-06
1.74769e-06
1.70849e-06
1.70206e-06
1.71939e-06
1.75453e-06
1.80324e-06
1.86235e-06
1.92946e-06
2.00262e-06
2.08026e-06
2.16106e-06
2.24387e-06
2.32773e-06
2.41177e-06
2.49522e-06
2.57741e-06
2.65771e-06
2.73555e-06
2.81044e-06
2.88189e-06
2.94948e-06
3.01282e-06
3.07155e-06
3.12535e-06
3.17393e-06
3.21703e-06
3.25441e-06
3.28588e-06
3.31127e-06
3.33043e-06
3.34325e-06
3.34966e-06
3.34961e-06
3.3431e-06
3.3301e-06
3.31069e-06
3.28493e-06
3.25296e-06
3.21492e-06
3.171e-06
3.12143e-06
3.06647e-06
3.00643e-06
2.94166e-06
2.87255e-06
2.79953e-06
2.7231e-06
2.6438e-06
2.56222e-06
2.47904e-06
2.39501e-06
2.31097e-06
2.22785e-06
2.14672e-06
2.0688e-06
1.99551e-06
1.92854e-06
1.86994e-06
1.82226e-06
1.78882e-06
1.77405e-06
1.78422e-06
1.82873e-06
1.92279e-06
2.09342e-06
2.39537e-06
2.96264e-06
4.24053e-06
8.94736e-06
1.02899e-05
4.87248e-06
3.39583e-06
2.73372e-06
2.37418e-06
2.16336e-06
2.03859e-06
1.96906e-06
1.93758e-06
1.93361e-06
1.95016e-06
1.9824e-06
2.02673e-06
2.08041e-06
2.1413e-06
2.20765e-06
2.278e-06
2.35112e-06
2.42597e-06
2.50161e-06
2.57723e-06
2.65212e-06
2.72562e-06
2.79715e-06
2.86617e-06
2.9322e-06
2.99481e-06
3.05359e-06
3.10818e-06
3.15826e-06
3.20353e-06
3.24372e-06
3.27862e-06
3.308e-06
3.33171e-06
3.34961e-06
3.36158e-06
3.36755e-06
3.36747e-06
3.36136e-06
3.34916e-06
3.33097e-06
3.30687e-06
3.27698e-06
3.24145e-06
3.20048e-06
3.15431e-06
3.1032e-06
3.04748e-06
2.98751e-06
2.92369e-06
2.85649e-06
2.78643e-06
2.71407e-06
2.64005e-06
2.56507e-06
2.48994e-06
2.41553e-06
2.34285e-06
2.27305e-06
2.20747e-06
2.14765e-06
2.09547e-06
2.05321e-06
2.02376e-06
2.01087e-06
2.01964e-06
2.05736e-06
2.1351e-06
2.27091e-06
2.4972e-06
2.87997e-06
3.58139e-06
5.14149e-06
1.08591e-05
1.21106e-05
5.73133e-06
3.98746e-06
3.19974e-06
2.76585e-06
2.50498e-06
2.34361e-06
2.24574e-06
2.19137e-06
2.16831e-06
2.16858e-06
2.18662e-06
2.21842e-06
2.26092e-06
2.31172e-06
2.36891e-06
2.43089e-06
2.49633e-06
2.5641e-06
2.63321e-06
2.7028e-06
2.7721e-06
2.84043e-06
2.90717e-06
2.97177e-06
3.03373e-06
3.09259e-06
3.14795e-06
3.19944e-06
3.24672e-06
3.28948e-06
3.32748e-06
3.36046e-06
3.38823e-06
3.41062e-06
3.42748e-06
3.43872e-06
3.44424e-06
3.44401e-06
3.43804e-06
3.42629e-06
3.40886e-06
3.38584e-06
3.35734e-06
3.32354e-06
3.28464e-06
3.24088e-06
3.19256e-06
3.13999e-06
3.08357e-06
3.02372e-06
2.96092e-06
2.89571e-06
2.82869e-06
2.76054e-06
2.69201e-06
2.62395e-06
2.5573e-06
2.49314e-06
2.43271e-06
2.37746e-06
2.32908e-06
2.28963e-06
2.26164e-06
2.24833e-06
2.25392e-06
2.28423e-06
2.34763e-06
2.45691e-06
2.63312e-06
2.91419e-06
3.37772e-06
4.21474e-06
6.06207e-06
1.28114e-05
1.394e-05
6.59469e-06
4.58305e-06
3.67015e-06
3.16284e-06
2.85318e-06
2.65669e-06
2.53209e-06
2.45655e-06
2.41619e-06
2.40196e-06
2.40763e-06
2.42868e-06
2.46175e-06
2.50418e-06
2.55387e-06
2.60909e-06
2.66841e-06
2.7306e-06
2.79462e-06
2.85953e-06
2.92453e-06
2.9889e-06
3.052e-06
3.11325e-06
3.17213e-06
3.22817e-06
3.28094e-06
3.33007e-06
3.37521e-06
3.41605e-06
3.45233e-06
3.48381e-06
3.51028e-06
3.53158e-06
3.54755e-06
3.5581e-06
3.56315e-06
3.56266e-06
3.55664e-06
3.54507e-06
3.52804e-06
3.50564e-06
3.47801e-06
3.44533e-06
3.40782e-06
3.36572e-06
3.31934e-06
3.26903e-06
3.21519e-06
3.15826e-06
3.09876e-06
3.03725e-06
2.97437e-06
2.91083e-06
2.84744e-06
2.78508e-06
2.72477e-06
2.66767e-06
2.61512e-06
2.56866e-06
2.53016e-06
2.50185e-06
2.48652e-06
2.48775e-06
2.51024e-06
2.56057e-06
2.6482e-06
2.78772e-06
3.00321e-06
3.33825e-06
3.8822e-06
4.85527e-06
6.99207e-06
1.4783e-05
1.57607e-05
7.45421e-06
5.17663e-06
4.13991e-06
3.5605e-06
3.20337e-06
2.97314e-06
2.82326e-06
2.72802e-06
2.67184e-06
2.64461e-06
2.63939e-06
2.65116e-06
2.67622e-06
2.71168e-06
2.75523e-06
2.805e-06
2.85945e-06
2.91727e-06
2.97732e-06
3.03864e-06
3.10037e-06
3.16174e-06
3.2221e-06
3.28083e-06
3.33739e-06
3.3913e-06
3.44211e-06
3.48945e-06
3.53294e-06
3.57229e-06
3.60722e-06
3.63748e-06
3.66288e-06
3.68323e-06
3.6984e-06
3.70828e-06
3.7128e-06
3.71193e-06
3.70568e-06
3.69404e-06
3.67709e-06
3.65496e-06
3.62777e-06
3.59572e-06
3.55904e-06
3.51799e-06
3.4729e-06
3.42413e-06
3.3721e-06
3.31728e-06
3.26021e-06
3.20149e-06
3.14178e-06
3.08185e-06
3.02254e-06
2.96479e-06
2.9097e-06
2.8585e-06
2.81261e-06
2.77372e-06
2.74383e-06
2.72537e-06
2.72142e-06
2.73587e-06
2.774e-06
2.84309e-06
2.95375e-06
3.12236e-06
3.37608e-06
3.76417e-06
4.38775e-06
5.49624e-06
7.92205e-06
1.67542e-05
1.75573e-05
8.30267e-06
5.76308e-06
4.60478e-06
3.95493e-06
3.55182e-06
3.28924e-06
3.11542e-06
3.0018e-06
2.9311e-06
2.89216e-06
2.87731e-06
2.88106e-06
2.89931e-06
2.92896e-06
2.96749e-06
3.0129e-06
3.06351e-06
3.11794e-06
3.17497e-06
3.23358e-06
3.29286e-06
3.35201e-06
3.41034e-06
3.46721e-06
3.52206e-06
3.57439e-06
3.62374e-06
3.66971e-06
3.71195e-06
3.75012e-06
3.78396e-06
3.81322e-06
3.83768e-06
3.85719e-06
3.87159e-06
3.8808e-06
3.88473e-06
3.88336e-06
3.87671e-06
3.86477e-06
3.84764e-06
3.82544e-06
3.79833e-06
3.7665e-06
3.73019e-06
3.68969e-06
3.64533e-06
3.59751e-06
3.54665e-06
3.49327e-06
3.43791e-06
3.38122e-06
3.3239e-06
3.26674e-06
3.21064e-06
3.15661e-06
3.10579e-06
3.05951e-06
3.01929e-06
2.98693e-06
2.96459e-06
2.95492e-06
2.96123e-06
2.98782e-06
3.04049e-06
3.12724e-06
3.25982e-06
3.45642e-06
3.74728e-06
4.18727e-06
4.88917e-06
6.13137e-06
8.84312e-06
1.87062e-05
1.93169e-05
9.13385e-06
6.33802e-06
5.06114e-06
4.34293e-06
3.89546e-06
3.60196e-06
3.40551e-06
3.27475e-06
3.19073e-06
3.14121e-06
3.11784e-06
3.11462e-06
3.12711e-06
3.15194e-06
3.18641e-06
3.22836e-06
3.27601e-06
3.32786e-06
3.38264e-06
3.43927e-06
3.49678e-06
3.55434e-06
3.61123e-06
3.66677e-06
3.72039e-06
3.77157e-06
3.81984e-06
3.86479e-06
3.90605e-06
3.94329e-06
3.97622e-06
4.00462e-06
4.02825e-06
4.04696e-06
4.06061e-06
4.0691e-06
4.07235e-06
4.07037e-06
4.06315e-06
4.0507e-06
4.03315e-06
4.0106e-06
3.98323e-06
3.95126e-06
3.91492e-06
3.87453e-06
3.83044e-06
3.78306e-06
3.73284e-06
3.68031e-06
3.62606e-06
3.57076e-06
3.51514e-06
3.46005e-06
3.40642e-06
3.35533e-06
3.30799e-06
3.2658e-06
3.23039e-06
3.20367e-06
3.18798e-06
3.18616e-06
3.20178e-06
3.23955e-06
3.30575e-06
3.40912e-06
3.56256e-06
3.78603e-06
4.11278e-06
4.60322e-06
5.38161e-06
6.7547e-06
9.7468e-06
2.06213e-05
2.10286e-05
9.94258e-06
6.89785e-06
5.50606e-06
4.72185e-06
4.23183e-06
3.90888e-06
3.69111e-06
3.54438e-06
3.44814e-06
3.38909e-06
3.35818e-06
3.34894e-06
3.35656e-06
3.37742e-06
3.40865e-06
3.44791e-06
3.49332e-06
3.54328e-06
3.59646e-06
3.6517e-06
3.708e-06
3.76449e-06
3.82039e-06
3.87503e-06
3.9278e-06
3.97817e-06
4.02565e-06
4.06983e-06
4.11031e-06
4.14678e-06
4.17895e-06
4.20656e-06
4.22942e-06
4.24734e-06
4.26021e-06
4.26791e-06
4.27039e-06
4.26766e-06
4.25969e-06
4.24654e-06
4.22832e-06
4.20516e-06
4.17725e-06
4.1448e-06
4.10808e-06
4.06742e-06
4.02318e-06
3.97579e-06
3.92573e-06
3.87356e-06
3.81989e-06
3.76542e-06
3.71092e-06
3.65728e-06
3.60549e-06
3.55668e-06
3.51211e-06
3.47329e-06
3.44193e-06
3.42009e-06
3.41023e-06
3.41541e-06
3.43949e-06
3.48753e-06
3.5663e-06
3.6853e-06
3.8585e-06
4.10763e-06
4.46886e-06
5.00799e-06
5.86042e-06
7.36051e-06
1.06249e-05
2.2482e-05
2.26836e-05
1.07248e-05
7.43968e-06
5.93718e-06
5.08963e-06
4.55898e-06
4.20813e-06
3.97033e-06
3.80879e-06
3.70135e-06
3.63372e-06
3.59616e-06
3.58173e-06
3.58529e-06
3.60291e-06
3.63158e-06
3.66881e-06
3.71259e-06
3.76124e-06
3.81334e-06
3.86769e-06
3.92322e-06
3.97904e-06
4.03433e-06
4.0884e-06
4.14061e-06
4.19041e-06
4.23731e-06
4.28088e-06
4.32074e-06
4.35654e-06
4.388e-06
4.41487e-06
4.43694e-06
4.45404e-06
4.46605e-06
4.47288e-06
4.47446e-06
4.47082e-06
4.46194e-06
4.44788e-06
4.42876e-06
4.40474e-06
4.37599e-06
4.34276e-06
4.30534e-06
4.26405e-06
4.21928e-06
4.17149e-06
4.12118e-06
4.06893e-06
4.01537e-06
3.96124e-06
3.90735e-06
3.85462e-06
3.8041e-06
3.75697e-06
3.71457e-06
3.67846e-06
3.65049e-06
3.63281e-06
3.62806e-06
3.63946e-06
3.67118e-06
3.72862e-06
3.81903e-06
3.95262e-06
4.14445e-06
4.41791e-06
4.812e-06
5.39771e-06
6.32116e-06
7.94326e-06
1.14694e-05
2.42716e-05
2.42757e-05
1.14775e-05
7.96145e-06
6.35282e-06
5.44476e-06
4.87551e-06
4.49832e-06
4.24178e-06
4.06654e-06
3.9489e-06
3.87358e-06
3.83018e-06
3.81129e-06
3.81147e-06
3.8265e-06
3.85322e-06
3.88897e-06
3.93163e-06
3.97943e-06
4.03088e-06
4.08472e-06
4.13984e-06
4.19529e-06
4.25025e-06
4.30398e-06
4.35583e-06
4.40523e-06
4.45169e-06
4.49475e-06
4.53404e-06
4.5692e-06
4.59995e-06
4.62605e-06
4.64728e-06
4.66349e-06
4.67454e-06
4.68036e-06
4.68089e-06
4.67617e-06
4.66617e-06
4.65098e-06
4.63073e-06
4.60558e-06
4.57573e-06
4.54143e-06
4.50298e-06
4.46074e-06
4.41511e-06
4.36656e-06
4.31561e-06
4.26287e-06
4.209e-06
4.15477e-06
4.10103e-06
4.04874e-06
3.99898e-06
3.953e-06
3.91221e-06
3.87824e-06
3.85303e-06
3.83886e-06
3.83853e-06
3.85541e-06
3.89399e-06
3.95997e-06
4.06107e-06
4.2082e-06
4.41742e-06
4.71373e-06
5.13884e-06
5.76865e-06
6.7595e-06
8.49755e-06
1.22727e-05
2.59737e-05
2.58011e-05
1.21988e-05
8.46188e-06
6.75194e-06
5.78633e-06
5.18053e-06
4.77859e-06
4.50459e-06
4.31671e-06
4.18979e-06
4.10759e-06
4.05909e-06
4.03643e-06
4.03382e-06
4.04682e-06
4.07208e-06
4.10681e-06
4.14877e-06
4.1961e-06
4.24724e-06
4.30087e-06
4.35583e-06
4.41115e-06
4.46595e-06
4.51949e-06
4.5711e-06
4.62019e-06
4.66625e-06
4.70883e-06
4.74753e-06
4.78202e-06
4.81201e-06
4.83724e-06
4.85752e-06
4.87269e-06
4.88263e-06
4.88726e-06
4.88655e-06
4.88054e-06
4.8692e-06
4.85264e-06
4.831e-06
4.80446e-06
4.77323e-06
4.73757e-06
4.6978e-06
4.65429e-06
4.60747e-06
4.55781e-06
4.50588e-06
4.45228e-06
4.39772e-06
4.343e-06
4.28899e-06
4.23669e-06
4.18724e-06
4.14193e-06
4.10223e-06
4.06986e-06
4.04684e-06
4.03558e-06
4.03898e-06
4.06066e-06
4.1053e-06
4.17894e-06
4.28976e-06
4.4493e-06
4.67458e-06
4.99212e-06
5.44614e-06
6.11722e-06
7.17124e-06
9.01811e-06
1.3027e-05
2.75722e-05
2.72586e-05
1.28883e-05
8.94057e-06
7.13419e-06
6.114e-06
5.47372e-06
5.04856e-06
4.75833e-06
4.55884e-06
4.42351e-06
4.33519e-06
4.28225e-06
4.2564e-06
4.25154e-06
4.26299e-06
4.28721e-06
4.3213e-06
4.36289e-06
4.41004e-06
4.46111e-06
4.51474e-06
4.56972e-06
4.62503e-06
4.67979e-06
4.7332e-06
4.78459e-06
4.83337e-06
4.879e-06
4.92104e-06
4.95907e-06
4.99278e-06
5.02186e-06
5.04607e-06
5.06522e-06
5.07916e-06
5.08777e-06
5.09099e-06
5.08881e-06
5.08124e-06
5.06829e-06
5.0501e-06
5.0268e-06
4.99858e-06
4.96567e-06
4.92836e-06
4.88696e-06
4.84187e-06
4.79354e-06
4.74245e-06
4.68919e-06
4.6344e-06
4.57879e-06
4.5232e-06
4.46854e-06
4.41583e-06
4.36627e-06
4.32117e-06
4.2821e-06
4.25082e-06
4.22945e-06
4.2205e-06
4.22699e-06
4.25275e-06
4.30268e-06
4.38309e-06
4.5026e-06
4.67335e-06
4.91324e-06
5.25019e-06
5.7308e-06
6.43991e-06
7.55229e-06
9.49981e-06
1.37251e-05
2.90514e-05
2.86496e-05
1.35466e-05
9.39798e-06
7.49993e-06
6.42804e-06
5.75525e-06
5.30837e-06
5.00307e-06
4.79293e-06
4.64999e-06
4.55624e-06
4.49946e-06
4.47094e-06
4.46428e-06
4.47458e-06
4.49811e-06
4.53185e-06
4.57333e-06
4.62051e-06
4.67169e-06
4.72545e-06
4.78053e-06
4.8359e-06
4.89062e-06
4.94389e-06
4.99501e-06
5.04339e-06
5.08848e-06
5.12982e-06
5.16702e-06
5.19975e-06
5.22771e-06
5.25066e-06
5.26843e-06
5.28087e-06
5.28787e-06
5.28939e-06
5.28545e-06
5.27601e-06
5.26115e-06
5.24101e-06
5.21573e-06
5.18551e-06
5.15061e-06
5.11132e-06
5.06798e-06
5.02099e-06
4.97082e-06
4.91798e-06
4.86307e-06
4.80675e-06
4.74976e-06
4.69295e-06
4.63727e-06
4.58378e-06
4.5337e-06
4.48841e-06
4.44951e-06
4.41884e-06
4.39859e-06
4.39137e-06
4.40033e-06
4.42945e-06
4.48385e-06
4.5701e-06
4.69722e-06
4.87788e-06
5.13081e-06
5.48521e-06
5.98979e-06
6.73333e-06
7.89866e-06
9.9376e-06
1.43595e-05
3.03959e-05
2.99783e-05
1.41756e-05
9.83546e-06
7.8502e-06
6.72931e-06
6.02587e-06
5.55864e-06
5.23936e-06
5.01943e-06
4.86961e-06
4.77106e-06
4.71095e-06
4.68022e-06
4.67215e-06
4.68163e-06
4.70476e-06
4.73838e-06
4.77992e-06
4.82727e-06
4.87866e-06
4.93259e-06
4.9878e-06
5.04318e-06
5.0978e-06
5.15082e-06
5.20154e-06
5.24934e-06
5.29369e-06
5.33411e-06
5.37022e-06
5.40168e-06
5.42821e-06
5.44959e-06
5.46564e-06
5.47623e-06
5.48128e-06
5.48074e-06
5.47465e-06
5.46297e-06
5.44584e-06
5.42337e-06
5.39575e-06
5.36319e-06
5.32594e-06
5.28432e-06
5.23869e-06
5.18947e-06
5.13712e-06
5.0822e-06
5.02531e-06
4.96713e-06
4.90842e-06
4.85006e-06
4.79301e-06
4.73838e-06
4.6874e-06
4.64151e-06
4.60235e-06
4.57181e-06
4.55217e-06
4.54611e-06
4.55689e-06
4.58865e-06
4.64668e-06
4.73781e-06
4.87139e-06
5.06058e-06
5.32485e-06
5.69452e-06
6.22022e-06
6.9942e-06
8.20648e-06
1.03266e-05
1.49231e-05
3.15906e-05
3.12517e-05
1.47787e-05
1.02553e-05
8.18678e-06
7.01929e-06
6.28687e-06
5.80051e-06
5.4682e-06
5.23927e-06
5.08321e-06
4.98038e-06
4.91742e-06
4.88485e-06
4.8757e-06
4.88462e-06
4.90756e-06
4.94124e-06
4.98297e-06
5.03056e-06
5.08217e-06
5.13627e-06
5.19153e-06
5.24683e-06
5.3012e-06
5.35378e-06
5.40387e-06
5.45084e-06
5.49414e-06
5.53331e-06
5.56797e-06
5.59779e-06
5.6225e-06
5.64189e-06
5.6558e-06
5.6641e-06
5.66674e-06
5.6637e-06
5.655e-06
5.64065e-06
5.6208e-06
5.59558e-06
5.56519e-06
5.52986e-06
5.48986e-06
5.44552e-06
5.39722e-06
5.3454e-06
5.29053e-06
5.23317e-06
5.17396e-06
5.11358e-06
5.05282e-06
4.99256e-06
4.9338e-06
4.87767e-06
4.82542e-06
4.77853e-06
4.73868e-06
4.70782e-06
4.68826e-06
4.68279e-06
4.69474e-06
4.72839e-06
4.78918e-06
4.88417e-06
5.02299e-06
5.21924e-06
5.493e-06
5.87559e-06
6.41929e-06
7.21936e-06
8.472e-06
1.0662e-05
1.54093e-05
3.26209e-05
3.24794e-05
1.53604e-05
1.06606e-05
8.51216e-06
7.30009e-06
6.54006e-06
6.03561e-06
5.69109e-06
5.45381e-06
5.29206e-06
5.1854e-06
5.11997e-06
5.08589e-06
5.07591e-06
5.0845e-06
5.10741e-06
5.14125e-06
5.18323e-06
5.23108e-06
5.28289e-06
5.33707e-06
5.39225e-06
5.44729e-06
5.50117e-06
5.55305e-06
5.6022e-06
5.64797e-06
5.68983e-06
5.72734e-06
5.76009e-06
5.78779e-06
5.81018e-06
5.82706e-06
5.83829e-06
5.84377e-06
5.84345e-06
5.83738e-06
5.82551e-06
5.80796e-06
5.78487e-06
5.75638e-06
5.72273e-06
5.68414e-06
5.64093e-06
5.59342e-06
5.54203e-06
5.48718e-06
5.42939e-06
5.36923e-06
5.30732e-06
5.24438e-06
5.18121e-06
5.11872e-06
5.0579e-06
4.9999e-06
4.94601e-06
4.89773e-06
4.85676e-06
4.8251e-06
4.80512e-06
4.79965e-06
4.8121e-06
4.84687e-06
4.90952e-06
5.00728e-06
5.15005e-06
5.35178e-06
5.63306e-06
6.02604e-06
6.58437e-06
7.40579e-06
8.69164e-06
1.09394e-05
1.58112e-05
3.34729e-05
3.36739e-05
1.59266e-05
1.10554e-05
8.8295e-06
7.57436e-06
6.78778e-06
6.26604e-06
5.90994e-06
5.66483e-06
5.49782e-06
5.38772e-06
5.32012e-06
5.2848e-06
5.27422e-06
5.28263e-06
5.30564e-06
5.33971e-06
5.38197e-06
5.43004e-06
5.48196e-06
5.53607e-06
5.59099e-06
5.64551e-06
5.69861e-06
5.74944e-06
5.79723e-06
5.84136e-06
5.8813e-06
5.9166e-06
5.9469e-06
5.97188e-06
5.99133e-06
6.00507e-06
6.01297e-06
6.01497e-06
6.01108e-06
6.00127e-06
5.98561e-06
5.96423e-06
5.93727e-06
5.90491e-06
5.8674e-06
5.825e-06
5.77803e-06
5.72685e-06
5.67186e-06
5.61353e-06
5.55237e-06
5.48897e-06
5.42396e-06
5.35808e-06
5.29213e-06
5.22701e-06
5.16376e-06
5.10353e-06
5.04762e-06
4.99753e-06
4.95501e-06
4.92208e-06
4.90114e-06
4.89507e-06
4.90734e-06
4.94242e-06
5.00598e-06
5.10539e-06
5.25075e-06
5.45627e-06
5.74296e-06
6.14362e-06
6.71296e-06
7.55066e-06
8.86205e-06
1.11544e-05
1.61227e-05
3.41334e-05
3.485e-05
1.64842e-05
1.14445e-05
9.14261e-06
7.84532e-06
7.03285e-06
6.49435e-06
6.1271e-06
5.87453e-06
5.70259e-06
5.58933e-06
5.51982e-06
5.48346e-06
5.47245e-06
5.48083e-06
5.50402e-06
5.53838e-06
5.58089e-06
5.62912e-06
5.68102e-06
5.73489e-06
5.78929e-06
5.84298e-06
5.89494e-06
5.94426e-06
5.99022e-06
6.03217e-06
6.06959e-06
6.10205e-06
6.12921e-06
6.15078e-06
6.16655e-06
6.17639e-06
6.18021e-06
6.17797e-06
6.16969e-06
6.15538e-06
6.13517e-06
6.1092e-06
6.07764e-06
6.04071e-06
5.99866e-06
5.95179e-06
5.90043e-06
5.84496e-06
5.78582e-06
5.72346e-06
5.65843e-06
5.5913e-06
5.52274e-06
5.45348e-06
5.38432e-06
5.31619e-06
5.25011e-06
5.18724e-06
5.12889e-06
5.07658e-06
5.03206e-06
4.99736e-06
4.97491e-06
4.96761e-06
4.97899e-06
5.01354e-06
5.07702e-06
5.17691e-06
5.32341e-06
5.53095e-06
5.82083e-06
6.22629e-06
6.80279e-06
7.65136e-06
8.9801e-06
1.13031e-05
1.6338e-05
3.45899e-05
3.6025e-05
1.70415e-05
1.18336e-05
9.45591e-06
8.11668e-06
7.27855e-06
6.72348e-06
6.3453e-06
6.08549e-06
5.90883e-06
5.79261e-06
5.72138e-06
5.68417e-06
5.67288e-06
5.68135e-06
5.70481e-06
5.73947e-06
5.78222e-06
5.83052e-06
5.88226e-06
5.93566e-06
5.98924e-06
6.04174e-06
6.0921e-06
6.13942e-06
6.18296e-06
6.22208e-06
6.25629e-06
6.28516e-06
6.30838e-06
6.32569e-06
6.33694e-06
6.342e-06
6.34082e-06
6.33344e-06
6.31984e-06
6.30015e-06
6.2745e-06
6.24306e-06
6.20605e-06
6.16371e-06
6.11633e-06
6.06422e-06
6.00775e-06
5.9473e-06
5.88334e-06
5.81634e-06
5.74684e-06
5.67544e-06
5.60281e-06
5.52967e-06
5.45684e-06
5.38524e-06
5.31588e-06
5.24994e-06
5.18872e-06
5.13373e-06
5.08672e-06
5.04974e-06
5.0252e-06
5.01603e-06
5.02577e-06
5.05892e-06
5.1213e-06
5.22041e-06
5.36656e-06
5.57426e-06
5.86498e-06
6.27221e-06
6.85181e-06
7.70556e-06
9.04302e-06
1.1382e-05
1.6452e-05
3.48317e-05
3.72184e-05
1.76075e-05
1.22289e-05
9.77434e-06
8.39261e-06
7.52852e-06
6.95676e-06
6.56761e-06
6.30061e-06
6.11933e-06
6.00028e-06
5.92749e-06
5.88959e-06
5.87818e-06
5.88685e-06
5.91067e-06
5.94569e-06
5.98866e-06
6.03694e-06
6.08834e-06
6.14102e-06
6.19346e-06
6.24434e-06
6.2926e-06
6.33732e-06
6.37777e-06
6.41333e-06
6.4435e-06
6.46791e-06
6.48627e-06
6.49837e-06
6.50407e-06
6.50333e-06
6.49614e-06
6.48252e-06
6.46258e-06
6.43646e-06
6.40434e-06
6.36643e-06
6.32299e-06
6.27429e-06
6.22065e-06
6.16242e-06
6.09999e-06
6.03378e-06
5.96424e-06
5.89187e-06
5.81724e-06
5.74093e-06
5.66363e-06
5.58605e-06
5.50901e-06
5.43342e-06
5.36031e-06
5.2908e-06
5.22622e-06
5.16806e-06
5.11805e-06
5.07823e-06
5.05101e-06
5.03928e-06
5.0466e-06
5.07745e-06
5.13764e-06
5.23471e-06
5.37893e-06
5.58486e-06
5.87397e-06
6.2798e-06
6.85827e-06
7.71124e-06
9.04842e-06
1.13879e-05
1.64602e-05
3.48492e-05
3.84511e-05
1.81923e-05
1.26373e-05
1.01032e-05
8.67762e-06
7.78673e-06
7.19779e-06
6.7974e-06
6.52309e-06
6.33718e-06
6.2154e-06
6.14119e-06
6.10275e-06
6.09139e-06
6.10044e-06
6.12475e-06
6.16018e-06
6.20338e-06
6.25157e-06
6.30247e-06
6.35417e-06
6.40509e-06
6.45389e-06
6.49947e-06
6.54092e-06
6.57751e-06
6.60863e-06
6.63384e-06
6.65279e-06
6.66522e-06
6.67099e-06
6.67001e-06
6.6623e-06
6.64787e-06
6.62683e-06
6.59935e-06
6.56562e-06
6.52585e-06
6.48033e-06
6.42933e-06
6.37319e-06
6.31225e-06
6.24691e-06
6.17756e-06
6.10466e-06
6.02867e-06
5.95013e-06
5.86959e-06
5.78765e-06
5.70498e-06
5.62232e-06
5.54046e-06
5.46031e-06
5.38287e-06
5.30927e-06
5.24078e-06
5.1789e-06
5.12534e-06
5.08209e-06
5.05156e-06
5.03663e-06
5.04081e-06
5.06849e-06
5.12548e-06
5.21924e-06
5.36e-06
5.56221e-06
5.84724e-06
6.24843e-06
6.8214e-06
7.66743e-06
8.99502e-06
1.13192e-05
1.63599e-05
3.46369e-05
3.97456e-05
1.88062e-05
1.30659e-05
1.04483e-05
8.9765e-06
8.0574e-06
7.45039e-06
7.03825e-06
6.75636e-06
6.56575e-06
6.44129e-06
6.3658e-06
6.32704e-06
6.31596e-06
6.3256e-06
6.35059e-06
6.38658e-06
6.43004e-06
6.47809e-06
6.52833e-06
6.57878e-06
6.62777e-06
6.67396e-06
6.71621e-06
6.75362e-06
6.78547e-06
6.81119e-06
6.83036e-06
6.84268e-06
6.84797e-06
6.84614e-06
6.83718e-06
6.82114e-06
6.79813e-06
6.76833e-06
6.73195e-06
6.68926e-06
6.64054e-06
6.5861e-06
6.5263e-06
6.4615e-06
6.3921e-06
6.3185e-06
6.24116e-06
6.16055e-06
6.07715e-06
5.9915e-06
5.90418e-06
5.81578e-06
5.72698e-06
5.63849e-06
5.55112e-06
5.46575e-06
5.38338e-06
5.30514e-06
5.23228e-06
5.1662e-06
5.10858e-06
5.06138e-06
5.02691e-06
5.00798e-06
5.00808e-06
5.03151e-06
5.08402e-06
5.173e-06
5.30851e-06
5.50484e-06
5.78311e-06
6.17623e-06
6.73913e-06
7.57184e-06
8.88017e-06
1.11725e-05
1.61465e-05
3.41846e-05
4.11254e-05
1.94605e-05
1.35223e-05
1.08155e-05
9.29418e-06
8.34487e-06
7.71855e-06
7.2939e-06
7.00403e-06
6.80859e-06
6.6815e-06
6.60494e-06
6.56614e-06
6.55566e-06
6.56622e-06
6.59216e-06
6.62891e-06
6.67275e-06
6.72065e-06
6.77008e-06
6.81898e-06
6.86561e-06
6.90858e-06
6.94676e-06
6.97924e-06
7.00533e-06
7.0245e-06
7.0364e-06
7.04078e-06
7.03755e-06
7.02667e-06
7.00823e-06
6.98235e-06
6.94924e-06
6.90916e-06
6.86238e-06
6.80925e-06
6.75011e-06
6.68534e-06
6.61535e-06
6.54055e-06
6.46138e-06
6.3783e-06
6.29178e-06
6.20232e-06
6.11043e-06
6.01666e-06
5.92158e-06
5.82581e-06
5.73002e-06
5.63495e-06
5.54139e-06
5.45018e-06
5.36224e-06
5.27863e-06
5.20058e-06
5.12948e-06
5.06698e-06
5.01496e-06
4.97571e-06
4.95196e-06
4.94712e-06
4.96539e-06
5.01233e-06
5.0952e-06
5.22387e-06
5.41232e-06
5.68125e-06
6.06295e-06
6.61127e-06
7.42424e-06
8.7036e-06
1.09475e-05
1.58193e-05
3.34907e-05
4.26142e-05
2.0166e-05
1.40142e-05
1.12106e-05
9.63566e-06
8.65354e-06
8.00628e-06
7.56814e-06
7.26981e-06
7.0694e-06
6.9398e-06
6.86245e-06
6.82403e-06
6.8146e-06
6.82653e-06
6.85382e-06
6.89163e-06
6.93603e-06
6.98379e-06
7.03227e-06
7.07927e-06
7.12302e-06
7.16208e-06
7.1953e-06
7.22181e-06
7.24095e-06
7.25225e-06
7.25543e-06
7.25036e-06
7.237e-06
7.21544e-06
7.18584e-06
7.14844e-06
7.10354e-06
7.05148e-06
6.99264e-06
6.92743e-06
6.85628e-06
6.77963e-06
6.69795e-06
6.61171e-06
6.52139e-06
6.42749e-06
6.33052e-06
6.23099e-06
6.12945e-06
6.02645e-06
5.92259e-06
5.81851e-06
5.71485e-06
5.61227e-06
5.51154e-06
5.4135e-06
5.31908e-06
5.22933e-06
5.14542e-06
5.06868e-06
5.00067e-06
4.94322e-06
4.89852e-06
4.86921e-06
4.85856e-06
4.87068e-06
4.9109e-06
4.98631e-06
5.10647e-06
5.285e-06
5.54201e-06
5.90891e-06
6.4381e-06
7.22492e-06
8.46558e-06
1.06444e-05
1.53786e-05
3.25561e-05
4.42352e-05
2.0934e-05
1.45489e-05
1.16395e-05
1.00058e-05
8.98771e-06
8.31754e-06
7.86479e-06
7.55745e-06
7.35196e-06
7.22008e-06
7.14238e-06
7.10493e-06
7.09718e-06
7.11108e-06
7.14024e-06
7.17951e-06
7.22469e-06
7.27236e-06
7.31969e-06
7.3644e-06
7.40462e-06
7.4389e-06
7.4661e-06
7.48537e-06
7.49611e-06
7.49798e-06
7.49079e-06
7.47449e-06
7.44917e-06
7.41505e-06
7.3724e-06
7.32158e-06
7.26301e-06
7.19713e-06
7.12442e-06
7.04537e-06
6.9605e-06
6.87033e-06
6.77537e-06
6.67617e-06
6.57324e-06
6.46713e-06
6.35838e-06
6.24752e-06
6.13513e-06
6.02177e-06
5.90806e-06
5.79455e-06
5.68191e-06
5.57084e-06
5.46208e-06
5.35645e-06
5.25482e-06
5.15819e-06
5.06768e-06
4.98456e-06
4.91033e-06
4.84671e-06
4.7958e-06
4.76013e-06
4.74281e-06
4.74781e-06
4.78019e-06
4.8468e-06
4.95686e-06
5.12346e-06
5.36602e-06
5.71484e-06
6.22045e-06
6.97484e-06
8.16726e-06
1.02648e-05
1.48265e-05
3.13851e-05
4.60112e-05
2.17748e-05
1.51336e-05
1.21078e-05
1.04092e-05
9.35147e-06
8.65615e-06
8.18754e-06
7.87066e-06
7.6601e-06
7.52632e-06
7.44894e-06
7.41325e-06
7.40801e-06
7.42465e-06
7.45634e-06
7.49755e-06
7.54378e-06
7.59135e-06
7.63725e-06
7.67909e-06
7.71494e-06
7.74333e-06
7.76316e-06
7.77358e-06
7.77423e-06
7.7648e-06
7.74523e-06
7.71562e-06
7.67622e-06
7.62738e-06
7.56955e-06
7.5032e-06
7.42889e-06
7.34718e-06
7.25865e-06
7.16391e-06
7.06354e-06
6.95813e-06
6.84828e-06
6.73458e-06
6.61758e-06
6.49787e-06
6.37601e-06
6.25257e-06
6.12814e-06
6.00327e-06
5.87855e-06
5.7546e-06
5.63206e-06
5.5116e-06
5.39395e-06
5.27987e-06
5.17022e-06
5.06593e-06
4.96808e-06
4.87786e-06
4.79667e-06
4.72617e-06
4.66832e-06
4.6255e-06
4.60068e-06
4.59761e-06
4.6211e-06
4.67765e-06
4.77608e-06
4.92888e-06
5.15458e-06
5.48217e-06
5.95996e-06
6.6759e-06
7.81089e-06
9.81134e-06
1.41671e-05
2.99863e-05
4.79629e-05
2.26983e-05
1.57749e-05
1.26205e-05
1.08501e-05
9.74857e-06
9.02565e-06
8.53989e-06
8.21304e-06
7.99761e-06
7.86256e-06
7.78641e-06
7.75354e-06
7.75184e-06
7.77218e-06
7.80718e-06
7.85085e-06
7.89832e-06
7.94565e-06
7.98965e-06
8.02779e-06
8.0581e-06
8.07913e-06
8.08972e-06
8.08945e-06
8.07783e-06
8.05478e-06
8.02041e-06
7.97503e-06
7.91907e-06
7.85307e-06
7.77763e-06
7.69342e-06
7.60111e-06
7.50142e-06
7.39504e-06
7.28266e-06
7.16497e-06
7.04264e-06
6.91631e-06
6.7866e-06
6.65415e-06
6.51953e-06
6.38334e-06
6.24617e-06
6.10859e-06
5.97117e-06
5.8345e-06
5.6992e-06
5.56588e-06
5.43519e-06
5.30782e-06
5.18453e-06
5.0661e-06
4.95344e-06
4.84754e-06
4.74954e-06
4.66073e-06
4.58267e-06
4.51718e-06
4.4665e-06
4.4334e-06
4.4214e-06
4.43504e-06
4.48039e-06
4.5658e-06
4.70306e-06
4.90971e-06