/*--------------------------------*- C++ -*----------------------------------*\
  =========                 |
  \\      /  F ield         | OpenFOAM: The Open Source CFD Toolbox
   \\    /   O peration     | Website:  https://openfoam.org
    \\  /    A nd           | Version:  12
     \\/     M anipulation  |
\*---------------------------------------------------------------------------*/
FoamFile
{
    format      ascii;
    class       volScalarField;
    location    "3.5";
    object      k;
}
// * * * * * * * * * * * * * * * * * * * * * * * * * * * * * * * * * * * * * //

dimensions      [0 2 -2 0 0 0 0];

internalField   nonuniform List<scalar> 
5625
(
6.28807e-11
4.74965e-10
1.00684e-09
1.64183e-09
2.35722e-09
3.13587e-09
3.96528e-09
4.83583e-09
5.73963e-09
6.66985e-09
7.6204e-09
8.58566e-09
9.56038e-09
1.05396e-08
1.15186e-08
1.24928e-08
1.34578e-08
1.44094e-08
1.53437e-08
1.62566e-08
1.71444e-08
1.80035e-08
1.88305e-08
1.96221e-08
2.03751e-08
2.10867e-08
2.17539e-08
2.23743e-08
2.29454e-08
2.3465e-08
2.39312e-08
2.4342e-08
2.46959e-08
2.49914e-08
2.52275e-08
2.54031e-08
2.55174e-08
2.55701e-08
2.55608e-08
2.54895e-08
2.53562e-08
2.51614e-08
2.49056e-08
2.45898e-08
2.4215e-08
2.37825e-08
2.32939e-08
2.2751e-08
2.21556e-08
2.151e-08
2.08166e-08
2.00781e-08
1.92973e-08
1.84772e-08
1.7621e-08
1.67322e-08
1.58145e-08
1.48715e-08
1.39074e-08
1.29263e-08
1.19327e-08
1.09311e-08
9.92631e-09
8.92343e-09
7.92777e-09
6.945e-09
5.9812e-09
5.04298e-09
4.13772e-09
3.27397e-09
2.46208e-09
1.71541e-09
1.0522e-09
4.96412e-10
6.5719e-11
4.25094e-10
3.78379e-09
8.62448e-09
1.44147e-08
2.09043e-08
2.79431e-08
3.54258e-08
4.32708e-08
5.14098e-08
5.97831e-08
6.83368e-08
7.7021e-08
8.57891e-08
9.45965e-08
1.03401e-07
1.12162e-07
1.2084e-07
1.29397e-07
1.37798e-07
1.46007e-07
1.5399e-07
1.61715e-07
1.69151e-07
1.76268e-07
1.8304e-07
1.89438e-07
1.95438e-07
2.01016e-07
2.06152e-07
2.10825e-07
2.15017e-07
2.18712e-07
2.21895e-07
2.24554e-07
2.26678e-07
2.28258e-07
2.29288e-07
2.29763e-07
2.2968e-07
2.2904e-07
2.27841e-07
2.2609e-07
2.23791e-07
2.20952e-07
2.17582e-07
2.13694e-07
2.09301e-07
2.0442e-07
1.99067e-07
1.93263e-07
1.87029e-07
1.80389e-07
1.73368e-07
1.65994e-07
1.58295e-07
1.50303e-07
1.4205e-07
1.3357e-07
1.249e-07
1.16077e-07
1.07139e-07
9.81297e-08
8.90908e-08
8.00678e-08
7.11083e-08
6.22628e-08
5.35853e-08
4.51343e-08
3.69746e-08
2.91801e-08
2.1839e-08
1.50641e-08
9.01491e-09
3.9555e-09
4.44385e-10
9.44734e-10
8.47245e-09
1.94378e-08
3.26456e-08
4.7509e-08
6.36664e-08
8.08639e-08
9.89054e-08
1.17629e-07
1.36895e-07
1.56577e-07
1.7656e-07
1.96736e-07
2.17002e-07
2.37262e-07
2.57421e-07
2.7739e-07
2.97081e-07
3.16412e-07
3.353e-07
3.5367e-07
3.71447e-07
3.88559e-07
4.04939e-07
4.20523e-07
4.35248e-07
4.49058e-07
4.619e-07
4.73723e-07
4.84482e-07
4.94135e-07
5.02644e-07
5.09977e-07
5.16103e-07
5.20999e-07
5.24645e-07
5.27025e-07
5.28128e-07
5.27948e-07
5.26486e-07
5.2374e-07
5.1972e-07
5.1444e-07
5.07917e-07
5.00173e-07
4.91235e-07
4.81134e-07
4.69908e-07
4.57596e-07
4.44244e-07
4.29901e-07
4.14623e-07
3.98468e-07
3.81497e-07
3.63779e-07
3.45384e-07
3.26387e-07
3.06867e-07
2.86906e-07
2.66592e-07
2.46015e-07
2.2527e-07
2.04456e-07
1.83678e-07
1.63047e-07
1.42677e-07
1.22696e-07
1.0324e-07
8.44603e-08
6.65328e-08
4.96688e-08
3.41405e-08
2.03322e-08
8.86325e-09
9.88314e-10
1.56113e-09
1.40234e-08
3.22407e-08
5.42594e-08
7.9107e-08
1.06174e-07
1.35025e-07
1.65322e-07
1.96786e-07
2.29177e-07
2.62278e-07
2.95892e-07
3.29837e-07
3.63939e-07
3.98031e-07
4.31958e-07
4.65566e-07
4.98709e-07
5.31246e-07
5.63043e-07
5.93967e-07
6.23895e-07
6.52707e-07
6.80287e-07
7.06528e-07
7.31327e-07
7.54587e-07
7.76219e-07
7.96138e-07
8.14266e-07
8.30535e-07
8.4488e-07
8.57245e-07
8.67581e-07
8.75847e-07
8.82009e-07
8.86041e-07
8.87923e-07
8.87647e-07
8.85212e-07
8.80615e-07
8.73873e-07
8.65008e-07
8.54049e-07
8.41033e-07
8.26004e-07
8.09017e-07
7.90132e-07
7.69416e-07
7.46947e-07
7.22809e-07
6.97091e-07
6.69894e-07
6.41322e-07
6.11488e-07
5.80512e-07
5.48519e-07
5.15644e-07
4.82025e-07
4.4781e-07
4.13151e-07
3.7821e-07
3.43154e-07
3.08161e-07
2.73419e-07
2.39125e-07
2.05494e-07
1.72761e-07
1.41189e-07
1.11079e-07
8.27961e-08
5.68076e-08
3.37619e-08
1.46867e-08
1.63498e-09
2.2452e-09
2.01805e-08
4.64392e-08
7.82352e-08
1.14179e-07
1.53391e-07
1.95238e-07
2.39225e-07
2.84941e-07
3.32029e-07
3.80171e-07
4.29077e-07
4.78477e-07
5.28115e-07
5.7775e-07
6.27149e-07
6.76092e-07
7.24363e-07
7.71758e-07
8.18078e-07
8.63133e-07
9.0674e-07
9.48725e-07
9.88921e-07
1.02717e-06
1.06332e-06
1.09724e-06
1.12878e-06
1.15783e-06
1.18428e-06
1.20802e-06
1.22897e-06
1.24702e-06
1.26213e-06
1.27422e-06
1.28325e-06
1.28917e-06
1.29197e-06
1.29161e-06
1.28812e-06
1.28147e-06
1.27169e-06
1.25882e-06
1.24289e-06
1.22397e-06
1.2021e-06
1.17738e-06
1.14989e-06
1.11973e-06
1.08701e-06
1.05185e-06
1.01438e-06
9.74757e-07
9.33121e-07
8.89643e-07
8.44495e-07
7.97864e-07
7.49942e-07
7.00936e-07
6.5106e-07
6.00539e-07
5.49608e-07
4.98516e-07
4.47523e-07
3.96905e-07
3.46956e-07
2.97994e-07
2.50364e-07
2.04456e-07
1.60717e-07
1.19682e-07
8.20319e-08
4.87031e-08
2.11668e-08
2.35494e-09
2.97802e-09
2.67749e-08
6.16436e-08
1.0391e-07
1.51741e-07
2.03976e-07
2.59773e-07
3.18469e-07
3.79512e-07
4.42423e-07
5.06773e-07
5.72168e-07
6.38244e-07
7.04657e-07
7.7108e-07
8.37203e-07
9.02725e-07
9.67359e-07
1.03083e-06
1.09287e-06
1.15322e-06
1.21165e-06
1.26791e-06
1.32178e-06
1.37305e-06
1.42151e-06
1.46699e-06
1.5093e-06
1.54828e-06
1.58377e-06
1.61564e-06
1.64377e-06
1.66803e-06
1.68835e-06
1.70463e-06
1.7168e-06
1.72482e-06
1.72865e-06
1.72826e-06
1.72366e-06
1.71483e-06
1.70181e-06
1.68464e-06
1.66337e-06
1.63808e-06
1.60884e-06
1.57577e-06
1.53898e-06
1.49861e-06
1.45479e-06
1.4077e-06
1.35752e-06
1.30443e-06
1.24864e-06
1.19037e-06
1.12986e-06
1.06736e-06
1.00313e-06
9.37441e-07
8.70588e-07
8.02873e-07
7.34616e-07
6.66151e-07
5.97833e-07
5.30033e-07
4.63152e-07
3.9762e-07
3.33905e-07
2.72534e-07
2.14108e-07
1.59345e-07
1.0915e-07
6.47663e-08
2.81344e-08
3.12925e-09
3.74523e-09
3.36779e-08
7.75579e-08
1.30781e-07
1.91055e-07
2.56926e-07
3.27336e-07
4.01452e-07
4.78574e-07
5.58094e-07
6.39467e-07
7.22193e-07
8.05808e-07
8.89873e-07
9.73973e-07
1.05771e-06
1.14071e-06
1.22259e-06
1.30302e-06
1.38165e-06
1.45815e-06
1.53222e-06
1.60356e-06
1.67189e-06
1.73692e-06
1.79842e-06
1.85614e-06
1.90985e-06
1.95934e-06
2.00443e-06
2.04493e-06
2.0807e-06
2.11157e-06
2.13744e-06
2.1582e-06
2.17376e-06
2.18405e-06
2.18903e-06
2.18866e-06
2.18295e-06
2.17188e-06
2.15548e-06
2.13382e-06
2.10696e-06
2.07498e-06
2.038e-06
1.99614e-06
1.94956e-06
1.89842e-06
1.84291e-06
1.78323e-06
1.71961e-06
1.6523e-06
1.58156e-06
1.50766e-06
1.43092e-06
1.35164e-06
1.27016e-06
1.18684e-06
1.10204e-06
1.01615e-06
9.29582e-07
8.42763e-07
7.56146e-07
6.70209e-07
5.85463e-07
5.02458e-07
4.21794e-07
3.44137e-07
2.70253e-07
2.01049e-07
1.37664e-07
8.16567e-08
3.54617e-08
3.94361e-09
4.53508e-09
4.07841e-08
9.39393e-08
1.58439e-07
2.31519e-07
3.11425e-07
3.96881e-07
4.86877e-07
5.80565e-07
6.77207e-07
7.76137e-07
8.76746e-07
9.78467e-07
1.08076e-06
1.18313e-06
1.28508e-06
1.38614e-06
1.48588e-06
1.58386e-06
1.67967e-06
1.77291e-06
1.8632e-06
1.95018e-06
2.0335e-06
2.11283e-06
2.18786e-06
2.25829e-06
2.32386e-06
2.3843e-06
2.43938e-06
2.48889e-06
2.53262e-06
2.57041e-06
2.60211e-06
2.62758e-06
2.64671e-06
2.65943e-06
2.66566e-06
2.66538e-06
2.6586e-06
2.64526e-06
2.62543e-06
2.59917e-06
2.56656e-06
2.52771e-06
2.48274e-06
2.43182e-06
2.37512e-06
2.31284e-06
2.24522e-06
2.17251e-06
2.09498e-06
2.01292e-06
1.92667e-06
1.83657e-06
1.74297e-06
1.64628e-06
1.54691e-06
1.44527e-06
1.34184e-06
1.23709e-06
1.13152e-06
1.02566e-06
9.20062e-07
8.15319e-07
7.12057e-07
6.1095e-07
5.12731e-07
4.18216e-07
3.28335e-07
2.4419e-07
1.67161e-07
9.91303e-08
4.30425e-08
4.78621e-09
5.33752e-09
4.80032e-08
1.1058e-07
1.86533e-07
2.72619e-07
3.6678e-07
4.67518e-07
5.73646e-07
6.84168e-07
7.98211e-07
9.14991e-07
1.03379e-06
1.15393e-06
1.27479e-06
1.39575e-06
1.51625e-06
1.63573e-06
1.75366e-06
1.86954e-06
1.98288e-06
2.0932e-06
2.20005e-06
2.30301e-06
2.40166e-06
2.49561e-06
2.58449e-06
2.66795e-06
2.74566e-06
2.81733e-06
2.88268e-06
2.94143e-06
2.99337e-06
3.03829e-06
3.07601e-06
3.10636e-06
3.12922e-06
3.14449e-06
3.15209e-06
3.15198e-06
3.14417e-06
3.12859e-06
3.10533e-06
3.07444e-06
3.03603e-06
2.99021e-06
2.93714e-06
2.877e-06
2.81e-06
2.73638e-06
2.65642e-06
2.5704e-06
2.47866e-06
2.38155e-06
2.27945e-06
2.17277e-06
2.06195e-06
1.94746e-06
1.82977e-06
1.70941e-06
1.58692e-06
1.46287e-06
1.33786e-06
1.21252e-06
1.08751e-06
9.63541e-07
8.41352e-07
7.21746e-07
6.05593e-07
4.93859e-07
3.87642e-07
2.88241e-07
1.9728e-07
1.16973e-07
5.0784e-08
5.6467e-09
6.14379e-09
5.52565e-08
1.27298e-07
2.14757e-07
3.13906e-07
4.22384e-07
5.3847e-07
6.60802e-07
7.88233e-07
9.19759e-07
1.05448e-06
1.19155e-06
1.33022e-06
1.46973e-06
1.6094e-06
1.74857e-06
1.88658e-06
2.02284e-06
2.15675e-06
2.28774e-06
2.41528e-06
2.53884e-06
2.65791e-06
2.77203e-06
2.88074e-06
2.98361e-06
3.08024e-06
3.17026e-06
3.2533e-06
3.32904e-06
3.39719e-06
3.45747e-06
3.50964e-06
3.5535e-06
3.58885e-06
3.61555e-06
3.63347e-06
3.64253e-06
3.64267e-06
3.63391e-06
3.61616e-06
3.5895e-06
3.55402e-06
3.50982e-06
3.45703e-06
3.39584e-06
3.32646e-06
3.24911e-06
3.16409e-06
3.0717e-06
2.97228e-06
2.86622e-06
2.75392e-06
2.63583e-06
2.51243e-06
2.38421e-06
2.25172e-06
2.11553e-06
1.97624e-06
1.83449e-06
1.69093e-06
1.54628e-06
1.40125e-06
1.25663e-06
1.11324e-06
9.71924e-07
8.33631e-07
6.99365e-07
5.70241e-07
4.47528e-07
3.32722e-07
2.27694e-07
1.34992e-07
5.8602e-08
6.51571e-09
6.9462e-09
6.24748e-08
1.43935e-07
2.42841e-07
3.54987e-07
4.77706e-07
6.0906e-07
7.47508e-07
8.91757e-07
1.04067e-06
1.19323e-06
1.3485e-06
1.50558e-06
1.66367e-06
1.82196e-06
1.9797e-06
2.13617e-06
2.29068e-06
2.44255e-06
2.59114e-06
2.73583e-06
2.87604e-06
3.0112e-06
3.14076e-06
3.2642e-06
3.38106e-06
3.49085e-06
3.59316e-06
3.68758e-06
3.77375e-06
3.85131e-06
3.91997e-06
3.97944e-06
4.02949e-06
4.06991e-06
4.10051e-06
4.12116e-06
4.13175e-06
4.13222e-06
4.12259e-06
4.10274e-06
4.07279e-06
4.03279e-06
3.98288e-06
3.92322e-06
3.85399e-06
3.77542e-06
3.68781e-06
3.59144e-06
3.48668e-06
3.37392e-06
3.25359e-06
3.12614e-06
2.99209e-06
2.85198e-06
2.70638e-06
2.55592e-06
2.40124e-06
2.24303e-06
2.08202e-06
1.91896e-06
1.75466e-06
1.58995e-06
1.42572e-06
1.26289e-06
1.10246e-06
9.45482e-07
7.93106e-07
6.46598e-07
5.07394e-07
3.7719e-07
2.581e-07
1.53006e-07
6.6418e-08
7.38452e-09
7.73804e-09
6.95978e-08
1.60352e-07
2.70551e-07
3.95517e-07
5.32282e-07
6.78692e-07
8.33032e-07
9.93863e-07
1.15992e-06
1.33007e-06
1.50326e-06
1.67851e-06
1.8549e-06
2.03155e-06
2.20761e-06
2.38227e-06
2.55477e-06
2.72436e-06
2.89031e-06
3.05193e-06
3.20858e-06
3.3596e-06
3.50441e-06
3.64241e-06
3.77308e-06
3.89589e-06
4.01036e-06
4.11605e-06
4.21254e-06
4.29944e-06
4.37641e-06
4.44315e-06
4.49937e-06
4.54484e-06
4.57936e-06
4.60277e-06
4.61494e-06
4.61581e-06
4.60539e-06
4.58356e-06
4.5504e-06
4.50603e-06
4.45055e-06
4.38415e-06
4.30704e-06
4.21947e-06
4.12175e-06
4.01423e-06
3.89729e-06
3.77137e-06
3.63695e-06
3.49455e-06
3.34474e-06
3.18812e-06
3.02534e-06
2.8571e-06
2.68413e-06
2.5072e-06
2.32712e-06
2.14476e-06
1.961e-06
1.7768e-06
1.59315e-06
1.41108e-06
1.23172e-06
1.05624e-06
8.85931e-07
7.22208e-07
5.66676e-07
4.21223e-07
2.88209e-07
1.70844e-07
7.41581e-08
8.2449e-09
8.51353e-09
7.65737e-08
1.76428e-07
2.97685e-07
4.35201e-07
5.85714e-07
7.46856e-07
9.16744e-07
1.09379e-06
1.27662e-06
1.46397e-06
1.65468e-06
1.84769e-06
2.04197e-06
2.23655e-06
2.43051e-06
2.62296e-06
2.81304e-06
2.99993e-06
3.18284e-06
3.36101e-06
3.53371e-06
3.70024e-06
3.85994e-06
4.01218e-06
4.15634e-06
4.29188e-06
4.41825e-06
4.53497e-06
4.64156e-06
4.73762e-06
4.82275e-06
4.89661e-06
4.9589e-06
5.00936e-06
5.04775e-06
5.07391e-06
5.08768e-06
5.08899e-06
5.07786e-06
5.05414e-06
5.01793e-06
4.96932e-06
4.90846e-06
4.83553e-06
4.75076e-06
4.65443e-06
4.54688e-06
4.42848e-06
4.29966e-06
4.16089e-06
4.01272e-06
3.8557e-06
3.69047e-06
3.5177e-06
3.33811e-06
3.15246e-06
2.96157e-06
2.76629e-06
2.56753e-06
2.36624e-06
2.16341e-06
1.96009e-06
1.75739e-06
1.55645e-06
1.35852e-06
1.16489e-06
9.76991e-07
7.96381e-07
6.24831e-07
4.6442e-07
3.17746e-07
1.88344e-07
8.17513e-08
9.08896e-09
9.26789e-09
8.33591e-08
1.92065e-07
3.24075e-07
4.73792e-07
6.37668e-07
8.13126e-07
9.98117e-07
1.19092e-06
1.39002e-06
1.59406e-06
1.80178e-06
2.01201e-06
2.22363e-06
2.4356e-06
2.6469e-06
2.85657e-06
3.06368e-06
3.26732e-06
3.46665e-06
3.66082e-06
3.84906e-06
4.03059e-06
4.2047e-06
4.37069e-06
4.52792e-06
4.67576e-06
4.81364e-06
4.94101e-06
5.05739e-06
5.16229e-06
5.25532e-06
5.33608e-06
5.40425e-06
5.45954e-06
5.5017e-06
5.53053e-06
5.54589e-06
5.54765e-06
5.53586e-06
5.51035e-06
5.47121e-06
5.41855e-06
5.35251e-06
5.2733e-06
5.18116e-06
5.07639e-06
4.95934e-06
4.83044e-06
4.69014e-06
4.53896e-06
4.37748e-06
4.20632e-06
4.02616e-06
3.83774e-06
3.64185e-06
3.43932e-06
3.23105e-06
3.01797e-06
2.80107e-06
2.5814e-06
2.36006e-06
2.13817e-06
1.91697e-06
1.6977e-06
1.48172e-06
1.27046e-06
1.06547e-06
8.68451e-07
6.81336e-07
5.06392e-07
3.46445e-07
2.05348e-07
8.91291e-08
9.90908e-09
9.9973e-09
8.99199e-08
2.07183e-07
3.49587e-07
5.11094e-07
6.87879e-07
8.77161e-07
1.07673e-06
1.28473e-06
1.49953e-06
1.71966e-06
1.94376e-06
2.17057e-06
2.39889e-06
2.62758e-06
2.85555e-06
3.08177e-06
3.30522e-06
3.52493e-06
3.74e-06
3.94951e-06
4.15262e-06
4.34851e-06
4.5364e-06
4.71554e-06
4.88525e-06
5.04484e-06
5.1937e-06
5.33124e-06
5.45693e-06
5.57028e-06
5.67082e-06
5.75816e-06
5.83193e-06
5.89181e-06
5.93755e-06
5.96893e-06
5.98577e-06
5.98796e-06
5.97554e-06
5.94831e-06
5.90637e-06
5.84983e-06
5.77885e-06
5.69363e-06
5.59444e-06
5.48159e-06
5.35548e-06
5.21653e-06
5.06524e-06
4.90217e-06
4.72795e-06
4.54323e-06
4.34877e-06
4.14535e-06
3.93382e-06
3.71509e-06
3.49013e-06
3.25996e-06
3.02564e-06
2.78832e-06
2.54917e-06
2.30944e-06
2.07044e-06
1.83355e-06
1.60022e-06
1.372e-06
1.15057e-06
9.37769e-07
7.35684e-07
5.4676e-07
3.74049e-07
2.21701e-07
9.6225e-08
1.06979e-08
1.0699e-08
9.62311e-08
2.21724e-07
3.74123e-07
5.46964e-07
7.36153e-07
9.38713e-07
1.15228e-06
1.37486e-06
1.6047e-06
1.84024e-06
2.08003e-06
2.32269e-06
2.56696e-06
2.81162e-06
3.05549e-06
3.29747e-06
3.53647e-06
3.77147e-06
4.00148e-06
4.22554e-06
4.44274e-06
4.65222e-06
4.85313e-06
5.04469e-06
5.22615e-06
5.39681e-06
5.55599e-06
5.70309e-06
5.83752e-06
5.95876e-06
6.06633e-06
6.1598e-06
6.23878e-06
6.30293e-06
6.35198e-06
6.38568e-06
6.40386e-06
6.40639e-06
6.39331e-06
6.36439e-06
6.31976e-06
6.25951e-06
6.18382e-06
6.09289e-06
5.987e-06
5.8665e-06
5.73178e-06
5.5833e-06
5.4216e-06
5.24727e-06
5.06096e-06
4.8634e-06
4.65537e-06
4.43772e-06
4.21136e-06
3.97726e-06
3.73646e-06
3.49005e-06
3.23919e-06
2.98509e-06
2.72902e-06
2.47233e-06
2.21642e-06
1.96277e-06
1.71293e-06
1.46858e-06
1.23151e-06
1.0037e-06
7.87378e-07
5.85157e-07
4.00303e-07
2.37256e-07
1.02974e-07
1.14481e-08
1.13713e-08
1.02278e-07
2.35655e-07
3.97624e-07
5.81315e-07
7.82372e-07
9.97627e-07
1.22456e-06
1.46106e-06
1.70526e-06
1.95549e-06
2.21019e-06
2.46793e-06
2.72734e-06
2.98713e-06
3.24605e-06
3.50292e-06
3.7566e-06
4.00599e-06
4.25005e-06
4.48776e-06
4.71815e-06
4.94032e-06
5.15338e-06
5.35649e-06
5.54886e-06
5.72976e-06
5.89848e-06
6.05437e-06
6.19683e-06
6.32531e-06
6.43929e-06
6.53832e-06
6.622e-06
6.68998e-06
6.74196e-06
6.77768e-06
6.79696e-06
6.79966e-06
6.78584e-06
6.75523e-06
6.70797e-06
6.64416e-06
6.56397e-06
6.46763e-06
6.35542e-06
6.2277e-06
6.08489e-06
5.92747e-06
5.756e-06
5.5711e-06
5.37347e-06
5.16387e-06
4.94313e-06
4.71215e-06
4.47188e-06
4.22338e-06
3.96773e-06
3.7061e-06
3.43972e-06
3.16988e-06
2.89794e-06
2.62532e-06
2.35353e-06
2.08414e-06
1.8188e-06
1.5593e-06
1.30755e-06
1.06563e-06
8.35932e-07
6.2122e-07
4.2496e-07
2.51864e-07
1.09312e-07
1.21526e-08
1.20136e-08
1.08055e-07
2.48963e-07
4.20072e-07
6.14117e-07
8.26494e-07
1.05385e-06
1.29352e-06
1.54325e-06
1.80109e-06
2.06524e-06
2.33408e-06
2.60607e-06
2.87977e-06
3.1538e-06
3.42686e-06
3.69769e-06
3.96508e-06
4.22789e-06
4.48501e-06
4.73537e-06
4.97796e-06
5.21181e-06
5.43601e-06
5.64968e-06
5.852e-06
6.04218e-06
6.21951e-06
6.38331e-06
6.53294e-06
6.66784e-06
6.78748e-06
6.89139e-06
6.97914e-06
7.05038e-06
7.10479e-06
7.14212e-06
7.16217e-06
7.16479e-06
7.15006e-06
7.11769e-06
7.06781e-06
7.00054e-06
6.91606e-06
6.81459e-06
6.69643e-06
6.56195e-06
6.41159e-06
6.24585e-06
6.06531e-06
5.87063e-06
5.66252e-06
5.44178e-06
5.20929e-06
4.96598e-06
4.71287e-06
4.45106e-06
4.18168e-06
3.90599e-06
3.62526e-06
3.34087e-06
3.05425e-06
2.76691e-06
2.48043e-06
2.19647e-06
1.91679e-06
1.64327e-06
1.37792e-06
1.12295e-06
8.80869e-07
6.54595e-07
4.47779e-07
2.65382e-07
1.15177e-07
1.28046e-08
1.26267e-08
1.13568e-07
2.61661e-07
4.41487e-07
6.45402e-07
8.68559e-07
1.10742e-06
1.35919e-06
1.62149e-06
1.89223e-06
2.16956e-06
2.45173e-06
2.73713e-06
3.02423e-06
3.3116e-06
3.59785e-06
3.88165e-06
4.16175e-06
4.43693e-06
4.70604e-06
4.96796e-06
5.22164e-06
5.46608e-06
5.7003e-06
5.92342e-06
6.13457e-06
6.33296e-06
6.51784e-06
6.6885e-06
6.84431e-06
6.98468e-06
7.10908e-06
7.21701e-06
7.30806e-06
7.38186e-06
7.43808e-06
7.47648e-06
7.49685e-06
7.49905e-06
7.48315e-06
7.44886e-06
7.3963e-06
7.32563e-06
7.23701e-06
7.13067e-06
7.00692e-06
6.86615e-06
6.70881e-06
6.5354e-06
6.34654e-06
6.1429e-06
5.92522e-06
5.69434e-06
5.45115e-06
5.19664e-06
4.93187e-06
4.65796e-06
4.37613e-06
4.08766e-06
3.79391e-06
3.49631e-06
3.19636e-06
2.89563e-06
2.5958e-06
2.29861e-06
2.00589e-06
1.71962e-06
1.4419e-06
1.17507e-06
9.21721e-07
6.84936e-07
4.68522e-07
2.77669e-07
1.20508e-07
1.33972e-08
1.32123e-08
1.18834e-07
2.73789e-07
4.61934e-07
6.75262e-07
9.0869e-07
1.15851e-06
1.42177e-06
1.69598e-06
1.97895e-06
2.2687e-06
2.56341e-06
2.86139e-06
3.16102e-06
3.4608e-06
3.75926e-06
4.05502e-06
4.34677e-06
4.63323e-06
4.9132e-06
5.18552e-06
5.4491e-06
5.7029e-06
5.94593e-06
6.17726e-06
6.39602e-06
6.60138e-06
6.79259e-06
6.96894e-06
7.12978e-06
7.27452e-06
7.40261e-06
7.51358e-06
7.607e-06
7.6825e-06
7.73978e-06
7.77857e-06
7.79868e-06
7.79998e-06
7.78256e-06
7.74608e-06
7.69072e-06
7.61663e-06
7.52396e-06
7.41297e-06
7.28398e-06
7.13737e-06
6.9736e-06
6.79321e-06
6.59682e-06
6.3851e-06
6.15883e-06
5.91887e-06
5.66613e-06
5.40164e-06
5.12648e-06
4.84182e-06
4.54893e-06
4.24911e-06
3.9438e-06
3.63446e-06
3.32266e-06
3.01005e-06
2.69836e-06
2.3894e-06
2.08509e-06
1.78749e-06
1.49878e-06
1.22139e-06
9.58034e-07
7.11902e-07
4.86957e-07
2.88589e-07
1.25246e-07
1.39237e-08
1.37735e-08
1.2388e-07
2.85408e-07
4.81518e-07
7.03852e-07
9.47095e-07
1.20736e-06
1.48157e-06
1.76709e-06
2.06163e-06
2.36311e-06
2.66962e-06
2.97938e-06
3.29068e-06
3.60195e-06
3.91166e-06
4.21835e-06
4.52066e-06
4.81727e-06
5.10691e-06
5.38841e-06
5.66062e-06
5.92248e-06
6.17297e-06
6.41116e-06
6.63616e-06
6.84713e-06
7.04332e-06
7.22402e-06
7.38857e-06
7.5364e-06
7.66697e-06
7.77981e-06
7.87451e-06
7.95071e-06
8.00812e-06
8.04648e-06
8.06562e-06
8.06542e-06
8.04598e-06
8.00695e-06
7.94856e-06
7.87094e-06
7.77426e-06
7.65879e-06
7.52485e-06
7.37283e-06
7.20321e-06
7.01652e-06
6.81339e-06
6.59452e-06
6.3607e-06
6.11278e-06
5.85173e-06
5.57856e-06
5.2944e-06
5.00045e-06
4.69799e-06
4.38839e-06
4.0731e-06
3.75364e-06
3.43164e-06
3.10878e-06
2.78686e-06
2.46775e-06
2.15344e-06
1.84605e-06
1.54786e-06
1.26136e-06
9.89364e-07
7.35166e-07
5.02859e-07
2.98007e-07
1.29331e-07
1.43779e-08
1.43146e-08
1.28745e-07
2.96608e-07
5.00391e-07
7.31389e-07
9.84061e-07
1.25435e-06
1.53903e-06
1.83534e-06
2.14088e-06
2.45347e-06
2.77109e-06
3.09186e-06
3.41403e-06
3.7359e-06
4.0559e-06
4.37251e-06
4.68429e-06
4.98988e-06
5.28797e-06
5.57735e-06
5.85684e-06
6.12537e-06
6.3819e-06
6.62548e-06
6.85522e-06
7.07029e-06
7.26995e-06
7.45349e-06
7.62028e-06
7.76976e-06
7.90141e-06
8.01479e-06
8.10951e-06
8.18522e-06
8.24167e-06
8.27862e-06
8.29592e-06
8.29348e-06
8.27139e-06
8.22934e-06
8.16757e-06
8.08622e-06
7.98549e-06
7.86563e-06
7.72699e-06
7.56996e-06
7.39502e-06
7.20271e-06
6.99367e-06
6.7686e-06
6.5283e-06
6.27362e-06
6.00554e-06
5.7251e-06
5.43342e-06
5.13174e-06
4.82134e-06
4.50362e-06
4.18007e-06
3.85225e-06
3.5218e-06
3.19047e-06
2.86009e-06
2.53259e-06
2.21001e-06
1.89452e-06
1.58848e-06
1.29443e-06
1.01529e-06
7.54411e-07
5.16012e-07
3.05797e-07
1.3271e-07
1.47534e-08
1.4841e-08
1.33478e-07
3.07502e-07
5.1874e-07
7.58149e-07
1.01996e-06
1.29994e-06
1.59471e-06
1.90139e-06
2.21746e-06
2.54061e-06
2.86874e-06
3.19986e-06
3.53213e-06
3.86378e-06
4.19316e-06
4.51867e-06
4.83884e-06
5.15223e-06
5.45752e-06
5.75343e-06
6.0388e-06
6.31251e-06
6.57353e-06
6.82091e-06
7.05377e-06
7.2713e-06
7.47276e-06
7.65748e-06
7.82487e-06
7.97438e-06
8.10554e-06
8.21794e-06
8.31122e-06
8.3851e-06
8.43932e-06
8.47371e-06
8.48813e-06
8.48257e-06
8.45704e-06
8.41136e-06
8.34576e-06
8.26039e-06
8.15546e-06
8.03124e-06
7.88809e-06
7.7264e-06
7.54665e-06
7.3494e-06
7.13527e-06
6.90497e-06
6.65929e-06
6.39909e-06
6.12534e-06
5.83909e-06
5.54146e-06
5.23368e-06
4.91707e-06
4.59304e-06
4.26306e-06
3.92874e-06
3.59175e-06
3.25385e-06
2.91691e-06
2.5829e-06
2.2539e-06
1.93214e-06
1.62e-06
1.3201e-06
1.0354e-06
7.6934e-07
5.26212e-07
3.11836e-07
1.35329e-07
1.50445e-08
1.53594e-08
1.38138e-07
3.18226e-07
5.36797e-07
7.84468e-07
1.05524e-06
1.3447e-06
1.64931e-06
1.96606e-06
2.29229e-06
2.62558e-06
2.96371e-06
3.30461e-06
3.64631e-06
3.98697e-06
4.32486e-06
4.65831e-06
4.98578e-06
5.3058e-06
5.61699e-06
5.91807e-06
6.20783e-06
6.48516e-06
6.74904e-06
6.99852e-06
7.23274e-06
7.45092e-06
7.65237e-06
7.83644e-06
8.0026e-06
8.15034e-06
8.27926e-06
8.38897e-06
8.4792e-06
8.54969e-06
8.60025e-06
8.63075e-06
8.64111e-06
8.63138e-06
8.6015e-06
8.55144e-06
8.48142e-06
8.39161e-06
8.28225e-06
8.15362e-06
8.00608e-06
7.84003e-06
7.65595e-06
7.4544e-06
7.236e-06
7.00144e-06
6.75151e-06
6.48706e-06
6.20905e-06
5.91851e-06
5.61657e-06
5.30445e-06
4.98345e-06
4.65497e-06
4.32053e-06
3.9817e-06
3.64017e-06
3.29773e-06
2.95626e-06
2.61775e-06
2.28431e-06
1.95819e-06
1.64183e-06
1.33787e-06
1.04932e-06
7.79673e-07
5.3327e-07
3.16013e-07
1.3714e-07
1.52457e-08
1.58773e-08
1.42794e-07
3.28938e-07
5.54826e-07
8.1073e-07
1.09042e-06
1.38928e-06
1.70362e-06
2.03027e-06
2.36644e-06
2.70958e-06
3.05734e-06
3.40753e-06
3.7581e-06
4.10709e-06
4.45268e-06
4.79315e-06
5.12687e-06
5.45234e-06
5.76814e-06
6.07295e-06
6.36556e-06
6.64487e-06
6.90986e-06
7.15961e-06
7.3933e-06
7.6102e-06
7.80965e-06
7.99108e-06
8.15401e-06
8.29801e-06
8.42273e-06
8.52789e-06
8.61324e-06
8.67863e-06
8.72392e-06
8.74904e-06
8.75398e-06
8.73886e-06
8.70358e-06
8.64826e-06
8.57312e-06
8.47836e-06
8.36424e-06
8.23105e-06
8.07917e-06
7.909e-06
7.72103e-06
7.5158e-06
7.29393e-06
7.05609e-06
6.80305e-06
6.53565e-06
6.25482e-06
5.96158e-06
5.65703e-06
5.34236e-06
5.01887e-06
4.68794e-06
4.35106e-06
4.00981e-06
3.66587e-06
3.32103e-06
2.97716e-06
2.63627e-06
2.30048e-06
1.97205e-06
1.65344e-06
1.34733e-06
1.05672e-06
7.85159e-07
5.37014e-07
3.18227e-07
1.38099e-07
1.53523e-08
1.64033e-08
1.47523e-07
3.39814e-07
5.73125e-07
8.37372e-07
1.12607e-06
1.43441e-06
1.75852e-06
2.09507e-06
2.44111e-06
2.79395e-06
3.15111e-06
3.51025e-06
3.86921e-06
4.22594e-06
4.57851e-06
4.92512e-06
5.26407e-06
5.59381e-06
5.91289e-06
6.21996e-06
6.51383e-06
6.79338e-06
7.05764e-06
7.30571e-06
7.53685e-06
7.75036e-06
7.94567e-06
8.12229e-06
8.27982e-06
8.41792e-06
8.53634e-06
8.63487e-06
8.71338e-06
8.77177e-06
8.81001e-06
8.8281e-06
8.82611e-06
8.80424e-06
8.76238e-06
8.70081e-06
8.61974e-06
8.5194e-06
8.40009e-06
8.26213e-06
8.10588e-06
7.93179e-06
7.74031e-06
7.53199e-06
7.30742e-06
7.06726e-06
6.81226e-06
6.54323e-06
6.26106e-06
5.96673e-06
5.66131e-06
5.34596e-06
5.02195e-06
4.69063e-06
4.35344e-06
4.01195e-06
3.66781e-06
3.32279e-06
2.97876e-06
2.63771e-06
2.30175e-06
1.97315e-06
1.65437e-06
1.34808e-06
1.05731e-06
7.85585e-07
5.37298e-07
3.18391e-07
1.38169e-07
1.536e-08
1.69467e-08
1.52407e-07
3.51047e-07
5.92019e-07
8.64863e-07
1.16283e-06
1.4809e-06
1.81499e-06
2.16161e-06
2.51762e-06
2.88017e-06
3.24662e-06
3.61451e-06
3.98153e-06
4.34549e-06
4.70438e-06
5.0563e-06
5.39949e-06
5.73233e-06
6.05333e-06
6.36116e-06
6.65459e-06
6.93256e-06
7.19412e-06
7.43845e-06
7.66484e-06
7.87271e-06
8.06158e-06
8.23105e-06
8.38084e-06
8.51071e-06
8.62054e-06
8.71021e-06
8.77971e-06
8.82903e-06
8.85827e-06
8.86755e-06
8.85706e-06
8.8269e-06
8.77722e-06
8.7083e-06
8.6204e-06
8.51383e-06
8.38889e-06
8.24593e-06
8.08535e-06
7.90755e-06
7.713e-06
7.50223e-06
7.27581e-06
7.03438e-06
6.77862e-06
6.50932e-06
6.22733e-06
5.93358e-06
5.62908e-06
5.31496e-06
4.99243e-06
4.66278e-06
4.32743e-06
3.98789e-06
3.64578e-06
3.30283e-06
2.96087e-06
2.62189e-06
2.28796e-06
1.96134e-06
1.64446e-06
1.33999e-06
1.05095e-06
7.80851e-07
5.3405e-07
3.1646e-07
1.37328e-07
1.52664e-08
1.75173e-08
1.57537e-07
3.62843e-07
6.11852e-07
8.93709e-07
1.20138e-06
1.52959e-06
1.87406e-06
2.23109e-06
2.59734e-06
2.96978e-06
3.3456e-06
3.72216e-06
4.09699e-06
4.4678e-06
4.83242e-06
5.18887e-06
5.53531e-06
5.87005e-06
6.1916e-06
6.49859e-06
6.78982e-06
7.06427e-06
7.32104e-06
7.55939e-06
7.77871e-06
7.97853e-06
8.15847e-06
8.31829e-06
8.45781e-06
8.57697e-06
8.67571e-06
8.75409e-06
8.81225e-06
8.85038e-06
8.86864e-06
8.86724e-06
8.84648e-06
8.80651e-06
8.74769e-06
8.6703e-06
8.57466e-06
8.4611e-06
8.32997e-06
8.18164e-06
8.01652e-06
7.83504e-06
7.63767e-06
7.42489e-06
7.19728e-06
6.95542e-06
6.69997e-06
6.43167e-06
6.1513e-06
5.85975e-06
5.55797e-06
5.24701e-06
4.92801e-06
4.60222e-06
4.27097e-06
3.93571e-06
3.59801e-06
3.25954e-06
2.92209e-06
2.58758e-06
2.25806e-06
1.93574e-06
1.62302e-06
1.32253e-06
1.03726e-06
7.70676e-07
5.27087e-07
3.12331e-07
1.35536e-07
1.50671e-08
1.81256e-08
1.63004e-07
3.75413e-07
6.32984e-07
9.24429e-07
1.2424e-06
1.58137e-06
1.9368e-06
2.30476e-06
2.68171e-06
3.06439e-06
3.44979e-06
3.83508e-06
4.21762e-06
4.59494e-06
4.96477e-06
5.32499e-06
5.67369e-06
6.00912e-06
6.32975e-06
6.63422e-06
6.92138e-06
7.19022e-06
7.43995e-06
7.66994e-06
7.87968e-06
8.06884e-06
8.23721e-06
8.38468e-06
8.51126e-06
8.61698e-06
8.70203e-06
8.7667e-06
8.81121e-06
8.83584e-06
8.84095e-06
8.82687e-06
8.79397e-06
8.74261e-06
8.67317e-06
8.58603e-06
8.48157e-06
8.36018e-06
8.22227e-06
8.06822e-06
7.89846e-06
7.71342e-06
7.51355e-06
7.29933e-06
7.07129e-06
6.82998e-06
6.57602e-06
6.31006e-06
6.03285e-06
5.74519e-06
5.44795e-06
5.14212e-06
4.82874e-06
4.50898e-06
4.1841e-06
3.85546e-06
3.52455e-06
3.19297e-06
2.86244e-06
2.5348e-06
2.21205e-06
1.89635e-06
1.59003e-06
1.29568e-06
1.01621e-06
7.55042e-07
5.16395e-07
3.05994e-07
1.32785e-07
1.47613e-08
1.87818e-08
1.68904e-07
3.88976e-07
6.55778e-07
9.57555e-07
1.28661e-06
1.63712e-06
2.00428e-06
2.38389e-06
2.77216e-06
3.1656e-06
3.56094e-06
3.95514e-06
4.34536e-06
4.72896e-06
5.1035e-06
5.46673e-06
5.81666e-06
6.15148e-06
6.46963e-06
6.76978e-06
7.0508e-06
7.31179e-06
7.55206e-06
7.77108e-06
7.96854e-06
8.14426e-06
8.29821e-06
8.43048e-06
8.54121e-06
8.63077e-06
8.69952e-06
8.74782e-06
8.77612e-06
8.7849e-06
8.77468e-06
8.74591e-06
8.6991e-06
8.63473e-06
8.55328e-06
8.45521e-06
8.34099e-06
8.21105e-06
8.06584e-06
7.90579e-06
7.73132e-06
7.54286e-06
7.34085e-06
7.12576e-06
6.89807e-06
6.65828e-06
6.40696e-06
6.1447e-06
5.87215e-06
5.59005e-06
5.29918e-06
5.00042e-06
4.69473e-06
4.38317e-06
4.06691e-06
3.74722e-06
3.42547e-06
3.10318e-06
2.78197e-06
2.4636e-06
2.14999e-06
1.84321e-06
1.54553e-06
1.25946e-06
9.87832e-07
7.33968e-07
5.01985e-07
2.97456e-07
1.29079e-07
1.43493e-08
1.94964e-08
1.75328e-07
4.03743e-07
6.80595e-07
9.93607e-07
1.3347e-06
1.69773e-06
2.07757e-06
2.46972e-06
2.87011e-06
3.27496e-06
3.68073e-06
4.08413e-06
4.48209e-06
4.87174e-06
5.25047e-06
5.61592e-06
5.96596e-06
6.29875e-06
6.61271e-06
6.90654e-06
7.17917e-06
7.42983e-06
7.65796e-06
7.8632e-06
8.04544e-06
8.20471e-06
8.3412e-06
8.45516e-06
8.54716e-06
8.61767e-06
8.66724e-06
8.69646e-06
8.70603e-06
8.69665e-06
8.66894e-06
8.62354e-06
8.56108e-06
8.48218e-06
8.38743e-06
8.27737e-06
8.15254e-06
8.01344e-06
7.86053e-06
7.69428e-06
7.51513e-06
7.3235e-06
7.11981e-06
6.90449e-06
6.67798e-06
6.44074e-06
6.19325e-06
5.93605e-06
5.66969e-06
5.39482e-06
5.11213e-06
4.82238e-06
4.52643e-06
4.22524e-06
3.91983e-06
3.61137e-06
3.30113e-06
2.99049e-06
2.68097e-06
2.37424e-06
2.07211e-06
1.77654e-06
1.48971e-06
1.21403e-06
9.52239e-07
7.07544e-07
4.83923e-07
2.86755e-07
1.24436e-07
1.38332e-08
2.02793e-08
1.82366e-07
4.19921e-07
7.07777e-07
1.03309e-06
1.38734e-06
1.76403e-06
2.15766e-06
2.56342e-06
2.97687e-06
3.39392e-06
3.81073e-06
4.22369e-06
4.62945e-06
5.02492e-06
5.40729e-06
5.77402e-06
6.12291e-06
6.45205e-06
6.75987e-06
7.04512e-06
7.30684e-06
7.5444e-06
7.75742e-06
7.94578e-06
8.1096e-06
8.24915e-06
8.36487e-06
8.45745e-06
8.52755e-06
8.57595e-06
8.60339e-06
8.61088e-06
8.59931e-06
8.56947e-06
8.52221e-06
8.45834e-06
8.37866e-06
8.28389e-06
8.17473e-06
8.05181e-06
7.91572e-06
7.76703e-06
7.60624e-06
7.43381e-06
7.25019e-06
7.05578e-06
6.851e-06
6.63623e-06
6.41184e-06
6.17826e-06
5.93587e-06
5.68514e-06
5.42653e-06
5.16058e-06
4.88787e-06
4.60905e-06
4.32487e-06
4.03613e-06
3.74375e-06
3.44876e-06
3.1523e-06
2.85562e-06
2.56012e-06
2.26732e-06
1.97892e-06
1.69677e-06
1.42293e-06
1.1597e-06
9.09683e-07
6.75959e-07
4.62338e-07
2.73971e-07
1.1889e-07
1.32167e-08
2.11397e-08
1.90099e-07
4.37697e-07
7.37642e-07
1.07645e-06
1.44515e-06
1.83678e-06
2.24549e-06
2.66604e-06
3.09363e-06
3.52378e-06
3.95228e-06
4.37517e-06
4.78879e-06
5.18977e-06
5.57506e-06
5.94199e-06
6.28821e-06
6.61181e-06
6.91122e-06
7.18528e-06
7.4332e-06
7.65452e-06
7.84912e-06
8.01715e-06
8.15903e-06
8.27531e-06
8.36688e-06
8.43463e-06
8.47959e-06
8.50261e-06
8.50525e-06
8.48844e-06
8.45327e-06
8.40083e-06
8.33215e-06
8.24823e-06
8.14999e-06
8.03829e-06
7.9139e-06
7.77755e-06
7.62989e-06
7.4715e-06
7.30291e-06
7.12459e-06
6.93698e-06
6.74047e-06
6.53541e-06
6.32215e-06
6.10101e-06
5.87232e-06
5.63641e-06
5.39363e-06
5.14437e-06
4.88905e-06
4.62812e-06
4.36213e-06
4.09167e-06
3.81743e-06
3.54018e-06
3.26081e-06
2.9803e-06
2.69978e-06
2.42048e-06
2.14379e-06
1.87128e-06