/*--------------------------------*- C++ -*----------------------------------*\
  =========                 |
  \\      /  F ield         | OpenFOAM: The Open Source CFD Toolbox
   \\    /   O peration     | Website:  https://openfoam.org
    \\  /    A nd           | Version:  12
     \\/     M anipulation  |
\*---------------------------------------------------------------------------*/
FoamFile
{
    format      ascii;
    class       volScalarField;
    location    "3.5";
    object      nut;
}
// * * * * * * * * * * * * * * * * * * * * * * * * * * * * * * * * * * * * * //

dimensions      [0 2 -1 0 0 0 0];

internalField   nonuniform List<scalar> 
5625
(
2.49422e-15
7.53596e-14
1.59749e-13
2.60498e-13
3.74005e-13
4.97548e-13
6.29146e-13
7.67271e-13
9.10671e-13
1.05826e-12
1.20908e-12
1.36224e-12
1.51689e-12
1.67226e-12
1.82759e-12
1.98216e-12
2.13527e-12
2.28627e-12
2.4345e-12
2.57935e-12
2.72022e-12
2.85654e-12
2.98776e-12
3.11336e-12
3.23284e-12
3.34574e-12
3.45162e-12
3.55006e-12
3.64068e-12
3.72313e-12
3.79709e-12
3.86228e-12
3.91844e-12
3.96534e-12
4.0028e-12
4.03066e-12
4.04882e-12
4.05718e-12
4.05571e-12
4.0444e-12
4.02326e-12
3.99235e-12
3.95177e-12
3.90166e-12
3.8422e-12
3.77358e-12
3.69606e-12
3.60991e-12
3.51544e-12
3.41301e-12
3.303e-12
3.18582e-12
3.06193e-12
2.9318e-12
2.79595e-12
2.65493e-12
2.50931e-12
2.35969e-12
2.20672e-12
2.05105e-12
1.89339e-12
1.73446e-12
1.57503e-12
1.4159e-12
1.25792e-12
1.10198e-12
9.49052e-13
8.00181e-13
6.56542e-13
5.19489e-13
3.90664e-13
2.72189e-13
1.66955e-13
7.8767e-14
2.60695e-15
1.68617e-14
2.45581e-12
1.31081e-11
3.06531e-11
5.15506e-11
7.41396e-11
9.78271e-11
1.22361e-10
1.47582e-10
1.73359e-10
1.99566e-10
2.26079e-10
2.52778e-10
2.79544e-10
3.0626e-10
3.32811e-10
3.59085e-10
3.84975e-10
4.10373e-10
4.35177e-10
4.59288e-10
4.8261e-10
5.05053e-10
5.26527e-10
5.4695e-10
5.66244e-10
5.84333e-10
6.01148e-10
6.16624e-10
6.30703e-10
6.43331e-10
6.54458e-10
6.64042e-10
6.72045e-10
6.78435e-10
6.83186e-10
6.86279e-10
6.87698e-10
6.87436e-10
6.85492e-10
6.81869e-10
6.7658e-10
6.69641e-10
6.61076e-10
6.50914e-10
6.39189e-10
6.25944e-10
6.11226e-10
5.95086e-10
5.77585e-10
5.58787e-10
5.38761e-10
5.17583e-10
4.95333e-10
4.72098e-10
4.47969e-10
4.2304e-10
3.97411e-10
3.71189e-10
3.44481e-10
3.174e-10
2.90064e-10
2.62594e-10
2.35113e-10
2.07751e-10
1.80638e-10
1.53908e-10
1.277e-10
1.0216e-10
7.74618e-11
5.38793e-11
3.20437e-11
1.37032e-11
2.5673e-12
1.76279e-14
3.74737e-14
6.14874e-12
4.19623e-11
1.25346e-10
2.53182e-10
4.12266e-10
5.90744e-10
7.80977e-10
9.78532e-10
1.1808e-09
1.38608e-09
1.59317e-09
1.80104e-09
2.00882e-09
2.21565e-09
2.42073e-09
2.62326e-09
2.82248e-09
3.01763e-09
3.20798e-09
3.3928e-09
3.5714e-09
3.74312e-09
3.90731e-09
4.06335e-09
4.21067e-09
4.34872e-09
4.47697e-09
4.59497e-09
4.70225e-09
4.79844e-09
4.88315e-09
4.95608e-09
5.01695e-09
5.06552e-09
5.10161e-09
5.12506e-09
5.13577e-09
5.13369e-09
5.11883e-09
5.09118e-09
5.05084e-09
4.99794e-09
4.93264e-09
4.85518e-09
4.7658e-09
4.66482e-09
4.55257e-09
4.42946e-09
4.2959e-09
4.15238e-09
3.9994e-09
3.83752e-09
3.66732e-09
3.48941e-09
3.30446e-09
3.11315e-09
2.91619e-09
2.71432e-09
2.50832e-09
2.29897e-09
2.0871e-09
1.87356e-09
1.65924e-09
1.44511e-09
1.23226e-09
1.02202e-09
8.16233e-10
6.17719e-10
4.31226e-10
2.64859e-10
1.31126e-10
4.38952e-11
6.43226e-12
3.92046e-14
6.19234e-14
1.04157e-11
7.59208e-11
2.49387e-10
5.57247e-10
9.93542e-10
1.53369e-09
2.14957e-09
2.81737e-09
3.51936e-09
4.24297e-09
4.97931e-09
5.72189e-09
6.46568e-09
7.20661e-09
7.94115e-09
8.66615e-09
9.37869e-09
1.0076e-08
1.07556e-08
1.14148e-08
1.20513e-08
1.26627e-08
1.32469e-08
1.38017e-08
1.43251e-08
1.48153e-08
1.52704e-08
1.5689e-08
1.60693e-08
1.64101e-08
1.67101e-08
1.69683e-08
1.71836e-08
1.73554e-08
1.74829e-08
1.75656e-08
1.76032e-08
1.75956e-08
1.75428e-08
1.74446e-08
1.73015e-08
1.7114e-08
1.68825e-08
1.66079e-08
1.6291e-08
1.59329e-08
1.55347e-08
1.50978e-08
1.46236e-08
1.41137e-08
1.35699e-08
1.29939e-08
1.23878e-08
1.17536e-08
1.10936e-08
1.04101e-08
9.70562e-09
8.98266e-09
8.24402e-09
7.49267e-09
6.73189e-09
5.96537e-09
5.19747e-09
4.43357e-09
3.68075e-09
2.94865e-09
2.25087e-09
1.60644e-09
1.04077e-09
5.83693e-10
2.61187e-10
7.95071e-11
1.09083e-11
6.48567e-14
8.9058e-14
1.51071e-11
1.12774e-10
3.85198e-10
9.03805e-10
1.69723e-09
2.75313e-09
4.03369e-09
5.49193e-09
7.08267e-09
8.76736e-09
1.0515e-08
1.23013e-08
1.41073e-08
1.59177e-08
1.77203e-08
1.95046e-08
2.12615e-08
2.29829e-08
2.46615e-08
2.62905e-08
2.78636e-08
2.93747e-08
3.08182e-08
3.2189e-08
3.34819e-08
3.46925e-08
3.58163e-08
3.68494e-08
3.77882e-08
3.86291e-08
3.93694e-08
4.00063e-08
4.05375e-08
4.09613e-08
4.12758e-08
4.14801e-08
4.15733e-08
4.1555e-08
4.14253e-08
4.1184e-08
4.08319e-08
4.03702e-08
3.98002e-08
3.91236e-08
3.83427e-08
3.74598e-08
3.64777e-08
3.53996e-08
3.4229e-08
3.29697e-08
3.16258e-08
3.02019e-08
2.87028e-08
2.71338e-08
2.55004e-08
2.38087e-08
2.20653e-08
2.02776e-08
1.84537e-08
1.66029e-08
1.47362e-08
1.28669e-08
1.10113e-08
9.19012e-09
7.42979e-09
5.764e-09
4.23458e-09
2.89029e-09
1.78147e-09
9.48399e-10
4.04093e-10
1.18287e-10
1.58457e-11
9.34161e-14
1.18126e-13
2.01133e-11
1.51768e-10
5.28049e-10
1.27022e-09
2.4553e-09
4.10557e-09
6.19641e-09
8.67302e-09
1.14671e-08
1.45094e-08
1.77361e-08
2.10922e-08
2.45313e-08
2.80148e-08
3.15105e-08
3.49915e-08
3.84346e-08
4.18199e-08
4.51297e-08
4.83482e-08
5.14609e-08
5.44547e-08
5.73176e-08
6.00381e-08
6.26059e-08
6.50113e-08
6.72452e-08
6.92997e-08
7.11671e-08
7.28407e-08
7.43146e-08
7.55834e-08
7.66426e-08
7.74883e-08
7.81173e-08
7.85274e-08
7.87168e-08
7.86849e-08
7.84317e-08
7.79566e-08
7.72616e-08
7.63484e-08
7.522e-08
7.38796e-08
7.23315e-08
7.05803e-08
6.86317e-08
6.64919e-08
6.41679e-08
6.16674e-08
5.8999e-08
5.61719e-08
5.31964e-08
5.00839e-08
4.68469e-08
4.34991e-08
4.00564e-08
3.65365e-08
3.29602e-08
2.93519e-08
2.57402e-08
2.216e-08
1.86534e-08
1.52715e-08
1.20753e-08
9.13469e-09
6.52569e-09
4.32235e-09
2.5837e-09
1.33593e-09
5.55104e-10
1.59496e-10
2.11358e-11
1.24131e-13
1.48558e-13
2.53444e-11
1.92312e-10
6.7571e-10
1.64789e-09
3.23911e-09
5.5178e-09
8.48976e-09
1.21106e-08
1.63035e-08
2.09757e-08
2.60314e-08
3.13793e-08
3.69371e-08
4.26321e-08
4.84014e-08
5.41905e-08
5.99525e-08
6.56464e-08
7.12362e-08
7.669e-08
8.19792e-08
8.70779e-08
9.19626e-08
9.6612e-08
1.01006e-07
1.05128e-07
1.0896e-07
1.12488e-07
1.15698e-07
1.18578e-07
1.21117e-07
1.23306e-07
1.25135e-07
1.266e-07
1.27693e-07
1.2841e-07
1.28749e-07
1.28708e-07
1.28287e-07
1.27484e-07
1.26303e-07
1.24747e-07
1.22822e-07
1.20531e-07
1.17884e-07
1.14887e-07
1.11552e-07
1.07888e-07
1.0391e-07
9.96297e-08
9.50642e-08
9.0231e-08
8.51498e-08
7.98427e-08
7.43343e-08
6.86527e-08
6.28302e-08
5.69038e-08
5.09169e-08
4.492e-08
3.89729e-08
3.31455e-08
2.75186e-08
2.21847e-08
1.72455e-08
1.28079e-08
8.97416e-09
5.8285e-09
3.41864e-09
1.73776e-09
7.1205e-10
2.02557e-10
2.66896e-11
1.56436e-13
1.79888e-13
3.07238e-11
2.33879e-10
8.26442e-10
2.0319e-09
4.03479e-09
6.954e-09
1.08349e-08
1.56562e-08
2.1346e-08
2.78002e-08
3.48979e-08
4.25147e-08
5.05306e-08
5.8834e-08
6.73242e-08
7.59112e-08
8.45153e-08
9.30661e-08
1.01501e-07
1.09764e-07
1.17806e-07
1.25581e-07
1.3305e-07
1.40174e-07
1.46922e-07
1.53262e-07
1.59166e-07
1.64611e-07
1.69572e-07
1.7403e-07
1.77967e-07
1.81367e-07
1.84216e-07
1.86503e-07
1.88218e-07
1.89354e-07
1.89906e-07
1.89871e-07
1.89249e-07
1.88037e-07
1.8624e-07
1.83864e-07
1.80914e-07
1.77402e-07
1.73337e-07
1.68734e-07
1.63608e-07
1.57977e-07
1.51863e-07
1.45289e-07
1.38282e-07
1.30873e-07
1.23094e-07
1.14986e-07
1.06592e-07
9.79633e-08
8.91576e-08
8.02414e-08
7.12913e-08
6.23953e-08
5.36542e-08
4.51821e-08
3.71059e-08
2.95623e-08
2.26928e-08
1.66334e-08
1.15004e-08
7.3727e-09
4.27245e-09
2.14905e-09
8.73218e-10
2.46947e-10
3.24301e-11
1.8986e-13
2.11717e-13
3.61849e-11
2.75993e-10
9.78677e-10
2.41839e-09
4.83335e-09
8.3937e-09
1.31878e-08
1.92244e-08
2.64458e-08
3.47457e-08
4.39879e-08
5.40204e-08
6.46891e-08
7.5844e-08
8.73443e-08
9.90606e-08
1.10875e-07
1.22681e-07
1.34384e-07
1.45898e-07
1.57145e-07
1.68055e-07
1.78564e-07
1.88617e-07
1.98159e-07
2.07145e-07
2.15531e-07
2.23278e-07
2.30351e-07
2.36719e-07
2.42354e-07
2.47231e-07
2.5133e-07
2.54631e-07
2.57122e-07
2.58789e-07
2.59625e-07
2.59624e-07
2.58788e-07
2.57108e-07
2.54594e-07
2.51252e-07
2.47092e-07
2.42128e-07
2.36376e-07
2.29857e-07
2.22595e-07
2.14618e-07
2.05959e-07
1.96654e-07
1.86745e-07
1.76281e-07
1.65317e-07
1.53914e-07
1.42142e-07
1.30084e-07
1.17829e-07
1.05484e-07
9.31665e-08
8.101e-08
6.91635e-08
5.779e-08
4.70638e-08
3.71641e-08
2.82656e-08
2.05245e-08
1.40597e-08
8.93426e-09
5.1361e-09
2.56588e-09
1.03701e-09
2.92177e-10
3.82891e-11
2.23994e-13
2.43698e-13
4.16692e-11
3.18224e-10
1.13097e-09
2.80391e-09
5.62765e-09
9.82258e-09
1.55205e-08
2.27628e-08
3.15109e-08
4.1663e-08
5.30738e-08
6.55717e-08
7.89723e-08
9.30908e-08
1.07748e-07
1.22773e-07
1.38011e-07
1.53314e-07
1.68552e-07
1.83604e-07
1.9836e-07
2.12721e-07
2.26597e-07
2.39903e-07
2.52567e-07
2.64519e-07
2.75698e-07
2.86047e-07
2.95515e-07
3.04058e-07
3.11635e-07
3.1821e-07
3.23752e-07
3.28234e-07
3.31636e-07
3.33939e-07
3.35131e-07
3.35203e-07
3.34157e-07
3.31981e-07
3.28684e-07
3.24277e-07
3.18772e-07
3.1219e-07
3.04552e-07
2.95889e-07
2.86233e-07
2.75626e-07
2.64115e-07
2.51753e-07
2.38602e-07
2.24733e-07
2.10225e-07
1.95169e-07
1.79671e-07
1.63845e-07
1.47826e-07
1.31762e-07
1.15819e-07
1.00182e-07
8.5049e-08
7.06341e-08
5.71567e-08
4.48342e-08
3.38682e-08
2.44261e-08
1.66226e-08
1.04981e-08
6.00201e-09
2.9846e-09
1.2019e-09
3.37789e-10
4.4204e-11
2.58466e-13
2.75526e-13
4.71249e-11
3.60189e-10
1.28202e-09
3.18534e-09
6.41145e-09
1.12291e-08
1.78124e-08
2.62355e-08
3.64805e-08
4.84542e-08
6.20066e-08
7.69513e-08
9.30792e-08
1.10174e-07
1.28022e-07
1.46414e-07
1.65153e-07
1.84057e-07
2.02954e-07
2.21688e-07
2.40116e-07
2.58104e-07
2.75532e-07
2.9229e-07
3.08277e-07
3.234e-07
3.37575e-07
3.50727e-07
3.62787e-07
3.73691e-07
3.83385e-07
3.9182e-07
3.98952e-07
4.04746e-07
4.0917e-07
4.122e-07
4.13817e-07
4.14008e-07
4.12775e-07
4.101e-07
4.05995e-07
4.00472e-07
3.93548e-07
3.85249e-07
3.75604e-07
3.64652e-07
3.52441e-07
3.39024e-07
3.24465e-07
3.08838e-07
2.92228e-07
2.74731e-07
2.56458e-07
2.37533e-07
2.18097e-07
1.98309e-07
1.78347e-07
1.58407e-07
1.38708e-07
1.19485e-07
1.00988e-07
8.34801e-08
6.72223e-08
5.2466e-08
3.94331e-08
2.82982e-08
1.9166e-08
1.20512e-08
6.86311e-09
3.40167e-09
1.36639e-09
3.83348e-10
5.0116e-11
2.9293e-13
3.06934e-13
5.25069e-11
4.01546e-10
1.43065e-09
3.55986e-09
7.1792e-09
1.26035e-08
2.0047e-08
2.96152e-08
4.13113e-08
5.50515e-08
7.06845e-08
8.80115e-08
1.06804e-07
1.26818e-07
1.47807e-07
1.69528e-07
1.91746e-07
2.14241e-07
2.36805e-07
2.59245e-07
2.81381e-07
3.03049e-07
3.24096e-07
3.44382e-07
3.63778e-07
3.82167e-07
3.99441e-07
4.155e-07
4.30257e-07
4.4363e-07
4.55547e-07
4.65943e-07
4.74763e-07
4.81957e-07
4.87486e-07
4.91314e-07
4.93418e-07
4.93776e-07
4.92393e-07
4.89242e-07
4.84337e-07
4.77693e-07
4.6933e-07
4.59278e-07
4.47578e-07
4.34279e-07
4.19439e-07
4.03129e-07
3.85433e-07
3.66445e-07
3.46276e-07
3.25051e-07
3.02913e-07
2.80025e-07
2.56566e-07
2.32741e-07
2.08774e-07
1.84913e-07
1.61427e-07
1.38603e-07
1.16744e-07
9.61556e-08
7.71403e-08
5.9978e-08
4.49077e-08
3.21075e-08
2.16695e-08
1.35813e-08
7.71251e-09
3.81361e-09
1.52905e-09
4.28436e-10
5.59698e-11
3.2706e-13
3.37695e-13
5.7776e-11
4.42001e-10
1.57583e-09
3.92499e-09
7.92602e-09
1.39373e-08
2.22104e-08
3.28803e-08
4.59701e-08
6.14055e-08
7.90348e-08
9.86494e-08
1.20004e-07
1.42831e-07
1.66854e-07
1.91797e-07
2.17394e-07
2.43388e-07
2.69535e-07
2.95607e-07
3.21392e-07
3.46691e-07
3.7132e-07
3.9511e-07
4.17904e-07
4.39557e-07
4.59937e-07
4.78923e-07
4.96403e-07
5.12277e-07
5.26455e-07
5.38857e-07
5.49411e-07
5.58055e-07
5.64738e-07
5.69416e-07
5.72054e-07
5.72627e-07
5.71139e-07
5.67553e-07
5.61885e-07
5.5415e-07
5.44374e-07
5.32593e-07
5.18855e-07
5.03219e-07
4.85759e-07
4.66561e-07
4.45729e-07
4.23381e-07
3.99654e-07
3.74705e-07
3.4871e-07
3.21869e-07
2.94405e-07
2.66567e-07
2.38628e-07
2.10887e-07
1.83662e-07
1.57294e-07
1.32131e-07
1.08525e-07
8.68134e-08
6.73024e-08
5.02463e-08
3.58237e-08
2.41136e-08
1.50765e-08
8.54341e-09
4.21699e-09
1.68846e-09
4.72651e-10
6.1712e-11
3.60542e-13
3.67616e-13
6.28998e-11
4.81309e-10
1.7167e-09
4.27864e-09
8.64777e-09
1.52232e-08
2.42912e-08
3.60136e-08
5.04313e-08
6.7479e-08
8.70045e-08
1.08791e-07
1.32579e-07
1.58077e-07
1.84985e-07
2.12999e-07
2.41819e-07
2.71157e-07
3.00737e-07
3.30297e-07
3.59593e-07
3.88396e-07
4.1649e-07
4.43678e-07
4.69775e-07
4.94611e-07
5.18028e-07
5.39882e-07
5.60041e-07
5.78384e-07
5.94803e-07
6.092e-07
6.21489e-07
6.31593e-07
6.39449e-07
6.45003e-07
6.48211e-07
6.4904e-07
6.47493e-07
6.43524e-07
6.37149e-07
6.28385e-07
6.1726e-07
6.03816e-07
5.88108e-07
5.70208e-07
5.50202e-07
5.28193e-07
5.04305e-07
4.7868e-07
4.51481e-07
4.22896e-07
3.93136e-07
3.6244e-07
3.31072e-07
2.99326e-07
2.67523e-07
2.3601e-07
2.05158e-07
1.75355e-07
1.46995e-07
1.20472e-07
9.61564e-08
7.43784e-08
5.54061e-08
3.94178e-08
2.64792e-08
1.6525e-08
9.34907e-09
4.60842e-09
1.84325e-09
5.15601e-10
6.72911e-11
3.93074e-13
3.96548e-13
6.78524e-11
5.19271e-10
1.85256e-09
4.6191e-09
9.34113e-09
1.64555e-08
2.62803e-08
3.90014e-08
5.46755e-08
7.32444e-08
9.45557e-08
1.18385e-07
1.44457e-07
1.72465e-07
2.02082e-07
2.32979e-07
2.64828e-07
2.97313e-07
3.30125e-07
3.62976e-07
3.95589e-07
4.27706e-07
4.59085e-07
4.89501e-07
5.18742e-07
5.46613e-07
5.72934e-07
5.97538e-07
6.20272e-07
6.40995e-07
6.59581e-07
6.75915e-07
6.89896e-07
7.01433e-07
7.10451e-07
7.16883e-07
7.20679e-07
7.21794e-07
7.20233e-07
7.15939e-07
7.08925e-07
6.99212e-07
6.86829e-07
6.71823e-07
6.54257e-07
6.34212e-07
6.11787e-07
5.87102e-07
5.603e-07
5.31545e-07
5.01028e-07
4.68967e-07
4.35605e-07
4.0122e-07
3.66116e-07
3.30632e-07
2.95133e-07
2.60016e-07
2.25697e-07
1.92612e-07
1.612e-07
1.31892e-07
1.05091e-07
8.11486e-08
6.0346e-08
4.28612e-08
2.87475e-08
1.7915e-08
1.01228e-08
4.98456e-09
1.99206e-09
5.56904e-10
7.26568e-11
4.24364e-13
4.24381e-13
7.26151e-11
5.55746e-10
1.98292e-09
4.94517e-09
1.00037e-08
1.76302e-08
2.81714e-08
4.18343e-08
5.8689e-08
7.86831e-08
1.01663e-07
1.27395e-07
1.55593e-07
1.85932e-07
2.18063e-07
2.51634e-07
2.86293e-07
3.21695e-07
3.57506e-07
3.9341e-07
4.29103e-07
4.64302e-07
4.98738e-07
5.3216e-07
5.64334e-07
5.95042e-07
6.24081e-07
6.51263e-07
6.76416e-07
6.99382e-07
7.20015e-07
7.38185e-07
7.53776e-07
7.66685e-07
7.76822e-07
7.84112e-07
7.88493e-07
7.89912e-07
7.88376e-07
7.83812e-07
7.76235e-07
7.65666e-07
7.52135e-07
7.35693e-07
7.16409e-07
6.94374e-07
6.69699e-07
6.42518e-07
6.12993e-07
5.8131e-07
5.47684e-07
5.12361e-07
4.75618e-07
4.37767e-07
3.99151e-07
3.6015e-07
3.21175e-07
2.82665e-07
2.45083e-07
2.08908e-07
1.7462e-07
1.42687e-07
1.13541e-07
8.75566e-08
6.50253e-08
4.61257e-08
3.08996e-08
1.92348e-08
1.08579e-08
5.34211e-09
2.13356e-09
5.96186e-10
7.77602e-11
4.54123e-13
4.51047e-13
7.71764e-11
5.90646e-10
2.10746e-09
5.25608e-09
1.06339e-08
1.87447e-08
2.99605e-08
4.45067e-08
6.24643e-08
8.37847e-08
1.08311e-07
1.35804e-07
1.65961e-07
1.98443e-07
2.32882e-07
2.68905e-07
3.06135e-07
3.44205e-07
3.82757e-07
4.21449e-07
4.59956e-07
4.97968e-07
5.35195e-07
5.71365e-07
6.0622e-07
6.39523e-07
6.7105e-07
7.00597e-07
7.27971e-07
7.52998e-07
7.75518e-07
7.95385e-07
8.12469e-07
8.26654e-07
8.37839e-07
8.45939e-07
8.50882e-07
8.52608e-07
8.51123e-07
8.46341e-07
8.38276e-07
8.26947e-07
8.12388e-07
7.94652e-07
7.73814e-07
7.49971e-07
7.23245e-07
6.93784e-07
6.61767e-07
6.27397e-07
5.90915e-07
5.52591e-07
5.12734e-07
4.71686e-07
4.29829e-07
3.87579e-07
3.45387e-07
3.03736e-07
2.63131e-07
2.24089e-07
1.87132e-07
1.52761e-07
1.21433e-07
9.35468e-08
6.94034e-08
4.91826e-08
3.29166e-08
2.04726e-08
1.15477e-08
5.6778e-09
2.26645e-09
6.33079e-10
8.25532e-11
4.82071e-13
4.76526e-13
8.15328e-11
6.23944e-10
2.2261e-09
5.55161e-09
1.12315e-08
1.97984e-08
3.16469e-08
4.70177e-08
6.6e-08
8.85472e-08
1.14499e-07
1.43606e-07
1.75554e-07
2.09989e-07
2.46524e-07
2.84766e-07
3.2432e-07
3.64795e-07
4.05812e-07
4.4701e-07
4.8804e-07
5.28573e-07
5.68299e-07
6.06925e-07
6.44177e-07
6.79799e-07
7.1355e-07
7.45209e-07
7.74569e-07
8.0144e-07
8.25649e-07
8.47037e-07
8.65462e-07
8.80796e-07
8.9293e-07
9.01766e-07
9.07224e-07
9.09243e-07
9.0782e-07
9.0286e-07
8.94376e-07
8.82386e-07
8.66924e-07
8.48046e-07
8.25829e-07
8.00378e-07
7.71823e-07
7.40326e-07
7.06075e-07
6.69296e-07
6.30246e-07
5.89221e-07
5.46555e-07
5.0262e-07
4.57829e-07
4.12636e-07
3.67526e-07
3.23021e-07
2.79664e-07
2.38012e-07
1.98619e-07
1.62018e-07
1.28694e-07
9.90634e-08
7.34396e-08
5.20035e-08
3.47794e-08
2.16167e-08
1.21857e-08
5.98837e-09
2.38942e-09
6.67222e-10
8.69887e-11
5.07933e-13
5.00843e-13
8.56884e-11
6.55672e-10
2.33895e-09
5.8321e-09
1.17971e-08
2.07927e-08
3.32327e-08
4.93706e-08
6.93012e-08
9.29775e-08
1.20234e-07
1.50811e-07
1.84384e-07
2.2058e-07
2.58998e-07
2.99226e-07
3.40849e-07
3.83459e-07
4.26658e-07
4.70063e-07
5.13311e-07
5.56054e-07
5.97964e-07
6.38732e-07
6.7807e-07
7.15705e-07
7.51383e-07
7.8487e-07
8.15947e-07
8.44411e-07
8.70078e-07
8.92778e-07
9.12359e-07
9.28686e-07
9.41637e-07
9.51111e-07
9.57014e-07
9.59289e-07
9.57924e-07
9.52811e-07
9.43968e-07
9.3141e-07
9.15169e-07
8.95303e-07
8.71892e-07
8.45045e-07
8.14901e-07
7.81628e-07
7.45429e-07
7.06542e-07
6.65243e-07
6.21846e-07
5.76709e-07
5.3023e-07
4.8285e-07
4.35052e-07
3.87357e-07
3.40318e-07
2.94512e-07
2.50531e-07
2.08962e-07
1.70365e-07
1.35249e-07
1.04051e-07
7.7093e-08
5.45599e-08
3.64693e-08
2.26555e-08
1.27653e-08
6.27064e-09
2.5012e-09
6.9826e-10
9.10205e-11
5.31439e-13
5.24071e-13
8.96559e-11
6.85928e-10
2.44636e-09
6.09841e-09
1.23326e-08
2.17307e-08
3.47235e-08
5.15737e-08
7.23795e-08
9.70914e-08
1.25537e-07
1.57445e-07
1.92478e-07
2.30249e-07
2.7034e-07
3.1232e-07
3.55758e-07
4.00229e-07
4.45319e-07
4.90628e-07
5.35777e-07
5.80403e-07
6.24165e-07
6.66742e-07
7.07831e-07
7.47149e-07
7.84432e-07
8.19435e-07
8.51928e-07
8.81702e-07
9.08564e-07
9.32335e-07
9.52858e-07
9.69987e-07
9.83598e-07
9.93581e-07
9.99836e-07
1.00231e-06
1.00097e-06
9.95719e-07
9.86564e-07
9.7352e-07
9.5662e-07
9.35919e-07
9.11502e-07
8.83479e-07
8.51994e-07
8.17224e-07
7.79378e-07
7.38707e-07
6.955e-07
6.50089e-07
6.02847e-07
5.54197e-07
5.04602e-07
4.5457e-07
4.04651e-07
3.55427e-07
3.07506e-07
2.61506e-07
2.18045e-07
1.77708e-07
1.41026e-07
1.08453e-07
8.03232e-08
5.68234e-08
3.79674e-08
2.35773e-08
1.328e-08
6.52146e-09
2.60056e-09
7.25846e-10
9.46035e-11
5.52327e-13
5.46332e-13
9.34562e-11
7.14872e-10
2.54891e-09
6.35202e-09
1.28409e-08
2.2618e-08
3.61278e-08
5.364e-08
7.52533e-08
1.00913e-07
1.30438e-07
1.63547e-07
1.99884e-07
2.39049e-07
2.80607e-07
3.2411e-07
3.69113e-07
4.15172e-07
4.6186e-07
5.08763e-07
5.55488e-07
6.01661e-07
6.4693e-07
6.90964e-07
7.33451e-07
7.741e-07
8.1264e-07
8.48819e-07
8.82402e-07
9.13174e-07
9.40937e-07
9.65508e-07
9.86725e-07
1.00444e-06
1.01852e-06
1.02885e-06
1.03535e-06
1.03793e-06
1.03658e-06
1.03117e-06
1.02174e-06
1.00828e-06
9.90831e-07
9.69446e-07
9.44208e-07
9.15232e-07
8.82663e-07
8.46682e-07
8.07506e-07
7.65392e-07
7.2064e-07
6.73592e-07
6.24638e-07
5.74215e-07
5.22806e-07
4.70941e-07
4.19189e-07
3.68157e-07
3.18478e-07
2.70797e-07
2.25753e-07
1.83954e-07
1.45952e-07
1.12216e-07
8.30896e-08
5.87657e-08
3.92551e-08
2.43707e-08
1.37236e-08
6.73774e-09
2.68626e-09
7.49645e-10
9.76941e-11
5.70341e-13
5.67796e-13
9.71184e-11
7.42727e-10
2.64741e-09
6.59494e-09
1.33262e-08
2.34618e-08
3.74575e-08
5.55873e-08
7.79477e-08
1.04477e-07
1.34982e-07
1.69167e-07
2.06663e-07
2.4705e-07
2.89879e-07
3.34684e-07
3.81004e-07
4.28382e-07
4.76376e-07
5.2456e-07
5.72531e-07
6.19907e-07
6.66326e-07
7.11451e-07
7.54964e-07
7.96572e-07
8.35999e-07
8.7299e-07
9.07309e-07
9.38739e-07
9.67081e-07
9.92151e-07
1.01379e-06
1.03184e-06
1.04617e-06
1.05667e-06
1.06326e-06
1.06584e-06
1.0644e-06
1.05882e-06
1.04912e-06
1.03531e-06
1.01741e-06
9.95479e-07
9.69605e-07
9.39897e-07
9.06504e-07
8.69607e-07
8.29427e-07
7.86225e-07
7.40305e-07
6.9202e-07
6.41767e-07
5.89994e-07
5.37198e-07
4.83923e-07
4.30756e-07
3.78321e-07
3.2727e-07
2.78267e-07
2.31973e-07
1.89013e-07
1.49956e-07
1.15284e-07
8.53529e-08
6.03593e-08
4.03144e-08
2.50248e-08
1.40898e-08
6.91652e-09
2.75715e-09
7.69331e-10
1.0025e-10
5.85237e-13
5.88679e-13
1.0068e-10
7.6978e-10
2.74288e-09
6.82977e-09
1.37937e-08
2.42716e-08
3.87279e-08
5.74381e-08
8.04939e-08
1.07824e-07
1.3922e-07
1.74372e-07
2.12891e-07
2.54342e-07
2.98255e-07
3.44149e-07
3.91547e-07
4.39977e-07
4.88987e-07
5.38139e-07
5.87023e-07
6.35248e-07
6.8245e-07
7.28286e-07
7.7244e-07
8.14615e-07
8.54537e-07
8.91954e-07
9.2663e-07
9.58352e-07
9.86922e-07
1.01216e-06
1.03391e-06
1.05202e-06
1.06636e-06
1.07683e-06
1.08332e-06
1.08578e-06
1.08416e-06
1.07835e-06
1.06839e-06
1.05426e-06
1.036e-06
1.01366e-06
9.87326e-07
9.57108e-07
9.23151e-07
8.85637e-07
8.44787e-07
8.00861e-07
7.54167e-07
7.05059e-07
6.53939e-07
6.0126e-07
5.47526e-07
4.93289e-07
4.39148e-07
3.85739e-07
3.33725e-07
2.83786e-07
2.36597e-07
1.92796e-07
1.52968e-07
1.17606e-07
8.70747e-08
6.15776e-08
4.11277e-08
2.55288e-08
1.43728e-08
7.05495e-09
2.8121e-09
7.84597e-10
1.02232e-10
5.96784e-13
6.09242e-13
1.04185e-10
7.96375e-10
2.83656e-09
7.05963e-09
1.42499e-08
2.50587e-08
3.9957e-08
5.92192e-08
8.29293e-08
1.11003e-07
1.43216e-07
1.79237e-07
2.18659e-07
2.61025e-07
3.05848e-07
3.52628e-07
4.00872e-07
4.50095e-07
4.99832e-07
5.49639e-07
5.99096e-07
6.47812e-07
6.9542e-07
7.41577e-07
7.85969e-07
8.28303e-07
8.68309e-07
9.05742e-07
9.40373e-07
9.71996e-07
1.00042e-06
1.02548e-06
1.04701e-06
1.06487e-06
1.07895e-06
1.08914e-06
1.09535e-06
1.09753e-06
1.09561e-06
1.08951e-06
1.07926e-06
1.06484e-06
1.0463e-06
1.02367e-06
9.97051e-07
9.66538e-07
9.32278e-07
8.94448e-07
8.53267e-07
8.08992e-07
7.61927e-07
7.12424e-07
6.60884e-07
6.0776e-07
5.53556e-07
4.98828e-07
4.44177e-07
3.90244e-07
3.377e-07
2.87231e-07
2.39522e-07
1.95222e-07
1.54924e-07
1.19132e-07
8.82191e-08
6.23956e-08
4.16786e-08
2.58728e-08
1.45671e-08
7.15036e-09
2.85007e-09
7.95157e-10
1.03603e-10
6.04767e-13
6.29787e-13
1.07685e-10
8.22912e-10
2.9299e-09
7.28814e-09
1.47022e-08
2.58361e-08
4.11656e-08
6.09613e-08
8.52965e-08
1.1407e-07
1.47038e-07
1.83847e-07
2.24065e-07
2.67214e-07
3.12784e-07
3.60257e-07
4.09122e-07
4.58882e-07
5.09061e-07
5.59207e-07
6.08898e-07
6.57739e-07
7.05365e-07
7.51439e-07
7.95652e-07
8.37719e-07
8.77382e-07
9.14402e-07
9.48565e-07
9.79675e-07
1.00756e-06
1.03205e-06
1.053e-06
1.0703e-06
1.08383e-06
1.09348e-06
1.09919e-06
1.10092e-06
1.09856e-06
1.09209e-06
1.08151e-06
1.06682e-06
1.04805e-06
1.02526e-06
9.98509e-07
9.67913e-07
9.33607e-07
8.95764e-07
8.54593e-07
8.10348e-07
7.63323e-07
7.13864e-07
6.62365e-07
6.09272e-07
5.55084e-07
5.00352e-07
4.45672e-07
3.91685e-07
3.39062e-07
2.8849e-07
2.40655e-07
1.96214e-07
1.55764e-07
1.19816e-07
8.87527e-08
6.27902e-08
4.19521e-08
2.60476e-08
1.46676e-08
7.20036e-09
2.87012e-09
8.00752e-10
1.04329e-10
6.08994e-13
6.50653e-13
1.1124e-10
8.4984e-10
3.0245e-09
7.51938e-09
1.51587e-08
2.66185e-08
4.2377e-08
6.26986e-08
8.76424e-08
1.17087e-07
1.50764e-07
1.88293e-07
2.29216e-07
2.73027e-07
3.19193e-07
3.67175e-07
4.16444e-07
4.66489e-07
5.16824e-07
5.66993e-07
6.1657e-07
6.65163e-07
7.12412e-07
7.57987e-07
8.01591e-07
8.42951e-07
8.81823e-07
9.17985e-07
9.51238e-07
9.81405e-07
1.00832e-06
1.03185e-06
1.05186e-06
1.06825e-06
1.08091e-06
1.08976e-06
1.09473e-06
1.0958e-06
1.09286e-06
1.08592e-06
1.07497e-06
1.06001e-06
1.04107e-06
1.01821e-06
9.9149e-07
9.61017e-07
9.2692e-07
8.89363e-07
8.48547e-07
8.04712e-07
7.58144e-07
7.09175e-07
6.58185e-07
6.0561e-07
5.51936e-07
4.97699e-07
4.43489e-07
3.89935e-07
3.37699e-07
2.87465e-07
2.39915e-07
1.95706e-07
1.55435e-07
1.1962e-07
8.86467e-08
6.27411e-08
4.19348e-08
2.60451e-08
1.46699e-08
7.20285e-09
2.87144e-09
8.01163e-10
1.04383e-10
6.09301e-13
6.72209e-13
1.14912e-10
8.77648e-10
3.12214e-09
7.75777e-09
1.56286e-08
2.74218e-08
4.36164e-08
6.44679e-08
9.00172e-08
1.20118e-07
1.54473e-07
1.92671e-07
2.34221e-07
2.78586e-07
3.25207e-07
3.7352e-07
4.2298e-07
4.73059e-07
5.23264e-07
5.73134e-07
6.22244e-07
6.70207e-07
7.16671e-07
7.61322e-07
8.03873e-07
8.44072e-07
8.81693e-07
9.16537e-07
9.48425e-07
9.77202e-07
1.00273e-06
1.02489e-06
1.04357e-06
1.05867e-06
1.07014e-06
1.07789e-06
1.08189e-06
1.08209e-06
1.07843e-06
1.07091e-06
1.05953e-06
1.0443e-06
1.02526e-06
1.00245e-06
9.75928e-07
9.458e-07
9.12183e-07
8.75229e-07
8.35124e-07
7.92096e-07
7.46413e-07
6.98387e-07
6.48383e-07
5.96817e-07
5.44154e-07
4.90914e-07
4.37667e-07
3.85026e-07
3.3364e-07
2.84177e-07
2.37314e-07
1.93703e-07
1.53939e-07
1.18539e-07
8.78969e-08
6.22443e-08
4.16234e-08
2.58629e-08
1.45725e-08
7.15696e-09
2.85367e-09
7.96278e-10
1.03749e-10
6.0559e-13
6.94847e-13
1.18769e-10
9.06859e-10
3.2247e-09
8.00806e-09
1.61215e-08
2.82628e-08
4.49104e-08
6.63075e-08
9.2473e-08
1.23231e-07
1.58248e-07
1.97075e-07
2.39185e-07
2.84006e-07
3.30947e-07
3.7942e-07
4.28857e-07
4.78718e-07
5.28501e-07
5.77744e-07
6.26025e-07
6.72967e-07
7.1823e-07
7.61516e-07
8.02561e-07
8.41134e-07
8.77035e-07
9.1009e-07
9.40149e-07
9.67083e-07
9.90776e-07
1.01113e-06
1.02808e-06
1.04156e-06
1.05151e-06
1.05789e-06
1.06067e-06
1.0598e-06
1.05527e-06
1.04707e-06
1.03522e-06
1.01972e-06
1.00061e-06
9.77922e-07
9.51732e-07
9.22124e-07
8.8921e-07
8.53129e-07
8.14054e-07
7.72193e-07
7.27793e-07
6.81146e-07
6.32589e-07
5.82511e-07
5.31355e-07
4.79618e-07
4.27844e-07
3.76624e-07
3.26583e-07
2.78372e-07
2.32647e-07
1.90045e-07
1.51155e-07
1.1649e-07
8.6445e-08
6.12619e-08
4.09946e-08
2.54878e-08
1.43686e-08
7.05968e-09
2.8157e-09
7.85817e-10
1.02393e-10
5.97683e-13
7.18978e-13
1.22882e-10
9.38016e-10
3.33413e-09
8.2752e-09
1.66473e-08
2.9159e-08
4.62864e-08
6.82569e-08
9.50622e-08
1.2649e-07
1.62165e-07
2.01595e-07
2.44208e-07
2.89393e-07
3.36522e-07
3.8498e-07
4.34179e-07
4.83563e-07
5.32625e-07
5.80903e-07
6.27983e-07
6.73501e-07
7.17135e-07
7.58609e-07
7.97685e-07
8.3416e-07
8.67866e-07
8.98659e-07
9.26422e-07
9.51048e-07
9.72468e-07
9.90633e-07
1.00549e-06
1.01698e-06
1.0251e-06
1.02981e-06
1.0311e-06
1.02897e-06
1.0234e-06
1.01441e-06
1.002e-06
9.86209e-07
9.67057e-07
9.44592e-07
9.18874e-07
8.89982e-07
8.58015e-07
8.231e-07
7.85387e-07
7.4506e-07
7.02343e-07
6.57505e-07
6.1086e-07
5.62768e-07
5.13639e-07
4.6393e-07
4.14153e-07
3.64864e-07
3.16658e-07
2.70158e-07
2.25994e-07
1.8479e-07
1.47121e-07
1.13493e-07
8.43027e-08
5.97992e-08
4.00506e-08
2.49203e-08
1.40581e-08
6.91087e-09
2.75745e-09
7.69755e-10
1.00312e-10
5.85552e-13
7.45014e-13
1.27321e-10
9.71673e-10
3.45245e-09
8.56423e-09
1.72164e-08
3.01282e-08
4.77717e-08
7.03547e-08
9.78357e-08
1.29959e-07
1.663e-07
2.06312e-07
2.49376e-07
2.94832e-07
3.42015e-07
3.9028e-07
4.39014e-07
4.87652e-07
5.35681e-07
5.82644e-07
6.28138e-07
6.71817e-07
7.13385e-07
7.52592e-07
7.89232e-07
8.23139e-07
8.54177e-07
8.82242e-07
9.0724e-07
9.29135e-07
9.47884e-07
9.63455e-07
9.75826e-07
9.85e-07
9.90977e-07
9.93757e-07
9.93351e-07
9.89769e-07
9.83027e-07
9.73145e-07
9.60146e-07
9.44059e-07
9.24918e-07
9.02767e-07
8.77663e-07
8.49675e-07
8.18887e-07
7.85405e-07
7.49364e-07
7.10932e-07
6.70307e-07
6.27719e-07
5.83446e-07
5.37808e-07
4.91178e-07
4.43977e-07
3.96676e-07
3.49792e-07
3.03884e-07
2.59539e-07
2.17358e-07
1.77937e-07
1.41836e-07
1.09548e-07
8.14695e-08
5.78561e-08
3.87912e-08
2.41604e-08
1.36412e-08
6.71063e-09
2.67897e-09
7.48108e-10
9.75081e-11
5.69212e-13
7.73365e-13
1.32159e-10
1.00838e-09
3.58165e-09
8.88016e-09
1.78387e-08
3.11877e-08
4.93929e-08
7.26379e-08
1.00841e-07
1.33694e-07
1.70713e-07
2.11292e-07
2.54752e-07
3.00383e-07
3.47478e-07
3.95357e-07
4.43388e-07
4.90993e-07
5.37661e-07
5.82943e-07
6.26453e-07
6.6787e-07
7.06927e-07
7.4341e-07
7.77153e-07
8.08024e-07
8.35933e-07
8.60805e-07
8.82629e-07
9.0138e-07
9.17055e-07
9.29656e-07
9.39217e-07
9.45775e-07
9.49347e-07
9.49969e-07
9.47675e-07
9.42498e-07
9.34473e-07
9.23634e-07
9.10015e-07
8.93652e-07
8.74581e-07
8.52847e-07
8.28499e-07
8.01595e-07
7.72208e-07
7.40433e-07
7.0638e-07
6.70182e-07
6.32006e-07
5.92052e-07
5.50559e-07
5.07808e-07
4.64127e-07
4.19893e-07
3.7553e-07
3.3151e-07
2.88347e-07
2.46586e-07
2.0679e-07
1.69525e-07
1.35326e-07
1.04674e-07
7.79579e-08
5.54406e-08
3.72214e-08
2.32112e-08
1.31194e-08
6.45974e-09
2.58059e-09
7.20969e-10
9.3994e-11
5.48738e-13
8.04425e-13
1.3746e-10
1.04866e-09
3.72364e-09
9.2278e-09
1.85239e-08
3.23539e-08
5.11748e-08
7.51398e-08
1.04119e-07
1.37741e-07
1.75454e-07
2.1658e-07
2.60375e-07
3.06073e-07
3.52919e-07
4.00202e-07
4.47269e-07
4.93537e-07
5.38496e-07
5.81714e-07
6.2283e-07
6.61552e-07
6.97652e-07
7.30962e-07
7.61348e-07
7.88735e-07
8.13067e-07
8.34354e-07
8.52597e-07
8.67824e-07
8.80059e-07
8.89387e-07
8.95871e-07
8.99559e-07
9.00514e-07
8.988e-07
8.94478e-07
8.87603e-07
8.78228e-07
8.66401e-07
8.52167e-07
8.35568e-07
8.16645e-07
7.95438e-07
7.71991e-07
7.46355e-07
7.18589e-07
6.88763e-07
6.56963e-07
6.23299e-07
5.87902e-07
5.50936e-07
5.126e-07
4.73129e-07
4.32806e-07
3.91956e-07
3.50952e-07
3.10215e-07
2.70207e-07
2.31425e-07
1.94391e-07
1.59629e-07
1.27649e-07
9.891e-08
7.3795e-08
5.25704e-08
3.53523e-08
2.2079e-08
1.24962e-08
6.1599e-09
2.46298e-09
6.88531e-10
8.97951e-11
5.24282e-13
8.38561e-13
1.43288e-10
1.09301e-09
3.88021e-09
9.61164e-09
1.92809e-08
3.36418e-08
5.31388e-08
7.78883e-08
1.07701e-07
1.42134e-07
1.80551e-07
2.22194e-07
2.66249e-07
3.11885e-07
3.58301e-07
4.04752e-07
4.5057e-07
4.95169e-07
5.38051e-07
5.78807e-07
6.17108e-07
6.52701e-07
6.85411e-07
7.15095e-07
7.41694e-07
7.65169e-07
7.85549e-07
8.02865e-07
8.17181e-07
8.28529e-07
8.37084e-07
8.42905e-07
8.46086e-07
8.46726e-07
8.44922e-07
8.40765e-07
8.34339e-07
8.25722e-07
8.14984e-07
8.02187e-07
7.87383e-07
7.70622e-07
7.51944e-07
7.31389e-07
7.08995e-07
6.84799e-07
6.58846e-07
6.31187e-07
6.01883e-07
5.71014e-07
5.3868e-07
5.05006e-07
4.70147e-07
4.34294e-07
3.97677e-07
3.60569e-07
3.23288e-07
2.86197e-07
2.49704e-07
2.14253e-07
1.80313e-07
1.48367e-07
1.1889e-07
9.23192e-08
6.90243e-08
4.92745e-08
3.32022e-08