/*--------------------------------*- C++ -*----------------------------------*\
  =========                 |
  \\      /  F ield         | OpenFOAM: The Open Source CFD Toolbox
   \\    /   O peration     | Website:  https://openfoam.org
    \\  /    A nd           | Version:  12
     \\/     M anipulation  |
\*---------------------------------------------------------------------------*/
FoamFile
{
    format      ascii;
    class       volScalarField;
    location    "3.5";
    object      p;
}
// * * * * * * * * * * * * * * * * * * * * * * * * * * * * * * * * * * * * * //

dimensions      [0 2 -2 0 0 0 0];

internalField   nonuniform List<scalar> 
5625
(
3.52303e-09
7.51249e-08
9.79374e-07
2.80387e-06
5.32306e-06
8.32737e-06
1.16481e-05
1.51166e-05
1.86011e-05
2.19789e-05
2.51436e-05
2.80049e-05
3.04868e-05
3.25265e-05
3.40728e-05
3.50855e-05
3.55337e-05
3.53959e-05
3.46584e-05
3.33147e-05
3.13654e-05
2.88169e-05
2.56812e-05
2.19756e-05
1.77215e-05
1.2945e-05
7.67536e-06
1.94551e-06
-4.20892e-06
-1.07497e-05
-1.76364e-05
-2.48268e-05
-3.22772e-05
-3.99426e-05
-4.77771e-05
-5.57342e-05
-6.37671e-05
-7.18288e-05
-7.98723e-05
-8.78513e-05
-9.57199e-05
-0.000103433
-0.000110947
-0.000118219
-0.000125207
-0.000131873
-0.000138177
-0.000144086
-0.000149565
-0.000154583
-0.000159113
-0.000163129
-0.000166611
-0.000169539
-0.000171901
-0.000173687
-0.000174892
-0.000175517
-0.000175569
-0.000175061
-0.000174013
-0.000172455
-0.000170423
-0.000167967
-0.000165146
-0.00016203
-0.000158708
-0.000155279
-0.000151864
-0.000148595
-0.00014563
-0.000143139
-0.000141329
-0.000140427
-0.000140351
-3.11435e-06
-2.67337e-06
-1.64994e-06
-1.67935e-08
2.10305e-06
4.56752e-06
7.25194e-06
1.00413e-05
1.28305e-05
1.55242e-05
1.80374e-05
2.0296e-05
2.22358e-05
2.38029e-05
2.4952e-05
2.56468e-05
2.58589e-05
2.55675e-05
2.47585e-05
2.34246e-05
2.15643e-05
1.91814e-05
1.62851e-05
1.28889e-05
9.01073e-06
4.67228e-06
-1.01345e-07
-5.2819e-06
-1.08384e-05
-1.67376e-05
-2.29439e-05
-2.94202e-05
-3.61279e-05
-4.30269e-05
-5.00768e-05
-5.72359e-05
-6.44626e-05
-7.17151e-05
-7.89515e-05
-8.61304e-05
-9.32108e-05
-0.000100153
-0.000106917
-0.000113466
-0.000119762
-0.000125771
-0.00013146
-0.000136797
-0.000141753
-0.000146302
-0.000150419
-0.000154084
-0.000157278
-0.000159987
-0.0001622
-0.00016391
-0.000165116
-0.000165819
-0.000166028
-0.000165756
-0.000165024
-0.000163856
-0.000162289
-0.000160365
-0.000158133
-0.000155657
-0.000153005
-0.000150259
-0.000147513
-0.000144866
-0.000142433
-0.000140335
-0.000138713
-0.00013769
-0.000137241
-9.15425e-06
-8.0012e-06
-6.39141e-06
-4.47816e-06
-2.3188e-06
2.13232e-08
2.46476e-06
4.93338e-06
7.35265e-06
9.65319e-06
1.17712e-05
1.36494e-05
1.5237e-05
1.649e-05
1.7371e-05
1.78494e-05
1.79009e-05
1.75071e-05
1.66556e-05
1.53395e-05
1.35569e-05
1.13107e-05
8.60831e-06
5.46144e-06
1.88542e-06
-2.10087e-06
-6.47542e-06
-1.12133e-05
-1.62872e-05
-2.16674e-05
-2.73224e-05
-3.32189e-05
-3.93223e-05
-4.5597e-05
-5.20064e-05
-5.85133e-05
-6.50802e-05
-7.16696e-05
-7.82438e-05
-8.47656e-05
-9.11984e-05
-9.75061e-05
-0.000103654
-0.000109607
-0.000115334
-0.000120803
-0.000125985
-0.000130851
-0.000135377
-0.000139539
-0.000143316
-0.00014669
-0.000149645
-0.00015217
-0.000154254
-0.000155894
-0.000157088
-0.000157838
-0.000158152
-0.000158042
-0.000157525
-0.000156625
-0.00015537
-0.000153795
-0.00015194
-0.000149855
-0.000147592
-0.000145213
-0.000142784
-0.000140376
-0.000138066
-0.000135928
-0.000134026
-0.000132415
-0.000131255
-1.69529e-05
-1.49214e-05
-1.24712e-05
-9.97852e-06
-7.44737e-06
-4.88404e-06
-2.33261e-06
1.53439e-07
2.52225e-06
4.72472e-06
6.71461e-06
8.44927e-06
9.8902e-06
1.10035e-05
1.17602e-05
1.21362e-05
1.21122e-05
1.1674e-05
1.08119e-05
9.52103e-06
7.8006e-06
5.65418e-06
3.08913e-06
1.16539e-07
-3.24919e-06
-6.9905e-06
-1.1087e-05
-1.55158e-05
-2.02515e-05
-2.52669e-05
-3.0533e-05
-3.60192e-05
-4.16937e-05
-4.75238e-05
-5.34757e-05
-5.95156e-05
-6.56089e-05
-7.17211e-05
-7.7818e-05
-8.38653e-05
-8.98297e-05
-9.56782e-05
-0.000101379
-0.000106901
-0.000112214
-0.000117291
-0.000122104
-0.000126628
-0.000130841
-0.000134721
-0.000138249
-0.000141408
-0.000144186
-0.00014657
-0.000148552
-0.000150127
-0.000151293
-0.000152053
-0.000152411
-0.000152376
-0.000151963
-0.000151189
-0.000150075
-0.00014865
-0.000146943
-0.00014499
-0.00014283
-0.000140506
-0.000138065
-0.000135554
-0.000133025
-0.00013052
-0.000128042
-0.000125594
-0.000123556
-2.52951e-05
-2.23451e-05
-1.89656e-05
-1.5761e-05
-1.26965e-05
-9.73149e-06
-6.88585e-06
-4.19577e-06
-1.69634e-06
5.7918e-07
2.5987e-06
4.33201e-06
5.75136e-06
6.83216e-06
7.55317e-06
7.89688e-06
7.84952e-06
7.40121e-06
6.54588e-06
5.28128e-06
3.6088e-06
1.53338e-06
-9.36677e-07
-3.78987e-06
-7.01177e-06
-1.05851e-05
-1.44903e-05
-1.87051e-05
-2.32056e-05
-2.79659e-05
-3.29586e-05
-3.81547e-05
-4.35246e-05
-4.90373e-05
-5.46614e-05
-6.03652e-05
-6.61165e-05
-7.18831e-05
-7.7633e-05
-8.33348e-05
-8.89571e-05
-9.44695e-05
-9.98426e-05
-0.000105048
-0.000110057
-0.000114845
-0.000119386
-0.000123658
-0.000127639
-0.00013131
-0.000134652
-0.00013765
-0.000140292
-0.000142565
-0.000144462
-0.000145977
-0.000147106
-0.00014785
-0.000148212
-0.000148197
-0.000147814
-0.000147076
-0.000145998
-0.000144598
-0.000142899
-0.000140924
-0.0001387
-0.000136256
-0.000133621
-0.000130826
-0.000127905
-0.000124875
-0.000121691
-0.000118317
-0.000115363
-3.33656e-05
-2.95157e-05
-2.51948e-05
-2.12249e-05
-1.75433e-05
-1.40729e-05
-1.08175e-05
-7.80207e-06
-5.05018e-06
-2.5835e-06
-4.23321e-07
1.40996e-06
2.89746e-06
4.02247e-06
4.77073e-06
5.1308e-06
5.09416e-06
4.65544e-06
3.81236e-06
2.56584e-06
9.19833e-07
-1.11861e-06
-3.53959e-06
-6.33042e-06
-9.47584e-06
-1.29581e-05
-1.67574e-05
-2.08518e-05
-2.52174e-05
-2.98291e-05
-3.46601e-05
-3.96825e-05
-4.48676e-05
-5.01858e-05
-5.56071e-05
-6.1101e-05
-6.66369e-05
-7.21844e-05
-7.77131e-05
-8.31931e-05
-8.85951e-05
-9.38901e-05
-9.90505e-05
-0.000104049
-0.00010886
-0.000113459
-0.000117823
-0.000121929
-0.000125758
-0.00012929
-0.000132508
-0.000135398
-0.000137946
-0.000140141
-0.000141974
-0.000143438
-0.000144527
-0.000145241
-0.000145578
-0.00014554
-0.000145133
-0.000144364
-0.000143241
-0.000141777
-0.000139984
-0.000137877
-0.000135474
-0.00013279
-0.000129843
-0.000126653
-0.000123241
-0.000119606
-0.000115667
-0.000111358
-0.000107506
-4.05962e-05
-3.58837e-05
-3.06409e-05
-2.58931e-05
-2.15569e-05
-1.7527e-05
-1.37963e-05
-1.03835e-05
-7.30436e-06
-4.57263e-06
-2.20163e-06
-2.04243e-07
1.40768e-06
2.62392e-06
3.43621e-06
3.8385e-06
3.82714e-06
3.40109e-06
2.5619e-06
1.31384e-06
-3.3622e-07
-2.37873e-06
-4.80169e-06
-7.59063e-06
-1.07289e-05
-1.41975e-05
-1.79759e-05
-2.20414e-05
-2.63699e-05
-3.0936e-05
-3.57129e-05
-4.06731e-05
-4.57881e-05
-5.10289e-05
-5.63661e-05
-6.177e-05
-6.72109e-05
-7.26592e-05
-7.80857e-05
-8.34615e-05
-8.87582e-05
-9.39483e-05
-9.9005e-05
-0.000103902
-0.000108616
-0.000113121
-0.000117396
-0.00012142
-0.000125172
-0.000128635
-0.000131791
-0.000134625
-0.000137124
-0.000139276
-0.000141071
-0.000142499
-0.000143555
-0.000144233
-0.000144531
-0.000144447
-0.000143982
-0.000143137
-0.000141917
-0.000140327
-0.000138374
-0.000136064
-0.000133407
-0.000130411
-0.000127084
-0.000123436
-0.000119482
-0.000115208
-0.000110505
-0.000105284
-0.000100575
-4.65765e-05
-4.1038e-05
-3.49e-05
-2.93791e-05
-2.4376e-05
-1.97619e-05
-1.55229e-05
-1.16742e-05
-8.22706e-06
-5.18955e-06
-2.56934e-06
-3.73707e-07
1.39101e-06
2.7199e-06
3.6097e-06
4.05914e-06
4.06897e-06
3.64223e-06
2.78424e-06
1.50269e-06
-1.92433e-07
-2.28881e-06
-4.77193e-06
-7.62513e-06
-1.08298e-05
-1.43653e-05
-1.82096e-05
-2.23389e-05
-2.67281e-05
-3.13508e-05
-3.61799e-05
-4.11873e-05
-4.63443e-05
-5.16217e-05
-5.69902e-05
-6.24203e-05
-6.78825e-05
-7.33476e-05
-7.87868e-05
-8.41716e-05
-8.94744e-05
-9.4668e-05
-9.97262e-05
-0.000104624
-0.000109336
-0.000113841
-0.000118115
-0.000122137
-0.000125889
-0.000129352
-0.000132508
-0.000135342
-0.00013784
-0.000139988
-0.000141776
-0.000143192
-0.000144229
-0.00014488
-0.000145137
-0.000144997
-0.000144456
-0.000143513
-0.000142166
-0.000140416
-0.000138263
-0.000135709
-0.000132756
-0.000129406
-0.000125661
-0.000121525
-0.000117008
-0.000112088
-0.000106631
-0.00010053
-9.5006e-05
-5.09916e-05
-4.46538e-05
-3.7643e-05
-3.13589e-05
-2.56883e-05
-2.04823e-05
-1.57223e-05
-1.14219e-05
-7.58986e-06
-4.23041e-06
-1.34714e-06
1.05693e-06
2.97978e-06
4.42086e-06
5.38118e-06
5.86366e-06
5.87308e-06
5.41637e-06
4.50249e-06
3.14261e-06
1.34994e-06
-8.60161e-07
-3.47039e-06
-6.46152e-06
-9.81255e-06
-1.35008e-05
-1.75022e-05
-2.17913e-05
-2.63413e-05
-3.11248e-05
-3.61133e-05
-4.12778e-05
-4.65887e-05
-5.20163e-05
-5.75307e-05
-6.31018e-05
-6.87002e-05
-7.42963e-05
-7.98613e-05
-8.53666e-05
-9.07847e-05
-9.60885e-05
-0.000101252
-0.00010625
-0.000111058
-0.000115653
-0.000120013
-0.000124117
-0.000127945
-0.000131478
-0.000134699
-0.000137591
-0.000140139
-0.000142329
-0.000144148
-0.000145584
-0.000146627
-0.000147267
-0.000147495
-0.000147304
-0.000146687
-0.000145638
-0.000144153
-0.000142227
-0.000139857
-0.000137039
-0.00013377
-0.000130048
-0.000125869
-0.000121234
-0.00011615
-0.000110588
-0.000104393
-9.74441e-05
-9.11395e-05
-5.35753e-05
-4.6453e-05
-3.85831e-05
-3.15443e-05
-2.52106e-05
-1.94143e-05
-1.41333e-05
-9.3811e-06
-5.16465e-06
-1.48573e-06
1.65515e-06
4.2583e-06
6.32525e-06
7.8591e-06
8.86465e-06
9.3486e-06
9.31952e-06
8.78805e-06
7.76678e-06
6.2704e-06
4.31551e-06
1.9207e-06
-8.93656e-07
-4.1054e-06
-7.69083e-06
-1.16247e-05
-1.58806e-05
-2.04308e-05
-2.52467e-05
-3.02989e-05
-3.55573e-05
-4.09914e-05
-4.65704e-05
-5.22633e-05
-5.80392e-05
-6.38674e-05
-6.97173e-05
-7.5559e-05
-8.13631e-05
-8.71005e-05
-9.27433e-05
-9.82642e-05
-0.000103637
-0.000108836
-0.000113836
-0.000118615
-0.000123149
-0.000127418
-0.0001314
-0.000135078
-0.000138431
-0.000141444
-0.000144099
-0.000146382
-0.000148278
-0.000149773
-0.000150855
-0.000151512
-0.000151733
-0.000151508
-0.000150826
-0.00014968
-0.000148061
-0.00014596
-0.00014337
-0.000140285
-0.000136697
-0.000132599
-0.000127985
-0.000122852
-0.000117205
-0.000111011
-0.000104095
-9.63215e-05
-8.92618e-05
-5.4078e-05
-4.61744e-05
-3.74499e-05
-2.96615e-05
-2.26707e-05
-1.62912e-05
-1.04981e-05
-5.30504e-06
-7.18151e-07
3.26283e-06
6.63986e-06
9.41608e-06
1.15961e-05
1.31862e-05
1.41949e-05
1.46323e-05
1.45107e-05
1.38444e-05
1.26496e-05
1.09448e-05
8.75009e-06
6.08749e-06
2.98077e-06
-5.44689e-07
-4.46208e-06
-8.74326e-06
-1.3359e-05
-1.82789e-05
-2.34721e-05
-2.89067e-05
-3.45507e-05
-4.03715e-05
-4.63367e-05
-5.24137e-05
-5.857e-05
-6.47737e-05
-7.09931e-05
-7.71972e-05
-8.33555e-05
-8.94384e-05
-9.54171e-05
-0.000101264
-0.000106951
-0.000112453
-0.000117744
-0.000122801
-0.000127601
-0.000132121
-0.000136341
-0.00014024
-0.000143798
-0.000146999
-0.000149824
-0.000152257
-0.000154281
-0.000155882
-0.000157045
-0.000157756
-0.000158002
-0.000157771
-0.000157049
-0.000155824
-0.000154087
-0.000151824
-0.000149027
-0.000145683
-0.000141783
-0.000137317
-0.000132275
-0.000126652
-0.000120451
-0.000113637
-0.000106014
-9.74331e-05
-8.96343e-05
-5.22428e-05
-4.35514e-05
-3.39686e-05
-2.54324e-05
-1.77913e-05
-1.084e-05
-4.55072e-06
1.06252e-06
5.9944e-06
1.0247e-05
1.38244e-05
1.67325e-05
1.89787e-05
2.05727e-05
2.15262e-05
2.18529e-05
2.15689e-05
2.06923e-05
1.92431e-05
1.72435e-05
1.47175e-05
1.1691e-05
8.19124e-06
4.24731e-06
-1.1055e-07
-4.85087e-06
-9.94121e-06
-1.53483e-05
-2.10382e-05
-2.69765e-05
-3.31285e-05
-3.94595e-05
-4.59348e-05
-5.25197e-05
-5.91801e-05
-6.58823e-05
-7.2593e-05
-7.92798e-05
-8.59112e-05
-9.24562e-05
-9.88849e-05
-0.000105169
-0.000111279
-0.00011719
-0.000122874
-0.000128308
-0.000133468
-0.000138329
-0.000142872
-0.000147074
-0.000150915
-0.000154377
-0.000157439
-0.000160086
-0.000162298
-0.000164059
-0.000165353
-0.000166164
-0.000166476
-0.000166275
-0.000165546
-0.000164274
-0.000162444
-0.000160044
-0.000157059
-0.000153475
-0.000149281
-0.000144461
-0.000139004
-0.000132904
-0.000126163
-0.00011874
-0.00011042
-0.000101042
-9.25127e-05
-4.77869e-05
-3.82943e-05
-2.78441e-05
-1.85604e-05
-1.02776e-05
-2.7706e-06
3.99185e-06
9.99542e-06
1.52357e-05
1.97167e-05
2.34449e-05
2.64289e-05
2.86791e-05
3.02084e-05
3.10321e-05
3.11678e-05
3.06354e-05
2.94569e-05
2.76566e-05
2.52607e-05
2.22974e-05
1.87966e-05
1.47896e-05
1.03096e-05
5.39051e-06
6.76005e-08
-5.62311e-06
-1.16449e-05
-1.79606e-05
-2.45327e-05
-3.13237e-05
-3.8296e-05
-4.54124e-05
-5.26359e-05
-5.99302e-05
-6.72595e-05
-7.45888e-05
-8.18839e-05
-8.91117e-05
-9.62399e-05
-0.000103237
-0.000110074
-0.00011672
-0.000123149
-0.000129333
-0.000135246
-0.000140864
-0.000146162
-0.000151118
-0.000155711
-0.000159917
-0.000163718
-0.000167093
-0.000170022
-0.000172488
-0.000174471
-0.000175953
-0.000176918
-0.000177346
-0.000177222
-0.000176528
-0.000175246
-0.000173361
-0.000170854
-0.000167711
-0.000163915
-0.000159449
-0.000154297
-0.000148445
-0.000141885
-0.000134616
-0.000126595
-0.000117588
-0.000107419
-9.81609e-05
-4.03874e-05
-3.00765e-05
-1.87477e-05
-8.71779e-06
1.94278e-07
8.23463e-06
1.54387e-05
2.17924e-05
2.72925e-05
3.19454e-05
3.57602e-05
3.87486e-05
4.09243e-05
4.23038e-05
4.29064e-05
4.27537e-05
4.18697e-05
4.02811e-05
3.80163e-05
3.51064e-05
3.15838e-05
2.7483e-05
2.284e-05
1.7692e-05
1.20774e-05
6.0356e-06
-3.93424e-07
-7.16909e-06
-1.42506e-05
-2.1597e-05
-2.91673e-05
-3.69211e-05
-4.48182e-05
-5.28188e-05
-6.08842e-05
-6.89763e-05
-7.7058e-05
-8.50932e-05
-9.30467e-05
-0.000100885
-0.000108575
-0.000116085
-0.000123385
-0.000130447
-0.000137241
-0.00014374
-0.00014992
-0.000155756
-0.000161222
-0.000166297
-0.000170957
-0.000175181
-0.000178949
-0.000182239
-0.000185031
-0.000187305
-0.000189041
-0.00019022
-0.000190823
-0.000190829
-0.00019022
-0.000188976
-0.000187078
-0.000184507
-0.000181243
-0.000177266
-0.00017256
-0.000167103
-0.00016088
-0.000153879
-0.0001461
-0.000137494
-0.000127806
-0.000116848
-0.000106861
-2.96686e-05
-1.85225e-05
-6.30592e-06
4.46454e-06
1.39865e-05
2.25289e-05
3.01324e-05
3.67835e-05
4.24811e-05
4.72342e-05
5.10554e-05
5.39598e-05
5.59651e-05
5.70919e-05
5.73637e-05
5.68069e-05
5.54501e-05
5.33248e-05
5.04647e-05
4.69054e-05
4.26846e-05
3.78418e-05
3.24177e-05
2.64546e-05
1.99955e-05
1.30844e-05
5.76575e-06
-1.91571e-06
-9.91508e-06
-1.81875e-05
-2.66886e-05
-3.53742e-05
-4.42009e-05
-5.31263e-05
-6.21086e-05
-7.11072e-05
-8.00826e-05
-8.89966e-05
-9.78121e-05
-0.000106493
-0.000115006
-0.000123317
-0.000131395
-0.000139209
-0.00014673
-0.00015393
-0.000160781
-0.000167259
-0.000173338
-0.000178994
-0.000184203
-0.000188942
-0.00019319
-0.000196923
-0.000200122
-0.000202763
-0.000204826
-0.000206289
-0.000207132
-0.000207331
-0.000206866
-0.000205715
-0.000203856
-0.000201268
-0.000197927
-0.000193812
-0.000188902
-0.000183173
-0.000176607
-0.00016919
-0.00016092
-0.000151743
-0.000141384
-0.000129638
-0.000118919
-1.51919e-05
-3.19788e-06
9.9092e-06
2.14058e-05
3.15076e-05
4.05087e-05
4.84553e-05
5.53359e-05
6.11519e-05
6.59162e-05
6.96453e-05
7.23585e-05
7.40782e-05
7.48296e-05
7.46413e-05
7.35448e-05
7.15743e-05
6.87665e-05
6.51606e-05
6.0798e-05
5.57219e-05
4.99771e-05
4.36101e-05
3.66682e-05
2.91998e-05
2.12539e-05
1.28797e-05
4.12679e-06
-4.95558e-06
-1.43183e-05
-2.3913e-05
-3.36919e-05
-4.3608e-05
-5.36155e-05
-6.36698e-05
-7.37274e-05
-8.37464e-05
-9.3686e-05
-0.000103507
-0.000113172
-0.000122645
-0.000131891
-0.000140876
-0.00014957
-0.000157941
-0.00016596
-0.0001736
-0.000180833
-0.000187633
-0.000193975
-0.000199834
-0.000205187
-0.000210009
-0.000214278
-0.00021797
-0.000221063
-0.000223534
-0.000225359
-0.000226514
-0.000226978
-0.000226724
-0.00022573
-0.00022397
-0.00022142
-0.000218055
-0.00021385
-0.00020878
-0.000202819
-0.000195944
-0.000188141
-0.000179404
-0.000169673
-0.000158654
-0.000146125
-0.000134672
3.55463e-06
1.64001e-05
3.03883e-05
4.2583e-05
5.32198e-05
6.26193e-05
7.08351e-05
7.78584e-05
8.36943e-05
8.83602e-05
9.18777e-05
9.42711e-05
9.55681e-05
9.57997e-05
9.50002e-05
9.3207e-05
9.04604e-05
8.68032e-05
8.22809e-05
7.69409e-05
7.08328e-05
6.40074e-05
5.65172e-05
4.84154e-05
3.97561e-05
3.05938e-05
2.0983e-05
1.09784e-05
6.34011e-07
-9.99646e-06
-2.08603e-05
-3.19056e-05
-4.30819e-05
-5.43397e-05
-6.56311e-05
-7.69098e-05
-8.81311e-05
-9.92519e-05
-0.000110231
-0.000121028
-0.000131606
-0.000141928
-0.000151959
-0.000161666
-0.000171018
-0.000179984
-0.000188535
-0.000196642
-0.00020428
-0.000211421
-0.000218039
-0.000224111
-0.000229611
-0.000234514
-0.000238797
-0.000242435
-0.000245402
-0.000247675
-0.000249227
-0.000250033
-0.000250067
-0.000249302
-0.000247711
-0.000245265
-0.000241937
-0.000237698
-0.00023252
-0.000226374
-0.000219233
-0.000211079
-0.000201905
-0.000191645
-0.000179981
-0.000166676
-0.000154491
2.71645e-05
4.08502e-05
5.56919e-05
6.85375e-05
7.96441e-05
8.93605e-05
9.77494e-05
0.000104806
0.000110539
0.000114973
0.000118135
0.000120056
0.000120769
0.000120313
0.000118727
0.000116057
0.000112348
0.000107653
0.000102021
9.55087e-05
8.81714e-05
8.0067e-05
7.12544e-05
6.17934e-05
5.17441e-05
4.11671e-05
3.01227e-05
1.8671e-05
6.87123e-06
-5.21802e-06
-1.75394e-05
-3.00368e-05
-4.26557e-05
-5.5343e-05
-6.80473e-05
-8.07191e-05
-9.33111e-05
-0.000105778
-0.000118076
-0.000130163
-0.000141999
-0.000153547
-0.000164769
-0.000175632
-0.000186103
-0.00019615
-0.000205743
-0.000214853
-0.000223453
-0.000231514
-0.00023901
-0.000245916
-0.000252204
-0.000257851
-0.000262829
-0.000267114
-0.000270677
-0.000273494
-0.000275536
-0.000276776
-0.000277184
-0.000276731
-0.000275386
-0.00027312
-0.0002699
-0.000265694
-0.00026047
-0.000254195
-0.000246839
-0.000238378
-0.000228805
-0.000218045
-0.000205759
-0.000191692
-0.00017878
5.6321e-05
7.08147e-05
8.64567e-05
9.98803e-05
0.000111365
0.00012129
0.000129728
0.00013668
0.000142161
0.000146202
0.000148838
0.000150105
0.000150047
0.000148707
0.000146135
0.000142381
0.000137502
0.000131555
0.000124599
0.000116696
0.000107912
9.83093e-05
8.79556e-05
7.69172e-05
6.52611e-05
5.30542e-05
4.0363e-05
2.72535e-05
1.37903e-05
3.73009e-08
-1.39434e-05
-2.80912e-05
-4.23473e-05
-5.66551e-05
-7.09599e-05
-8.52076e-05
-9.93472e-05
-0.000113334
-0.000127122
-0.000140665
-0.000153922
-0.000166854
-0.000179422
-0.000191592
-0.000203329
-0.000214601
-0.000225377
-0.000235627
-0.000245322
-0.000254434
-0.000262935
-0.000270799
-0.000277999
-0.000284507
-0.000290298
-0.000295342
-0.000299613
-0.000303082
-0.000305718
-0.000307492
-0.000308372
-0.000308326
-0.000307321
-0.00030532
-0.000302291
-0.000298196
-0.000292999
-0.000286663
-0.000279152
-0.00027044
-0.000260514
-0.000249295
-0.000236418
-0.00022161
-0.000207986
9.18041e-05
0.000107045
0.0001234
0.000137295
0.000149033
0.000159026
0.000167357
0.000174033
0.00017908
0.000182535
0.000184442
0.000184846
0.000183798
0.000181352
0.000177564
0.000172496
0.00016621
0.000158774
0.000150254
0.000140722
0.00013025
0.000118911
0.000106778
9.39254e-05
8.04279e-05
6.63592e-05
5.17921e-05
3.67988e-05
2.14499e-05
5.81452e-06
-1.004e-05
-2.60484e-05
-4.21477e-05
-5.8277e-05
-7.43782e-05
-9.03966e-05
-0.000106278
-0.000121971
-0.000137428
-0.000152604
-0.000167453
-0.000181936
-0.000196014
-0.000209651
-0.000222811
-0.000235462
-0.000247571
-0.000259108
-0.000270043
-0.000280347
-0.000289993
-0.000298952
-0.000307196
-0.000314698
-0.00032143
-0.000327361
-0.000332463
-0.000336704
-0.000340054
-0.000342478
-0.000343943
-0.000344413
-0.000343851
-0.000342218
-0.000339476
-0.000335583
-0.0003305
-0.000324183
-0.000316591
-0.000307694
-0.000297476
-0.000285848
-0.000272422
-0.000256908
-0.000242594
0.000134496
0.000150384
0.000167322
0.00018154
0.000193367
0.000203245
0.000211273
0.000217466
0.000221859
0.0002245
0.000225441
0.000224738
0.000222452
0.000218646
0.000213386
0.000206743
0.00019879
0.000189601
0.000179256
0.000167832
0.000155412
0.000142076
0.000127907
0.000112986
9.73957e-05
8.12169e-05
6.45296e-05
4.74121e-05
2.99412e-05
1.21916e-05
-5.76407e-06
-2.38559e-05
-4.20164e-05
-6.01809e-05
-7.82873e-05
-9.62769e-05
-0.000114094
-0.000131685
-0.000149004
-0.000166003
-0.000182631
-0.000198844
-0.000214607
-0.000229882
-0.000244634
-0.000258828
-0.000272433
-0.000285416
-0.000297749
-0.000309401
-0.000320343
-0.000330547
-0.000339985
-0.000348627
-0.000356443
-0.000363403
-0.000369475
-0.000374627
-0.000378825
-0.000382032
-0.00038421
-0.000385322
-0.000385326
-0.000384179
-0.000381838
-0.000378257
-0.000373389
-0.000367187
-0.000359605
-0.000350606
-0.000340168
-0.000328196
-0.000314277
-0.000298102
-0.000283131
0.000185382
0.000201772
0.000219107
0.000233448
0.000245148
0.000254683
0.000262166
0.000267625
0.000271103
0.000272661
0.000272362
0.000270274
0.000266468
0.000261017
0.000253999
0.000245494
0.000235585
0.000224359
0.000211903
0.000198304
0.000183655
0.000168045
0.000151564
0.000134304
0.000116354
9.78028e-05
7.87369e-05
5.92416e-05
3.93998e-05
1.92921e-05
-1.00395e-06
-2.14134e-05
-4.18646e-05
-6.2289e-05
-8.26213e-05
-0.0001028
-0.000122765
-0.000142463
-0.000161838
-0.000180845
-0.000199441
-0.000217579
-0.000235216
-0.000252314
-0.000268839
-0.000284756
-0.000300032
-0.000314636
-0.000328538
-0.000341707
-0.000354115
-0.000365732
-0.000376528
-0.000386473
-0.000395537
-0.000403686
-0.000410889
-0.000417109
-0.000422309
-0.000426451
-0.000429494
-0.000431394
-0.000432107
-0.000431584
-0.000429778
-0.000426636
-0.000422107
-0.000416136
-0.000408671
-0.000399669
-0.000389104
-0.000376868
-0.000362527
-0.000345753
-0.00033017
0.000245553
0.000262237
0.000279716
0.000293916
0.000305217
0.000314125
0.00032077
0.000325193
0.00032745
0.000327614
0.000325762
0.000321974
0.000316331
0.000308919
0.000299827
0.000289147
0.000276973
0.0002634
0.000248527
0.000232452
0.000215276
0.000197097
0.000178016
0.000158132
0.000137542
0.000116343
9.46281e-05
7.24902e-05
5.0018e-05
2.72978e-05
4.41234e-06
-1.85587e-05
-4.15395e-05
-6.44576e-05
-8.72448e-05
-0.000109836
-0.000132172
-0.000154193
-0.000175843
-0.000197071
-0.000217834
-0.000238092
-0.000257801
-0.00027692
-0.000295413
-0.000313245
-0.000330385
-0.0003468
-0.00036246
-0.000377335
-0.000391396
-0.000404612
-0.000416952
-0.000428387
-0.000438883
-0.000448406
-0.000456921
-0.00046439
-0.000470773
-0.000476028
-0.000480109
-0.00048297
-0.000484559
-0.000484825
-0.000483712
-0.000481163
-0.000477118
-0.000471517
-0.000464299
-0.000455416
-0.000444833
-0.000432436
-0.000417761
-0.000400467
-0.000384333
0.000316195
0.000332894
0.000350181
0.000363903
0.000374463
0.000382396
0.00038785
0.000390882
0.000391561
0.000389977
0.000386217
0.000380376
0.000372548
0.00036283
0.000351323
0.000338131
0.000323358
0.000307111
0.000289499
0.00027063
0.000250614
0.000229561
0.000207578
0.000184774
0.000161255
0.000137123
0.000112481
8.74277e-05
6.20574e-05
3.64624e-05
1.07306e-05
-1.50538e-05
-4.08108e-05
-6.64644e-05
-9.19433e-05
-0.00011718
-0.000142111
-0.000166679
-0.000190826
-0.000214502
-0.000237659
-0.000260255
-0.000282247
-0.000303596
-0.000324267
-0.000344225
-0.000363437
-0.000381873
-0.000399501
-0.000416292
-0.000432215
-0.000447241
-0.000461338
-0.000474473
-0.000486613
-0.000497722
-0.000507761
-0.00051669
-0.000524466
-0.000531041
-0.000536367
-0.00054039
-0.000543056
-0.000544304
-0.000544073
-0.000542299
-0.000538914
-0.000533849
-0.000527036
-0.000518418
-0.000507954
-0.000495516
-0.000480619
-0.000462903
-0.000446294
0.000398579
0.000414922
0.000431583
0.000444401
0.000453801
0.00046034
0.000464187
0.000465414
0.000464108
0.000460373
0.000454312
0.000446031
0.000435637
0.000423241
0.000408955
0.000392894
0.000375173
0.000355911
0.000335225
0.000313235
0.000290059
0.000265817
0.000240625
0.0002146
0.000187855
0.000160502
0.000132649
0.000104402
7.58604e-05
4.71231e-05
1.82825e-05
-1.05729e-05
-3.93592e-05
-6.79974e-05
-9.64132e-05
-0.000124537
-0.000152304
-0.000179654
-0.000206531
-0.000232882
-0.000258662
-0.000283824
-0.00030833
-0.000332139
-0.000355217
-0.00037753
-0.000399046
-0.000419734
-0.000439564
-0.000458507
-0.000476531
-0.000493607
-0.000509701
-0.00052478
-0.000538809
-0.000551749
-0.000563559
-0.000574195
-0.00058361
-0.000591751
-0.000598565
-0.000603992
-0.00060797
-0.000610432
-0.000611309
-0.000610528
-0.000608013
-0.000603685
-0.000597467
-0.000589291
-0.000579108
-0.000566779
-0.000551795
-0.000533779
-0.000516789
0.000494036
0.000509547
0.000525031
0.000536418
0.00054415
0.000548797
0.000550548
0.000549496
0.000545745
0.000539413
0.000530617
0.000519477
0.000506113
0.000490646
0.0004732
0.0004539
0.000432873
0.000410246
0.000386147
0.000360704
0.000334046
0.000306299
0.000277589
0.000248041
0.000217776
0.000186912
0.000155565
0.000123845
9.18592e-05
5.97109e-05
2.74973e-05
-4.68927e-06
-3.67614e-05
-6.86372e-05
-0.00010024
-0.000131499
-0.000162347
-0.000192724
-0.000222573
-0.000251843
-0.000280486
-0.000308459
-0.000335722
-0.000362237
-0.000387971
-0.00041289
-0.000436964
-0.000460163
-0.000482457
-0.000503817
-0.000524212
-0.00054361
-0.000561979
-0.000579284
-0.000595486
-0.000610545
-0.000624415
-0.000637049
-0.000648393
-0.000658392
-0.000666983
-0.0006741
-0.000679674
-0.000683628
-0.000685884
-0.000686358
-0.000684966
-0.000681616
-0.00067622
-0.0006687
-0.000658996
-0.000646957
-0.00063205
-0.00061388
-0.000596623
0.00060392
0.000617998
0.000631619
0.000640932
0.000646387
0.000648558
0.000647655
0.000643788
0.000637079
0.000627661
0.000615665
0.000601222
0.000584462
0.000565518
0.000544523
0.000521612
0.000496918
0.000470578
0.000442729
0.000413508
0.000383049
0.000351489
0.000318961
0.000285595
0.00025152
0.000216862
0.000181741
0.000146275
0.000110577
7.47521e-05
3.89035e-05
3.12724e-06
-3.24866e-05
-6.78536e-05
-0.000102895
-0.000137539
-0.000171719
-0.000205373
-0.000238445
-0.000270885
-0.000302646
-0.000333686
-0.000363967
-0.000393453
-0.000422112
-0.000449912
-0.000476825
-0.000502821
-0.000527872
-0.000551948
-0.00057502
-0.000597055
-0.000618019
-0.000637875
-0.000656582
-0.000674096
-0.000690367
-0.000705342
-0.000718962
-0.000731164
-0.000741878
-0.000751029
-0.000758537
-0.000764316
-0.000768277
-0.000770323
-0.000770358
-0.000768277
-0.000763979
-0.000757373
-0.000748387
-0.000736854
-0.00072222
-0.000704074
-0.000686687
0.000729557
0.000741454
0.000752372
0.000758838
0.0007613
0.000760322
0.000756128
0.000748849
0.000738624
0.000725597
0.00070991
0.000691702
0.000671114
0.000648283
0.000623351
0.000596462
0.000567751
0.000537363
0.000505441
0.000472129
0.000437568
0.000401901
0.000365267
0.000327802
0.000289643
0.00025092
0.000211761
0.000172287
0.000132615
9.28579e-05
5.31206e-05
1.35024e-05
-2.59038e-05
-6.50118e-05
-0.000103742
-0.000142021
-0.000179783
-0.000216966
-0.000253517
-0.000289385
-0.000324528
-0.000358904
-0.000392477
-0.000425216
-0.000457089
-0.000488069
-0.000518127
-0.000547237
-0.000575372
-0.000602503
-0.0006286
-0.00065363
-0.000677558
-0.000700343
-0.000721942
-0.000742306
-0.000761379
-0.000779103
-0.00079541
-0.000810229
-0.000823479
-0.000835075
-0.000844926
-0.000852932
-0.00085899
-0.00086299
-0.000864819
-0.000864359
-0.000861492
-0.000856112
-0.000848131
-0.000837365
-0.00082324
-0.000805329
-0.000787975
0.000872169
0.000880972
0.000888167
0.00089087
0.000889511
0.000884618
0.000876425
0.000865083
0.000850742
0.000833555
0.000813671
0.000791234
0.000766388
0.000739273
0.000710031
0.00067881
0.000645756
0.000611009
0.000574717
0.000537028
0.000498088
0.000458044
0.000417041
0.00037522
0.000332723
0.000289686
0.00024624
0.000202513
0.000158626
0.000114695
7.08287e-05
2.71292e-05
-1.63086e-05
-5.93971e-05
-0.000102056
-0.000144213
-0.000185803
-0.000226765
-0.000267048
-0.000306606
-0.000345396
-0.000383383
-0.000420535
-0.000456821
-0.000492217
-0.000526695
-0.000560233
-0.000592805
-0.000624387
-0.000654951
-0.000684467
-0.000712901
-0.000740215
-0.000766368
-0.00079131
-0.000814986
-0.000837335
-0.00085829
-0.000877772
-0.0008957
-0.000911982
-0.000926517
-0.000939201
-0.000949919
-0.000958548
-0.000964963
-0.000969032
-0.000970618
-0.000969584
-0.000965805
-0.000959176
-0.000949494
-0.000936161
-0.000918736
-0.000901608
0.00103275
0.00103735
0.00103962
0.0010375
0.00103138
0.00102171
0.00100875
0.000992643
0.000973559
0.00095165
0.000927064
0.000899942
0.000870426
0.000838654
0.000804765
0.000768899
0.000731203
0.00069182
0.000650897
0.00060858
0.000565019
0.000520363
0.00047476
0.000428356
0.000381297
0.000333723
0.00028577
0.00023757
0.000189248
0.000140924
9.27101e-05
4.47101e-05
-2.97929e-06
-5.02699e-05
-9.7082e-05
-0.000143344
-0.000188992
-0.000233971
-0.000278231
-0.00032173
-0.000364431
-0.000406304
-0.00044732
-0.000487457
-0.000526693
-0.000565007
-0.00060238
-0.000638791
-0.000674216
-0.000708631
-0.000742005
-0.000774305
-0.000805489
-0.000835512
-0.000864318
-0.000891847
-0.000918028
-0.000942782
-0.000966019
-0.000987644
-0.00100755
-0.00102561
-0.00104172
-0.00105574
-0.00106751
-0.0010769
-0.00108374
-0.00108789
-0.00108918
-0.00108746
-0.0010826
-0.00107438
-0.00106218
-0.00104554
-0.00102887
0.00121197
0.00121108
0.00120703
0.00119886
0.0011869
0.00117152
0.00115294
0.00113134
0.00110687
0.00107968
0.0010499
0.00101767
0.000983105
0.000946342
0.000907507
0.000866732
0.000824152
0.000779905
0.000734134
0.000686984
0.000638603
0.000589141
0.000538747
0.000487571
0.00043576
0.00038346
0.000330811
0.000277949
0.000225004
0.000172099
0.000119347
6.68554e-05
1.47229e-05
-3.69626e-05
-8.81231e-05
-0.00013869
-0.000188602
-0.000237808
-0.000286265
-0.000333937
-0.000380793
-0.00042681
-0.000471968
-0.000516251
-0.000559645
-0.000602137
-0.000643712
-0.000684356
-0.000724048
-0.000762767
-0.000800483
-0.000837161
-0.000872758
-0.000907223
-0.000940494
-0.0009725
-0.00100316
-0.00103238
-0.00106006
-0.00108607
-0.00111031
-0.00113261
-0.00115287
-0.00117088
-0.00118648
-0.00119951
-0.00120979
-0.00121712
-0.00122132
-0.00122221
-0.00121963
-0.00121333
-0.00120267
-0.00118718
-0.00117124
0.00141007
0.00140216
0.00139012
0.0013745
0.00135553
0.00133341
0.00130834
0.00128049
0.00125
0.00121698
0.00118156
0.00114383
0.0011039
0.00106188
0.00101786