/*--------------------------------*- C++ -*----------------------------------*\
  =========                 |
  \\      /  F ield         | OpenFOAM: The Open Source CFD Toolbox
   \\    /   O peration     | Website:  https://openfoam.org
    \\  /    A nd           | Version:  12
     \\/     M anipulation  |
\*---------------------------------------------------------------------------*/
FoamFile
{
    format      ascii;
    class       volVectorField;
    location    "3.5";
    object      U;
}
// * * * * * * * * * * * * * * * * * * * * * * * * * * * * * * * * * * * * * //

dimensions      [0 1 -1 0 0 0 0];

internalField   nonuniform List<vector> 
5625
(
(-5.32465e-07 1.18473e-06 0)
(-2.16817e-06 1.95031e-06 0)
(-3.75357e-06 1.91526e-06 0)
(-4.57309e-06 1.50078e-06 0)
(-4.05534e-06 9.21521e-07 0)
(-1.93027e-06 2.80956e-07 0)
(1.91124e-06 -3.63661e-07 0)
(7.47697e-06 -9.82828e-07 0)
(1.47074e-05 -1.55725e-06 0)
(2.35082e-05 -2.07692e-06 0)
(3.37558e-05 -2.53796e-06 0)
(4.5308e-05 -2.93961e-06 0)
(5.80118e-05 -3.28277e-06 0)
(7.17086e-05 -3.56924e-06 0)
(8.62371e-05 -3.80133e-06 0)
(0.000101436 -3.98159e-06 0)
(0.000117146 -4.11265e-06 0)
(0.000133211 -4.19715e-06 0)
(0.000149479 -4.23771e-06 0)
(0.000165802 -4.23693e-06 0)
(0.000182041 -4.19736e-06 0)
(0.00019806 -4.12151e-06 0)
(0.000213731 -4.01185e-06 0)
(0.000228933 -3.87085e-06 0)
(0.000243552 -3.70093e-06 0)
(0.000257484 -3.50448e-06 0)
(0.00027063 -3.2839e-06 0)
(0.000282901 -3.04151e-06 0)
(0.000294215 -2.77966e-06 0)
(0.000304498 -2.50062e-06 0)
(0.000313687 -2.20666e-06 0)
(0.000321723 -1.89999e-06 0)
(0.000328561 -1.58281e-06 0)
(0.000334158 -1.25725e-06 0)
(0.000338485 -9.25425e-07 0)
(0.000341517 -5.89383e-07 0)
(0.00034324 -2.51148e-07 0)
(0.000343645 8.73309e-08 0)
(0.000342735 4.24001e-07 0)
(0.000340518 7.57178e-07 0)
(0.00033701 1.08491e-06 0)
(0.000332235 1.40534e-06 0)
(0.000326225 1.71669e-06 0)
(0.000319018 2.01721e-06 0)
(0.000310661 2.30512e-06 0)
(0.000301208 2.57871e-06 0)
(0.000290718 2.83621e-06 0)
(0.000279259 3.07588e-06 0)
(0.000266906 3.29597e-06 0)
(0.000253739 3.49468e-06 0)
(0.000239847 3.67018e-06 0)
(0.000225325 3.82061e-06 0)
(0.000210274 3.94403e-06 0)
(0.000194801 4.03844e-06 0)
(0.00017902 4.10175e-06 0)
(0.000163053 4.13177e-06 0)
(0.000147025 4.12619e-06 0)
(0.00013107 4.08258e-06 0)
(0.000115324 3.99839e-06 0)
(9.99309e-05 3.8709e-06 0)
(8.50388e-05 3.69729e-06 0)
(7.07988e-05 3.47465e-06 0)
(5.73653e-05 3.20006e-06 0)
(4.48936e-05 2.87073e-06 0)
(3.35377e-05 2.48428e-06 0)
(2.34476e-05 2.03924e-06 0)
(1.47639e-05 1.53574e-06 0)
(7.61141e-06 9.76952e-07 0)
(2.08803e-06 3.71541e-07 0)
(-1.74583e-06 -2.62805e-07 0)
(-3.89183e-06 -8.95401e-07 0)
(-4.44833e-06 -1.47039e-06 0)
(-3.67571e-06 -1.88496e-06 0)
(-2.13257e-06 -1.9265e-06 0)
(-5.26102e-07 -1.17448e-06 0)
(-3.20049e-07 3.4917e-06 0)
(-9.30186e-07 5.12332e-06 0)
(-7.75164e-08 3.11102e-06 0)
(3.21796e-06 -1.14493e-06 0)
(9.71651e-06 -6.70749e-06 0)
(1.98603e-05 -1.29438e-05 0)
(3.38543e-05 -1.94187e-05 0)
(5.17354e-05 -2.58368e-05 0)
(7.34156e-05 -3.19931e-05 0)
(9.87146e-05 -3.77495e-05 0)
(0.000127383 -4.30142e-05 0)
(0.000159122 -4.77278e-05 0)
(0.000193597 -5.18535e-05 0)
(0.000230448 -5.5371e-05 0)
(0.000269302 -5.82722e-05 0)
(0.000309777 -6.05576e-05 0)
(0.000351488 -6.22344e-05 0)
(0.000394054 -6.33152e-05 0)
(0.000437096 -6.38166e-05 0)
(0.000480248 -6.37583e-05 0)
(0.000523151 -6.31628e-05 0)
(0.000565461 -6.20548e-05 0)
(0.00060685 -6.04608e-05 0)
(0.000647006 -5.84087e-05 0)
(0.000685632 -5.59276e-05 0)
(0.000722454 -5.30479e-05 0)
(0.000757213 -4.98004e-05 0)
(0.000789675 -4.62169e-05 0)
(0.000819621 -4.23294e-05 0)
(0.000846859 -3.81704e-05 0)
(0.000871214 -3.37725e-05 0)
(0.000892535 -2.91684e-05 0)
(0.000910692 -2.43908e-05 0)
(0.000925578 -1.94723e-05 0)
(0.000937106 -1.44454e-05 0)
(0.000945212 -9.34208e-06 0)
(0.000949853 -4.19425e-06 0)
(0.000951009 9.6661e-07 0)
(0.000948679 6.10946e-06 0)
(0.000942885 1.12036e-05 0)
(0.000933668 1.62189e-05 0)
(0.000921092 2.11254e-05 0)
(0.00090524 2.58937e-05 0)
(0.000886213 3.0495e-05 0)
(0.000864135 3.49007e-05 0)
(0.000839147 3.90827e-05 0)
(0.000811411 4.30132e-05 0)
(0.000781104 4.6665e-05 0)
(0.000748425 5.0011e-05 0)
(0.00071359 5.30246e-05 0)
(0.000676831 5.56796e-05 0)
(0.000638399 5.79502e-05 0)
(0.00059856 5.9811e-05 0)
(0.000557596 6.1237e-05 0)
(0.000515806 6.22041e-05 0)
(0.000473502 6.26887e-05 0)
(0.000431009 6.26682e-05 0)
(0.000388665 6.21216e-05 0)
(0.000346819 6.1029e-05 0)
(0.000305828 5.93733e-05 0)
(0.000266056 5.71401e-05 0)
(0.000227869 5.43194e-05 0)
(0.000191634 5.09068e-05 0)
(0.000157711 4.69059e-05 0)
(0.000126449 4.23317e-05 0)
(9.81747e-05 3.72146e-05 0)
(7.31847e-05 3.16077e-05 0)
(5.17284e-05 2.55958e-05 0)
(3.39906e-05 1.93097e-05 0)
(2.00668e-05 1.29465e-05 0)
(9.93221e-06 6.79661e-06 0)
(3.39877e-06 1.28796e-06 0)
(4.27142e-08 -2.95214e-06 0)
(-8.7439e-07 -4.99175e-06 0)
(-3.12334e-07 -3.43298e-06 0)
(-1.81594e-09 3.22147e-06 0)
(2.17943e-06 1.41574e-06 0)
(7.96618e-06 -6.33816e-06 0)
(1.81593e-05 -1.79937e-05 0)
(3.32642e-05 -3.20531e-05 0)
(5.36067e-05 -4.74166e-05 0)
(7.93377e-05 -6.32661e-05 0)
(0.000110448 -7.89934e-05 0)
(0.000146796 -9.41493e-05 0)
(0.000188129 -0.000108405 0)
(0.000234111 -0.000121524 0)
(0.000284338 -0.000133336 0)
(0.000338353 -0.000143727 0)
(0.000395662 -0.000152621 0)
(0.000455747 -0.000159974 0)
(0.000518069 -0.000165769 0)
(0.000582085 -0.000170006 0)
(0.000647247 -0.000172703 0)
(0.000713011 -0.00017389 0)
(0.000778845 -0.00017361 0)
(0.000844226 -0.000171912 0)
(0.000908651 -0.000168854 0)
(0.000971635 -0.0001645 0)
(0.00103272 -0.00015892 0)
(0.00109145 -0.000152187 0)
(0.00114744 -0.000144379 0)
(0.00120029 -0.000135577 0)
(0.00124964 -0.000125862 0)
(0.00129518 -0.000115319 0)
(0.00133661 -0.000104036 0)
(0.00137366 -9.20978e-05 0)
(0.00140612 -7.95936e-05 0)
(0.00143377 -6.66113e-05 0)
(0.00145646 -5.32389e-05 0)
(0.00147405 -3.95645e-05 0)
(0.00148644 -2.56756e-05 0)
(0.00149358 -1.16591e-05 0)
(0.00149541 2.39871e-06 0)
(0.00149195 1.64126e-05 0)
(0.00148322 3.02984e-05 0)
(0.00146929 4.39728e-05 0)
(0.00145025 5.73537e-05 0)
(0.00142622 7.03603e-05 0)
(0.00139735 8.29129e-05 0)
(0.00136384 9.49332e-05 0)
(0.00132589 0.000106344 0)
(0.00128375 0.00011707 0)
(0.00123769 0.000127036 0)
(0.00118801 0.00013617 0)
(0.00113503 0.000144399 0)
(0.0010791 0.000151656 0)
(0.00102059 0.00015787 0)
(0.000959917 0.000162977 0)
(0.000897488 0.000166914 0)
(0.00083375 0.000169619 0)
(0.000769165 0.000171037 0)
(0.000704215 0.000171113 0)
(0.000639393 0.000169802 0)
(0.000575209 0.000167062 0)
(0.000512178 0.000162861 0)
(0.000450822 0.000157178 0)
(0.000391663 0.000150004 0)
(0.000335216 0.000141349 0)
(0.000281982 0.000131246 0)
(0.00023244 0.000119758 0)
(0.000187035 0.000106985 0)
(0.000146167 9.30805e-05 0)
(0.000110172 7.82665e-05 0)
(7.93042e-05 6.28549e-05 0)
(5.37173e-05 4.72787e-05 0)
(3.34345e-05 3.21308e-05 0)
(1.8324e-05 1.82156e-05 0)
(8.08373e-06 6.62024e-06 0)
(2.23628e-06 -1.16654e-06 0)
(5.80679e-09 -3.10433e-06 0)
(3.25758e-07 -4.46592e-07 0)
(5.69329e-06 -1.11017e-05 0)
(1.71266e-05 -2.89941e-05 0)
(3.5145e-05 -5.17739e-05 0)
(5.98447e-05 -7.76138e-05 0)
(9.12968e-05 -0.000105087 0)
(0.000129486 -0.000133072 0)
(0.000174275 -0.00016069 0)
(0.00022541 -0.000187257 0)
(0.000282537 -0.000212249 0)
(0.000345221 -0.000235268 0)
(0.000412958 -0.000256018 0)
(0.000485188 -0.000274284 0)
(0.000561307 -0.000289919 0)
(0.000640682 -0.000302827 0)
(0.000722656 -0.00031296 0)
(0.000806562 -0.000320303 0)
(0.000891727 -0.000324873 0)
(0.000977483 -0.000326713 0)
(0.00106317 -0.000325887 0)
(0.00114813 -0.000322475 0)
(0.00123175 -0.000316576 0)
(0.00131342 -0.000308299 0)
(0.00139256 -0.000297765 0)
(0.00146861 -0.000285106 0)
(0.00154106 -0.000270458 0)
(0.00160943 -0.000253966 0)
(0.00167326 -0.000235782 0)
(0.00173215 -0.000216057 0)
(0.00178572 -0.000194952 0)
(0.00183363 -0.000172624 0)
(0.0018756 -0.000149237 0)
(0.00191137 -0.000124952 0)
(0.00194073 -9.99344e-05 0)
(0.00196351 -7.43467e-05 0)
(0.00197959 -4.83521e-05 0)
(0.00198887 -2.21127e-05 0)
(0.00199131 4.21035e-06 0)
(0.00198692 3.04575e-05 0)
(0.00197571 5.6471e-05 0)
(0.00195778 8.20947e-05 0)
(0.00193325 0.000107175 0)
(0.00190226 0.00013156 0)
(0.00186502 0.000155101 0)
(0.00182176 0.000177651 0)
(0.00177275 0.000199066 0)
(0.00171831 0.000219204 0)
(0.00165876 0.000237928 0)
(0.0015945 0.000255103 0)
(0.00152594 0.000270597 0)
(0.00145352 0.000284282 0)
(0.00137771 0.000296036 0)
(0.00129902 0.00030574 0)
(0.00121799 0.000313282 0)
(0.00113516 0.000318556 0)
(0.00105113 0.000321465 0)
(0.000966483 0.000321921 0)
(0.000881845 0.000319847 0)
(0.000797845 0.000315181 0)
(0.000715122 0.00030788 0)
(0.000634316 0.000297918 0)
(0.000556069 0.000285299 0)
(0.000481008 0.000270058 0)
(0.000409747 0.000252271 0)
(0.000342868 0.000232066 0)
(0.000280918 0.000209632 0)
(0.000224394 0.00018524 0)
(0.000173728 0.000159261 0)
(0.000129277 0.00013219 0)
(9.13034e-05 0.000104684 0)
(5.99618e-05 7.75962e-05 0)
(3.52884e-05 5.20246e-05 0)
(1.72393e-05 2.93756e-05 0)
(5.75089e-06 1.14614e-05 0)
(3.3379e-07 6.22094e-07 0)
(6.17493e-07 -7.60587e-06 0)
(9.10204e-06 -3.28371e-05 0)
(2.61912e-05 -6.55725e-05 0)
(5.21352e-05 -0.000103386 0)
(8.65965e-05 -0.0001443 0)
(0.000129343 -0.000186698 0)
(0.000180138 -0.000229257 0)
(0.000238663 -0.000270899 0)
(0.000304507 -0.000310753 0)
(0.000377183 -0.000348129 0)
(0.000456134 -0.000382484 0)
(0.000540742 -0.000413401 0)
(0.00063034 -0.000440569 0)
(0.00072422 -0.000463762 0)
(0.000821643 -0.000482833 0)
(0.00092185 -0.000497697 0)
(0.00102407 -0.00050832 0)
(0.00112753 -0.000514718 0)
(0.00123145 -0.000516944 0)
(0.00133507 -0.000515084 0)
(0.00143764 -0.000509254 0)
(0.00153844 -0.000499595 0)
(0.00163676 -0.000486269 0)
(0.00173194 -0.000469455 0)
(0.00182333 -0.00044935 0)
(0.00191032 -0.000426161 0)
(0.00199236 -0.00040011 0)
(0.00206893 -0.000371424 0)
(0.00213953 -0.00034034 0)
(0.00220373 -0.0003071 0)
(0.00226115 -0.000271953 0)
(0.00231143 -0.000235146 0)
(0.00235429 -0.000196935 0)
(0.00238947 -0.000157572 0)
(0.00241678 -0.000117311 0)
(0.00243606 -7.64087e-05 0)
(0.00244721 -3.51164e-05 0)
(0.00245018 6.31357e-06 0)
(0.00244496 4.76315e-05 0)
(0.00243159 8.85902e-05 0)
(0.00241018 0.000128945 0)
(0.00238085 0.000168456 0)
(0.00234379 0.000206884 0)
(0.00229922 0.000243996 0)
(0.00224743 0.000279563 0)
(0.00218873 0.000313359 0)
(0.00212349 0.000345164 0)
(0.0020521 0.000374763 0)
(0.00197501 0.000401947 0)
(0.0018927 0.000426513 0)
(0.0018057 0.000448265 0)
(0.00171455 0.000467014 0)
(0.00161984 0.000482582 0)
(0.00152221 0.000494799 0)
(0.00142229 0.000503509 0)
(0.00132075 0.000508568 0)
(0.0012183 0.00050985 0)
(0.00111565 0.000507247 0)
(0.00101353 0.000500677 0)
(0.000912677 0.000490083 0)
(0.000813828 0.000475442 0)
(0.000717725 0.000456771 0)
(0.000625095 0.000434135 0)
(0.00053665 0.000407657 0)
(0.000453076 0.000377531 0)
(0.000375021 0.000344032 0)
(0.000303091 0.000307541 0)
(0.000237839 0.00026856 0)
(0.000179753 0.00022774 0)
(0.000129251 0.000185909 0)
(8.66693e-05 0.000144106 0)
(5.22673e-05 0.00010362 0)
(2.63076e-05 6.6035e-05 0)
(9.16568e-06 3.33061e-05 0)
(6.27147e-07 7.84361e-06 0)
(8.74269e-07 -1.80075e-05 0)
(1.227e-05 -6.33824e-05 0)
(3.47631e-05 -0.000115697 0)
(6.83816e-05 -0.000172558 0)
(0.000112385 -0.00023194 0)
(0.00016624 -0.000292136 0)
(0.00022947 -0.0003517 0)
(0.000301549 -0.00040942 0)
(0.000381887 -0.000464294 0)
(0.000469836 -0.000515503 0)
(0.000564696 -0.000562389 0)
(0.00066572 -0.000604434 0)
(0.000772122 -0.000641244 0)
(0.000883083 -0.000672528 0)
(0.000997759 -0.000698092 0)
(0.00111529 -0.000717817 0)
(0.00123481 -0.000731658 0)
(0.00135545 -0.000739629 0)
(0.00147634 -0.000741797 0)
(0.00159663 -0.000738278 0)
(0.0017155 -0.000729223 0)
(0.00183212 -0.000714824 0)
(0.00194572 -0.000695298 0)
(0.00205555 -0.000670892 0)
(0.0021609 -0.000641874 0)
(0.0022611 -0.000608532 0)
(0.00235551 -0.000571169 0)
(0.00244356 -0.000530104 0)
(0.0025247 -0.000485665 0)
(0.00259846 -0.00043819 0)
(0.00266439 -0.000388024 0)
(0.00272211 -0.000335518 0)
(0.0027713 -0.000281027 0)
(0.00281166 -0.000224906 0)
(0.00284299 -0.000167515 0)
(0.0028651 -0.00010921 0)
(0.00287789 -5.03499e-05 0)
(0.0028813 8.71112e-06 0)
(0.00287532 6.76201e-05 0)
(0.00286 0.000126028 0)
(0.00283543 0.000183589 0)
(0.00280178 0.000239963 0)
(0.00275925 0.000294813 0)
(0.0027081 0.00034781 0)
(0.00264863 0.00039863 0)
(0.0025812 0.000446954 0)
(0.00250621 0.000492474 0)
(0.00242412 0.000534885 0)
(0.00233542 0.000573896 0)
(0.00224064 0.000609222 0)
(0.00214038 0.000640589 0)
(0.00203525 0.000667737 0)
(0.0019259 0.000690417 0)
(0.00181303 0.0007084 0)
(0.00169737 0.000721469 0)
(0.00157965 0.000729432 0)
(0.00146067 0.00073212 0)
(0.00134121 0.000729392 0)
(0.00122209 0.00072114 0)
(0.00110414 0.000707293 0)
(0.000988176 0.000687827 0)
(0.000875039 0.000662769 0)
(0.000765551 0.000632211 0)
(0.000660521 0.000596314 0)
(0.000560741 0.000555328 0)
(0.000466974 0.000509602 0)
(0.000379949 0.000459602 0)
(0.000300357 0.000405932 0)
(0.000228846 0.000349355 0)
(0.000166011 0.000290818 0)
(0.000112394 0.000231476 0)
(6.84948e-05 0.000172724 0)
(3.48828e-05 0.000116225 0)
(1.23415e-05 6.39663e-05 0)
(8.86198e-07 1.83169e-05 0)
(1.1024e-06 -3.13838e-05 0)
(1.52013e-05 -0.000102184 0)
(4.27994e-05 -0.000178707 0)
(8.37511e-05 -0.000258622 0)
(0.000136958 -0.000339912 0)
(0.000201603 -0.000420831 0)
(0.000276975 -0.000499868 0)
(0.000362334 -0.00057573 0)
(0.000456897 -0.000647326 0)
(0.000559842 -0.000713749 0)
(0.00067031 -0.000774258 0)
(0.000787411 -0.000828262 0)
(0.00091023 -0.000875305 0)
(0.00103783 -0.000915048 0)
(0.00116925 -0.000947263 0)
(0.00130353 -0.000971813 0)
(0.00143971 -0.000988647 0)
(0.00157682 -0.000997789 0)
(0.00171391 -0.000999327 0)
(0.00185006 -0.000993411 0)
(0.00198435 -0.000980239 0)
(0.0021159 -0.000960056 0)
(0.00224386 -0.000933147 0)
(0.00236742 -0.000899829 0)
(0.00248579 -0.000860452 0)
(0.00259826 -0.000815391 0)
(0.00270414 -0.00076504 0)
(0.00280281 -0.000709816 0)
(0.00289367 -0.000650149 0)
(0.0029762 -0.00058648 0)
(0.00304993 -0.000519264 0)
(0.00311445 -0.000448959 0)
(0.0031694 -0.000376033 0)
(0.00321447 -0.000300954 0)
(0.00324942 -0.000224193 0)
(0.00327409 -0.000146224 0)
(0.00328833 -6.75159e-05 0)
(0.00329208 1.14614e-05 0)
(0.00328535 9.02426e-05 0)
(0.00326818 0.000168366 0)
(0.00324068 0.000245376 0)
(0.00320302 0.000320821 0)
(0.00315542 0.000394259 0)
(0.00309817 0.000465252 0)
(0.00303159 0.000533373 0)
(0.00295608 0.000598202 0)
(0.00287207 0.000659331 0)
(0.00278005 0.000716361 0)
(0.00268056 0.000768907 0)
(0.00257419 0.000816596 0)
(0.00246156 0.000859069 0)
(0.00234336 0.000895986 0)
(0.00222029 0.000927024 0)
(0.0020931 0.000951882 0)
(0.00196259 0.000970283 0)
(0.00182957 0.000981977 0)
(0.00169489 0.000986748 0)
(0.00155942 0.000984415 0)
(0.00142405 0.000974838 0)
(0.00128968 0.000957927 0)
(0.00115724 0.000933649 0)
(0.00102763 0.000902032 0)
(0.000901793 0.000863181 0)
(0.000780629 0.000817286 0)
(0.000665047 0.000764632 0)
(0.000555933 0.000705619 0)
(0.000454153 0.000640774 0)
(0.000360551 0.000570765 0)
(0.000275943 0.000496428 0)
(0.000201117 0.000418777 0)
(0.000136824 0.000339033 0)
(8.38008e-05 0.000258634 0)
(4.29016e-05 0.000179262 0)
(1.52744e-05 0.00010288 0)
(1.11646e-06 3.17734e-05 0)
(1.31038e-06 -4.75143e-05 0)
(1.79482e-05 -0.000148745 0)
(5.03977e-05 -0.000253957 0)
(9.83769e-05 -0.000360882 0)
(0.000160468 -0.000467526 0)
(0.000235594 -0.000572132 0)
(0.000322817 -0.000673158 0)
(0.000421189 -0.000769265 0)
(0.000529728 -0.000859309 0)
(0.000647429 -0.000942329 0)
(0.000773268 -0.00101753 0)
(0.000906203 -0.00108428 0)
(0.00104518 -0.00114208 0)
(0.00118912 -0.00119057 0)
(0.00133696 -0.00122951 0)
(0.00148763 -0.00125874 0)
(0.00164007 -0.00127825 0)
(0.00179321 -0.00128806 0)
(0.00194603 -0.0012883 0)
(0.00209751 -0.00127917 0)
(0.00224667 -0.00126091 0)
(0.00239255 -0.00123385 0)
(0.00253426 -0.00119833 0)
(0.0026709 -0.00115476 0)
(0.00280167 -0.00110358 0)
(0.00292578 -0.00104524 0)
(0.0030425 -0.000980264 0)
(0.00315116 -0.000909155 0)
(0.00325114 -0.000832458 0)
(0.00334189 -0.000750726 0)
(0.00342291 -0.00066453 0)
(0.00349375 -0.000574447 0)
(0.00355403 -0.000481062 0)
(0.00360345 -0.000384966 0)
(0.00364173 -0.000286752 0)
(0.0036687 -0.000187013 0)
(0.00368423 -8.63426e-05 0)
(0.00368823 1.46691e-05 0)
(0.00368072 0.000115435 0)
(0.00366175 0.000215375 0)
(0.00363143 0.000313912 0)
(0.00358995 0.000410479 0)
(0.00353754 0.000504517 0)
(0.0034745 0.000595476 0)
(0.0034012 0.000682816 0)
(0.00331803 0.000766009 0)
(0.00322547 0.000844539 0)
(0.00312404 0.000917907 0)
(0.00301432 0.000985625 0)
(0.00289692 0.00104723 0)
(0.00277253 0.00110226 0)
(0.00264185 0.0011503 0)
(0.00250567 0.00119094 0)
(0.00236477 0.0012238 0)
(0.00222001 0.00124854 0)
(0.00207226 0.00126484 0)
(0.00192243 0.00127244 0)
(0.00177148 0.00127109 0)
(0.00162034 0.00126063 0)
(0.00147003 0.00124093 0)
(0.00132153 0.00121194 0)
(0.00117586 0.00117367 0)
(0.00103404 0.00112623 0)
(0.00089709 0.00106981 0)
(0.000766042 0.00100472 0)
(0.000641911 0.00093139 0)
(0.000525708 0.000850363 0)
(0.000418435 0.00076235 0)
(0.000321083 0.00066822 0)
(0.000234633 0.000569019 0)
(0.000160042 0.000465989 0)
(9.82712e-05 0.000360576 0)
(5.04355e-05 0.000254446 0)
(1.80064e-05 0.000149516 0)
(1.32544e-06 4.79821e-05 0)
(1.5062e-06 -6.62446e-05 0)
(2.05747e-05 -0.000202699 0)
(5.77012e-05 -0.000340953 0)
(0.00011249 -0.000478785 0)
(0.000183232 -0.000614216 0)
(0.000268607 -0.000745492 0)
(0.000367462 -0.000871058 0)
(0.000478643 -0.000989553 0)
(0.000600972 -0.00109981 0)
(0.000733257 -0.00120083 0)
(0.000874302 -0.00129181 0)
(0.00102291 -0.00137208 0)
(0.00117786 -0.00144114 0)
(0.00133797 -0.00149863 0)
(0.00150204 -0.0015443 0)
(0.00166887 -0.00157803 0)
(0.00183731 -0.00159981 0)
(0.0020062 -0.00160972 0)
(0.00217443 -0.00160793 0)
(0.0023409 -0.0015947 0)
(0.00250455 -0.00157034 0)
(0.00266438 -0.00153525 0)
(0.00281941 -0.00148986 0)
(0.00296871 -0.00143466 0)
(0.00311142 -0.0013702 0)
(0.0032467 -0.00129705 0)
(0.0033738 -0.00121581 0)
(0.00349201 -0.00112711 0)
(0.00360069 -0.00103162 0)
(0.00369924 -0.000930014 0)
(0.00378714 -0.000822975 0)
(0.00386393 -0.000711211 0)
(0.00392923 -0.000595432 0)
(0.00398269 -0.000476358 0)
(0.00402407 -0.000354708 0)
(0.00405314 -0.000231207 0)
(0.0040698 -0.000106573 0)
(0.00407395 1.84726e-05 0)
(0.00406562 0.000143218 0)
(0.00404484 0.000266954 0)
(0.00401176 0.000388981 0)
(0.00396657 0.000508607 0)
(0.0039095 0.000625152 0)
(0.00384088 0.000737945 0)
(0.00376108 0.00084633 0)
(0.00367054 0.000949662 0)
(0.00356975 0.00104731 0)
(0.00345925 0.00113868 0)
(0.00333966 0.00122316 0)
(0.00321162 0.00130018 0)
(0.00307586 0.00136921 0)
(0.00293312 0.00142971 0)
(0.00278422 0.0014812 0)
(0.00263002 0.00152321 0)
(0.0024714 0.00155531 0)
(0.00230931 0.00157713 0)
(0.00214471 0.00158833 0)
(0.00197861 0.00158861 0)
(0.00181206 0.00157774 0)
(0.00164612 0.00155557 0)
(0.00148187 0.001522 0)
(0.00132042 0.00147702 0)
(0.0011629 0.00142072 0)
(0.00101045 0.00135328 0)
(0.000864215 0.00127499 0)
(0.00072535 0.00118629 0)
(0.000595016 0.00108772 0)
(0.000474375 0.000980014 0)
(0.000364597 0.00086403 0)
(0.000266848 0.000740822 0)
(0.000182288 0.000611625 0)
(0.000112087 0.000477869 0)
(5.75997e-05 0.000341188 0)
(2.05906e-05 0.000203448 0)
(1.52006e-06 6.67675e-05 0)
(1.69666e-06 -8.74867e-05 0)
(2.31428e-05 -0.000263827 0)
(6.48561e-05 -0.000439393 0)
(0.00012634 -0.000611979 0)
(0.000205606 -0.000779618 0)
(0.000301102 -0.000940556 0)
(0.000411467 -0.00109323 0)
(0.000535342 -0.00123629 0)
(0.000671354 -0.00136854 0)
(0.000818125 -0.00148899 0)
(0.000974281 -0.00159683 0)
(0.00113846 -0.00169141 0)
(0.00130929 -0.00177222 0)
(0.00148545 -0.00183893 0)
(0.00166561 -0.00189131 0)
(0.00184846 -0.0019293 0)
(0.00203273 -0.00195291 0)
(0.00221717 -0.0019623 0)
(0.00240058 -0.0019577 0)
(0.00258179 -0.00193942 0)
(0.00275966 -0.00190789 0)
(0.00293313 -0.00186357 0)
(0.00310116 -0.001807 0)
(0.00326278 -0.00173879 0)
(0.00341708 -0.00165956 0)
(0.00356318 -0.00157003 0)
(0.0037003 -0.00147089 0)
(0.0038277 -0.00136293 0)
(0.00394471 -0.0012469 0)
(0.00405071 -0.00112363 0)
(0.00414518 -0.000993928 0)
(0.00422763 -0.000858632 0)
(0.00429765 -0.000718585 0)
(0.00435492 -0.00057464 0)
(0.00439916 -0.00042765 0)
(0.00443017 -0.000278473 0)
(0.00444782 -0.000127962 0)
(0.00445202 2.303e-05 0)
(0.0044428 0.000173658 0)
(0.00442021 0.000323083 0)
(0.00438439 0.000470475 0)
(0.00433554 0.000615014 0)
(0.00427391 0.000755892 0)
(0.00419985 0.000892314 0)
(0.00411373 0.0010235 0)
(0.00401601 0.00114869 0)
(0.0039072 0.00126713 0)
(0.00378788 0.0013781 0)
(0.00365868 0.00148089 0)
(0.00352028 0.00157483 0)
(0.00337343 0.00165927 0)
(0.00321892 0.00173357 0)
(0.00305761 0.00179715 0)
(0.00289038 0.00184946 0)
(0.0027182 0.00188997 0)
(0.00254204 0.00191823 0)
(0.00236293 0.00193383 0)
(0.00218197 0.00193639 0)
(0.00200024 0.00192563 0)
(0.00181891 0.00190133 0)
(0.00163914 0.00186334 0)
(0.00146214 0.0018116 0)
(0.00128915 0.00174617 0)
(0.00112142 0.00166719 0)
(0.00096022 0.00157493 0)
(0.000806852 0.00146979 0)
(0.000662624 0.00135231 0)
(0.000528864 0.00122319 0)
(0.000406912 0.00108328 0)
(0.000298121 0.000933598 0)
(0.000203843 0.000775368 0)
(0.000125446 0.000609987 0)
(6.45125e-05 0.000439049 0)
(2.30776e-05 0.000264369 0)
(1.70604e-06 8.8009e-05 0)
(1.88731e-06 -0.000111212 0)
(2.57059e-05 -0.000332052 0)
(7.19936e-05 -0.000549162 0)
(0.000140153 -0.00076033 0)
(0.000227919 -0.000963586 0)
(0.000333511 -0.00115718 0)
(0.000455358 -0.00133955 0)
(0.0005919 -0.00150934 0)
(0.000741564 -0.00166538 0)
(0.000902784 -0.00180669 0)
(0.00107401 -0.00193248 0)
(0.0012537 -0.00204212 0)
(0.00144035 -0.00213515 0)
(0.00163248 -0.00221127 0)
(0.00182862 -0.00227032 0)
(0.00202735 -0.00231228 0)
(0.0022273 -0.00233724 0)
(0.00242711 -0.00234543 0)
(0.0026255 -0.00233717 0)
(0.0028212 -0.00231287 0)
(0.00301304 -0.00227303 0)
(0.00319987 -0.00221825 0)
(0.0033806 -0.00214917 0)
(0.00355423 -0.0020665 0)
(0.00371979 -0.00197101 0)
(0.00387638 -0.00186351 0)
(0.00402318 -0.00174485 0)
(0.00415944 -0.00161593 0)
(0.00428445 -0.00147765 0)
(0.00439759 -0.00133095 0)
(0.00449832 -0.0011768 0)
(0.00458614 -0.00101617 0)
(0.00466064 -0.000850028 0)
(0.00472149 -0.000679377 0)
(0.0047684 -0.000505205 0)
(0.00480117 -0.000328507 0)
(0.00481967 -0.000150275 0)
(0.00482384 2.85027e-05 0)
(0.00481367 0.000206845 0)
(0.00478924 0.000383777 0)
(0.0047507 0.000558336 0)
(0.00469824 0.00072957 0)
(0.00463214 0.000896541 0)
(0.00455274 0.00105832 0)
(0.00446044 0.00121401 0)
(0.00435571 0.00136272 0)
(0.00423909 0.00150357 0)
(0.00411116 0.00163573 0)
(0.00397257 0.00175837 0)
(0.00382405 0.00187069 0)
(0.00366636 0.00197193 0)
(0.00350034 0.00206136 0)
(0.00332686 0.00213828 0)
(0.00314687 0.00220204 0)
(0.00296136 0.00225202 0)
(0.00277138 0.00228767 0)
(0.00257801 0.00230847 0)
(0.00238239 0.002314 0)
(0.00218572 0.00230387 0)
(0.0019892 0.00227778 0)
(0.00179412 0.00223553 0)
(0.00160177 0.002177 0)
(0.00141349 0.00210217 0)
(0.00123067 0.00201114 0)
(0.00105469 0.00190413 0)
(0.000887011 0.00178148 0)
(0.000729078 0.0016437 0)
(0.000582385 0.00149144 0)
(0.000448446 0.00132552 0)
(0.000328795 0.00114692 0)
(0.000224968 0.000956819 0)
(0.000138531 0.000756572 0)
(7.12791e-05 0.000547738 0)
(2.55108e-05 0.000332086 0)
(1.8879e-06 0.000111634 0)
(2.08255e-06 -0.000137439 0)
(2.83075e-05 -0.000407415 0)
(7.92201e-05 -0.000670309 0)
(0.000154115 -0.000923887 0)
(0.000250443 -0.00116617 0)
(0.000366187 -0.0013954 0)
(0.000499565 -0.00161003 0)
(0.000648809 -0.00180871 0)
(0.000812147 -0.00199031 0)
(0.000987817 -0.00215389 0)
(0.00117409 -0.00229868 0)
(0.00136926 -0.00242411 0)
(0.00157165 -0.00252978 0)
(0.00177964 -0.00261547 0)
(0.00199163 -0.00268107 0)
(0.00220609 -0.00272667 0)
(0.00242151 -0.00275244 0)
(0.00263647 -0.0027587 0)
(0.00284957 -0.00274589 0)
(0.0030595 -0.00271452 0)
(0.00326499 -0.00266522 0)
(0.00346485 -0.0025987 0)
(0.00365795 -0.00251573 0)
(0.00384322 -0.00241715 0)
(0.00401967 -0.00230387 0)
(0.00418638 -0.00217682 0)
(0.0043425 -0.00203701 0)
(0.00448724 -0.00188545 0)
(0.00461991 -0.00172321 0)
(0.00473986 -0.00155137 0)
(0.00484653 -0.00137102 0)
(0.00493943 -0.00118329 0)
(0.00501815 -0.000989284 0)
(0.00508234 -0.000790149 0)
(0.00513173 -0.000587016 0)
(0.00516611 -0.000381021 0)
(0.00518535 -0.000173294 0)
(0.00518939 3.50352e-05 0)
(0.00517824 0.000242848 0)
(0.00515197 0.000449034 0)
(0.00511073 0.000652492 0)
(0.00505474 0.000852137 0)
(0.00498427 0.0010469 0)
(0.00489968 0.00123571 0)
(0.00480138 0.00141755 0)
(0.00468984 0.0015914 0)
(0.00456561 0.00175625 0)
(0.00442931 0.00191113 0)
(0.0042816 0.00205511 0)
(0.00412322 0.00218726 0)
(0.00395497 0.0023067 0)
(0.00377771 0.00241258 0)
(0.00359235 0.00250409 0)
(0.00339988 0.00258046 0)
(0.00320132 0.00264096 0)
(0.00299778 0.00268495 0)
(0.0027904 0.0027118 0)
(0.00258039 0.00272098 0)
(0.00236899 0.00271202 0)
(0.00215753 0.00268453 0)
(0.00194734 0.00263821 0)
(0.00173984 0.00257285 0)
(0.00153647 0.00248837 0)
(0.00133873 0.00238479 0)
(0.00114815 0.00226224 0)
(0.000966316 0.00212103 0)
(0.000794829 0.00196157 0)
(0.000635345 0.00178446 0)
(0.000489549 0.00159047 0)
(0.000359154 0.00138051 0)
(0.000245883 0.00115573 0)
(0.000151489 0.000917417 0)
(7.79845e-05 0.000667097 0)
(2.79245e-05 0.0004065 0)
(2.06907e-06 0.00013761 0)
(2.28574e-06 -0.000166227 0)
(3.09799e-05 -0.000490047 0)
(8.6614e-05 -0.000803009 0)
(0.00016836 -0.00110284 0)
(0.000273369 -0.00138755 0)
(0.000399375 -0.00165538 0)
(0.000544374 -0.00190481 0)
(0.000706386 -0.00213451 0)
(0.00088343 -0.0023434 0)
(0.00107355 -0.00253058 0)
(0.00127482 -0.00269536 0)
(0.00148538 -0.00283725 0)
(0.00170339 -0.00295592 0)
(0.00192707 -0.00305124 0)
(0.0021547 -0.00312323 0)
(0.00238462 -0.00317205 0)
(0.00261523 -0.00319801 0)
(0.002845 -0.00320156 0)
(0.00307245 -0.00318324 0)
(0.00329621 -0.00314371 0)
(0.00351493 -0.00308374 0)
(0.00372738 -0.00300417 0)
(0.00393238 -0.00290591 0)
(0.00412883 -0.00278995 0)
(0.00431572 -0.00265734 0)
(0.00449208 -0.00250917 0)
(0.00465706 -0.00234658 0)
(0.00480986 -0.00217075 0)
(0.00494976 -0.00198288 0)
(0.00507613 -0.0017842 0)
(0.00518839 -0.00157596 0)
(0.00528605 -0.00135942 0)
(0.0053687 -0.00113585 0)
(0.005436 -0.000906529 0)
(0.00548766 -0.000672735 0)
(0.00552349 -0.000435745 0)
(0.00554337 -0.000196835 0)
(0.00554723 4.2729e-05 0)
(0.00553508 0.000281687 0)
(0.00550702 0.000518789 0)
(0.00546317 0.000752799 0)
(0.00540378 0.000982493 0)
(0.00532911 0.00120667 0)
(0.00523953 0.00142413 0)
(0.00513546 0.0016337 0)
(0.00501739 0.00183425 0)
(0.00488587 0.00202464 0)
(0.00474152 0.00220376 0)
(0.00458502 0.00237055 0)
(0.00441715 0.00252395 0)
(0.0042387 0.00266296 0)
(0.00405057 0.00278661 0)
(0.0038537 0.00289395 0)
(0.00364911 0.0029841 0)
(0.00343787 0.00305621 0)
(0.00322112 0.00310951 0)
(0.00300007 0.00314326 0)
(0.00277598 0.00315682 0)
(0.00255018 0.0031496 0)
(0.00232404 0.0031211 0)
(0.00209902 0.00307091 0)
(0.00187661 0.00299874 0)
(0.00165838 0.00290439 0)
(0.00144592 0.00278778 0)
(0.00124092 0.00264896 0)
(0.00104509 0.00248814 0)
(0.000860187 0.00230565 0)
(0.000688028 0.00210202 0)
(0.00053047 0.00187791 0)
(0.000389407 0.00163421 0)
(0.000266745 0.00137196 0)
(0.000164431 0.00109243 0)
(8.46909e-05 0.000797071 0)
(3.03438e-05 0.000487585 0)
(2.25203e-06 0.000165933 0)
(2.49926e-06 -0.00019766 0)
(3.37434e-05 -0.000580144 0)
(9.42218e-05 -0.000947517 0)
(0.000182963 -0.00129747 0)
(0.000296796 -0.001628 0)
(0.000433186 -0.00193737 0)
(0.000589896 -0.00222407 0)
(0.000764722 -0.00248684 0)
(0.000955467 -0.00272465 0)
(0.00115997 -0.00293669 0)
(0.00137613 -0.00312235 0)
(0.0016019 -0.00328124 0)
(0.00183527 -0.00341317 0)
(0.00207434 -0.0035181 0)
(0.00231725 -0.00359619 0)
(0.00256222 -0.00364773 0)
(0.00280754 -0.0036732 0)
(0.00305161 -0.00367315 0)
(0.00329287 -0.00364831 0)
(0.00352987 -0.00359948 0)
(0.00376123 -0.00352758 0)
(0.00398565 -0.00343361 0)
(0.00420193 -0.00331864 0)
(0.00440894 -0.00318383 0)
(0.00460563 -0.00303036 0)
(0.00479104 -0.00285951 0)
(0.0049643 -0.00267257 0)
(0.0051246 -0.00247086 0)
(0.00527122 -0.00225575 0)
(0.00540353 -0.00202862 0)
(0.00552094 -0.00179087 0)
(0.00562299 -0.00154392 0)
(0.00570925 -0.00128917 0)
(0.00577938 -0.00102806 0)
(0.00583312 -0.00076201 0)
(0.00587027 -0.000492438 0)
(0.0058907 -0.000220762 0)
(0.00589436 5.16101e-05 0)
(0.00588127 0.000323279 0)
(0.00585151 0.000592858 0)
(0.00580523 0.000858972 0)
(0.00574265 0.00112026 0)
(0.00566406 0.00137538 0)
(0.00556982 0.00162301 0)
(0.00546035 0.00186185 0)
(0.00533615 0.0020906 0)
(0.00519777 0.002308 0)
(0.00504583 0.00251282 0)
(0.00488105 0.00270386 0)
(0.00470417 0.00287992 0)
(0.00451605 0.00303986 0)
(0.00431757 0.00318258 0)
(0.00410971 0.00330701 0)
(0.00389352 0.00341212 0)
(0.0036701 0.00349694 0)
(0.00344064 0.00356055 0)
(0.0032064 0.00360209 0)
(0.00296868 0.00362078 0)
(0.00272889 0.00361591 0)
(0.00248848 0.00358685 0)
(0.00224898 0.00353307 0)
(0.002012 0.00345415 0)
(0.00177919 0.00334975 0)
(0.00155229 0.00321969 0)
(0.00133309 0.00306392 0)
(0.00112345 0.0028825 0)
(0.000925291 0.0026757 0)
(0.000740579 0.00244391 0)
(0.000571348 0.00218772 0)
(0.000419674 0.00190792 0)
(0.000287652 0.00160548 0)
(0.000177424 0.00128159 0)
(9.14381e-05 0.00093767 0)
(3.2785e-05 0.000575365 0)
(2.43845e-06 0.000196619 0)
(2.72454e-06 -0.000231837 0)
(3.66061e-05 -0.00067793 0)
(0.000102056 -0.00110412 0)
(0.000197934 -0.00150807 0)
(0.000320715 -0.00188778 0)
(0.000467578 -0.00224154 0)
(0.000636036 -0.0025679 0)
(0.000823645 -0.00286568 0)
(0.00102799 -0.00313392 0)
(0.0012467 -0.00337192 0)
(0.00147747 -0.00357921 0)
(0.00171809 -0.00375553 0)
(0.0019664 -0.00390082 0)
(0.00222034 -0.0040152 0)
(0.00247794 -0.00409899 0)
(0.0027373 -0.00415265 0)
(0.00299664 -0.00417681 0)
(0.00325424 -0.00417222 0)
(0.0035085 -0.00413976 0)
(0.00375791 -0.00408043 0)
(0.00400105 -0.00399531 0)