/*--------------------------------*- C++ -*----------------------------------*\
  =========                 |
  \\      /  F ield         | OpenFOAM: The Open Source CFD Toolbox
   \\    /   O peration     | Website:  https://openfoam.org
    \\  /    A nd           | Version:  12
     \\/     M anipulation  |
\*---------------------------------------------------------------------------*/
FoamFile
{
    format      ascii;
    class       volScalarField;
    location    "3";
    object      nut;
}
// * * * * * * * * * * * * * * * * * * * * * * * * * * * * * * * * * * * * * //

dimensions      [0 2 -1 0 0 0 0];

internalField   nonuniform List<scalar> 
18225
(
4.93484e-15
1.49148e-13
3.16481e-13
5.16822e-13
7.43436e-13
9.91392e-13
1.25726e-12
1.53856e-12
1.83338e-12
2.14017e-12
2.45765e-12
2.78468e-12
3.12025e-12
3.46346e-12
3.81348e-12
4.16952e-12
4.53084e-12
4.89677e-12
5.26662e-12
5.63977e-12
6.01561e-12
6.39352e-12
6.77295e-12
7.15332e-12
7.5341e-12
7.91473e-12
8.2947e-12
8.6735e-12
9.05062e-12
9.42557e-12
9.79788e-12
1.01671e-11
1.05327e-11
1.08942e-11
1.12513e-11
1.16035e-11
1.19504e-11
1.22915e-11
1.26265e-11
1.2955e-11
1.32766e-11
1.35908e-11
1.38975e-11
1.41962e-11
1.44865e-11
1.47682e-11
1.5041e-11
1.53045e-11
1.55585e-11
1.58026e-11
1.60367e-11
1.62604e-11
1.64735e-11
1.66757e-11
1.6867e-11
1.70469e-11
1.72154e-11
1.73723e-11
1.75173e-11
1.76503e-11
1.77712e-11
1.78798e-11
1.7976e-11
1.80596e-11
1.81305e-11
1.81887e-11
1.82341e-11
1.82665e-11
1.8286e-11
1.82924e-11
1.82857e-11
1.82659e-11
1.8233e-11
1.81869e-11
1.81277e-11
1.80554e-11
1.79699e-11
1.78714e-11
1.77599e-11
1.76355e-11
1.74982e-11
1.73482e-11
1.71855e-11
1.70102e-11
1.68226e-11
1.66228e-11
1.64108e-11
1.6187e-11
1.59514e-11
1.57044e-11
1.54462e-11
1.51769e-11
1.48968e-11
1.46064e-11
1.43057e-11
1.39952e-11
1.36751e-11
1.33459e-11
1.30079e-11
1.26614e-11
1.2307e-11
1.1945e-11
1.15758e-11
1.11999e-11
1.08178e-11
1.04301e-11
1.00371e-11
9.6395e-12
9.23782e-12
8.83264e-12
8.42456e-12
8.01421e-12
7.60223e-12
7.18929e-12
6.77608e-12
6.36333e-12
5.95179e-12
5.54223e-12
5.13547e-12
4.73236e-12
4.33379e-12
3.94071e-12
3.55412e-12
3.17509e-12
2.80478e-12
2.44446e-12
2.09555e-12
1.75967e-12
1.43869e-12
1.13494e-12
8.51353e-13
5.91977e-13
3.6255e-13
1.70868e-13
5.65341e-15
3.33892e-14
4.86699e-12
2.60526e-11
6.10935e-11
1.03013e-10
1.48558e-10
1.96623e-10
2.46793e-10
2.98849e-10
3.52631e-10
4.07994e-10
4.64804e-10
5.22932e-10
5.82253e-10
6.42648e-10
7.04e-10
7.66197e-10
8.29132e-10
8.92699e-10
9.56796e-10
1.02132e-09
1.08618e-09
1.15128e-09
1.21652e-09
1.28181e-09
1.34707e-09
1.4122e-09
1.47712e-09
1.54174e-09
1.60598e-09
1.66977e-09
1.73301e-09
1.79563e-09
1.85756e-09
1.91872e-09
1.97904e-09
2.03844e-09
2.09685e-09
2.15421e-09
2.21045e-09
2.26551e-09
2.31931e-09
2.37181e-09
2.42294e-09
2.47265e-09
2.52087e-09
2.56757e-09
2.61267e-09
2.65614e-09
2.69793e-09
2.73799e-09
2.77628e-09
2.81276e-09
2.84738e-09
2.88011e-09
2.91091e-09
2.93975e-09
2.9666e-09
2.99142e-09
3.01419e-09
3.03488e-09
3.05347e-09
3.06994e-09
3.08425e-09
3.09641e-09
3.10638e-09
3.11415e-09
3.11971e-09
3.12304e-09
3.12414e-09
3.12301e-09
3.11963e-09
3.114e-09
3.10612e-09
3.096e-09
3.08363e-09
3.06903e-09
3.05219e-09
3.03312e-09
3.01185e-09
2.98838e-09
2.96272e-09
2.9349e-09
2.90493e-09
2.87285e-09
2.83867e-09
2.80242e-09
2.76414e-09
2.72385e-09
2.6816e-09
2.63742e-09
2.59135e-09
2.54344e-09
2.49374e-09
2.44229e-09
2.38915e-09
2.33438e-09
2.27804e-09
2.22018e-09
2.16087e-09
2.10018e-09
2.03819e-09
1.97497e-09
1.91059e-09
1.84514e-09
1.7787e-09
1.71136e-09
1.64321e-09
1.57435e-09
1.50487e-09
1.43487e-09
1.36446e-09
1.29375e-09
1.22285e-09
1.15187e-09
1.08094e-09
1.01017e-09
9.39698e-10
8.69649e-10
8.00162e-10
7.31378e-10
6.63444e-10
5.96511e-10
5.30738e-10
4.66289e-10
4.03334e-10
3.4205e-10
2.82625e-10
2.25265e-10
1.70246e-10
1.18064e-10
7.00165e-11
2.9852e-11
5.5759e-12
3.82612e-14
7.43581e-14
1.22165e-11
8.37466e-11
2.51544e-10
5.10823e-10
8.35889e-10
1.20326e-09
1.59792e-09
2.01141e-09
2.43913e-09
2.87843e-09
3.32764e-09
3.78561e-09
4.25138e-09
4.72414e-09
5.20315e-09
5.68766e-09
6.17698e-09
6.67042e-09
7.16727e-09
7.66687e-09
8.16854e-09
8.67161e-09
9.17541e-09
9.67929e-09
1.01826e-08
1.06847e-08
1.1185e-08
1.16828e-08
1.21775e-08
1.26685e-08
1.31552e-08
1.36371e-08
1.41135e-08
1.45839e-08
1.50477e-08
1.55044e-08
1.59535e-08
1.63944e-08
1.68266e-08
1.72497e-08
1.76631e-08
1.80665e-08
1.84593e-08
1.88411e-08
1.92115e-08
1.95701e-08
1.99165e-08
2.02503e-08
2.05712e-08
2.08788e-08
2.11728e-08
2.14528e-08
2.17186e-08
2.19699e-08
2.22064e-08
2.24278e-08
2.26339e-08
2.28245e-08
2.29993e-08
2.31582e-08
2.33009e-08
2.34274e-08
2.35374e-08
2.36308e-08
2.37075e-08
2.37673e-08
2.38102e-08
2.3836e-08
2.38448e-08
2.38364e-08
2.38108e-08
2.3768e-08
2.3708e-08
2.36307e-08
2.35362e-08
2.34246e-08
2.32958e-08
2.315e-08
2.29872e-08
2.28076e-08
2.26112e-08
2.23982e-08
2.21687e-08
2.1923e-08
2.16611e-08
2.13834e-08
2.109e-08
2.07812e-08
2.04572e-08
2.01185e-08
1.97651e-08
1.93976e-08
1.90162e-08
1.86214e-08
1.82135e-08
1.77929e-08
1.73601e-08
1.69155e-08
1.64597e-08
1.59932e-08
1.55164e-08
1.503e-08
1.45345e-08
1.40305e-08
1.35187e-08
1.29997e-08
1.24741e-08
1.19428e-08
1.14063e-08
1.08654e-08
1.0321e-08
9.77368e-09
9.22437e-09
8.67385e-09
8.12299e-09
7.57263e-09
7.02366e-09
6.477e-09
5.93356e-09
5.39431e-09
4.86022e-09
4.33233e-09
3.81177e-09
3.29979e-09
2.79796e-09
2.30839e-09
1.83436e-09
1.38143e-09
9.59557e-10
5.86232e-10
2.88569e-10
9.60437e-11
1.40092e-11
8.5292e-14
1.23229e-13
2.07579e-11
1.52096e-10
5.03251e-10
1.13363e-09
2.03745e-09
3.16892e-09
4.47278e-09
5.90152e-09
7.42e-09
9.00408e-09
1.06376e-08
1.23096e-08
1.40127e-08
1.57414e-08
1.74915e-08
1.92596e-08
2.10429e-08
2.28387e-08
2.46446e-08
2.64581e-08
2.8277e-08
3.0099e-08
3.1922e-08
3.37437e-08
3.5562e-08
3.73746e-08
3.91794e-08
4.09743e-08
4.27572e-08
4.4526e-08
4.62787e-08
4.80131e-08
4.97273e-08
5.14194e-08
5.30873e-08
5.47293e-08
5.63433e-08
5.79277e-08
5.94806e-08
6.10003e-08
6.24851e-08
6.39334e-08
6.53436e-08
6.67141e-08
6.80435e-08
6.93304e-08
7.05733e-08
7.17709e-08
7.29219e-08
7.40252e-08
7.50795e-08
7.60838e-08
7.70368e-08
7.79378e-08
7.87856e-08
7.95794e-08
8.03183e-08
8.10015e-08
8.16283e-08
8.2198e-08
8.27099e-08
8.31634e-08
8.3558e-08
8.38931e-08
8.41684e-08
8.43834e-08
8.45378e-08
8.46312e-08
8.46635e-08
8.46345e-08
8.45441e-08
8.43919e-08
8.41781e-08
8.39027e-08
8.35657e-08
8.31672e-08
8.27075e-08
8.21868e-08
8.16053e-08
8.09634e-08
8.02614e-08
7.95e-08
7.86795e-08
7.78005e-08
7.68638e-08
7.587e-08
7.482e-08
7.37145e-08
7.25545e-08
7.1341e-08
7.00751e-08
6.87578e-08
6.73904e-08
6.59743e-08
6.45107e-08
6.30011e-08
6.1447e-08
5.985e-08
5.82117e-08
5.6534e-08
5.48186e-08
5.30675e-08
5.12826e-08
4.94659e-08
4.76197e-08
4.57461e-08
4.38473e-08
4.19258e-08
3.9984e-08
3.80242e-08
3.60492e-08
3.40615e-08
3.20639e-08
3.0059e-08
2.80499e-08
2.60395e-08
2.40309e-08
2.20273e-08
2.00325e-08
1.80504e-08
1.60855e-08
1.41434e-08
1.22312e-08
1.03585e-08
8.53891e-09
6.79217e-09
5.14724e-09
3.64565e-09
2.34289e-09
1.3029e-09
5.78142e-10
1.74688e-10
2.38417e-11
1.41577e-13
1.77882e-13
3.02221e-11
2.26871e-10
7.81333e-10
1.85147e-09
3.51368e-09
5.75988e-09
8.52451e-09
1.17177e-08
1.52494e-08
1.9042e-08
2.30337e-08
2.71774e-08
3.14378e-08
3.57889e-08
4.0211e-08
4.46888e-08
4.92106e-08
5.37663e-08
5.83478e-08
6.29476e-08
6.75591e-08
7.21761e-08
7.67928e-08
8.14034e-08
8.60025e-08
9.05848e-08
9.51449e-08
9.96776e-08
1.04178e-07
1.0864e-07
1.1306e-07
1.17432e-07
1.21752e-07
1.26014e-07
1.30215e-07
1.34348e-07
1.3841e-07
1.42397e-07
1.46303e-07
1.50125e-07
1.53859e-07
1.575e-07
1.61044e-07
1.64488e-07
1.67828e-07
1.71061e-07
1.74183e-07
1.7719e-07
1.80081e-07
1.82851e-07
1.85498e-07
1.88018e-07
1.90411e-07
1.92672e-07
1.948e-07
1.96792e-07
1.98646e-07
2.00361e-07
2.01934e-07
2.03364e-07
2.04649e-07
2.05787e-07
2.06778e-07
2.0762e-07
2.08313e-07
2.08854e-07
2.09243e-07
2.0948e-07
2.09564e-07
2.09495e-07
2.09272e-07
2.08894e-07
2.08362e-07
2.07676e-07
2.06836e-07
2.05841e-07
2.04694e-07
2.03393e-07
2.0194e-07
2.00336e-07
1.98581e-07
1.96676e-07
1.94624e-07
1.92424e-07
1.90079e-07
1.87591e-07
1.84961e-07
1.82191e-07
1.79284e-07
1.76241e-07
1.73065e-07
1.6976e-07
1.66327e-07
1.62771e-07
1.59093e-07
1.55298e-07
1.51389e-07
1.47369e-07
1.43244e-07
1.39016e-07
1.34691e-07
1.30272e-07
1.25765e-07
1.21174e-07
1.16505e-07
1.11762e-07
1.06951e-07
1.02078e-07
9.71488e-08
9.21691e-08
8.71455e-08
8.20846e-08
7.69934e-08
7.18794e-08
6.67505e-08
6.16155e-08
5.64841e-08
5.13676e-08
4.62789e-08
4.1234e-08
3.62527e-08
3.13605e-08
2.65906e-08
2.19868e-08
1.76069e-08
1.35256e-08
9.83524e-09
6.64158e-09
4.04895e-09
2.1323e-09
8.99488e-10
2.61139e-10
3.47894e-11
2.04827e-13
2.36993e-13
4.04198e-11
3.06778e-10
1.07688e-09
2.6192e-09
5.12572e-09
8.6819e-09
1.32726e-08
1.88103e-08
2.51692e-08
3.22129e-08
3.98128e-08
4.78565e-08
5.62505e-08
6.49194e-08
7.3803e-08
8.28536e-08
9.2033e-08
1.01311e-07
1.10661e-07
1.20063e-07
1.29498e-07
1.3895e-07
1.48403e-07
1.57846e-07
1.67265e-07
1.76648e-07
1.85984e-07
1.95262e-07
2.04471e-07
2.136e-07
2.2264e-07
2.3158e-07
2.4041e-07
2.49121e-07
2.57703e-07
2.66147e-07
2.74443e-07
2.82583e-07
2.90557e-07
2.98358e-07
3.05977e-07
3.13405e-07
3.20636e-07
3.27661e-07
3.34473e-07
3.41065e-07
3.4743e-07
3.53562e-07
3.59454e-07
3.65101e-07
3.70496e-07
3.75633e-07
3.80509e-07
3.85117e-07
3.89454e-07
3.93514e-07
3.97294e-07
4.00789e-07
4.03996e-07
4.06912e-07
4.09533e-07
4.11857e-07
4.1388e-07
4.15601e-07
4.17018e-07
4.18127e-07
4.18929e-07
4.1942e-07
4.19601e-07
4.1947e-07
4.19027e-07
4.1827e-07
4.17199e-07
4.15815e-07
4.14118e-07
4.12108e-07
4.09785e-07
4.07152e-07
4.04208e-07
4.00956e-07
3.97398e-07
3.93535e-07
3.89369e-07
3.84904e-07
3.80142e-07
3.75086e-07
3.6974e-07
3.64107e-07
3.58192e-07
3.52e-07
3.45534e-07
3.388e-07
3.31804e-07
3.24551e-07
3.17047e-07
3.09299e-07
3.01314e-07
2.93098e-07
2.84661e-07
2.76009e-07
2.6715e-07
2.58095e-07
2.48851e-07
2.39429e-07
2.29838e-07
2.2009e-07
2.10195e-07
2.00165e-07
1.90013e-07
1.79751e-07
1.69395e-07
1.58958e-07
1.48459e-07
1.37915e-07
1.27348e-07
1.16783e-07
1.06246e-07
9.57729e-08
8.54032e-08
7.51873e-08
6.5187e-08
5.54793e-08
4.6159e-08
3.7342e-08
2.91654e-08
2.17842e-08
1.536e-08
1.00396e-08
5.92304e-09
3.02488e-09
1.24323e-09
3.5413e-10
4.66633e-11
2.73687e-13
2.99598e-13
5.12e-11
3.9085e-10
1.38612e-09
3.42071e-09
6.81598e-09
1.17822e-08
1.84029e-08
2.66475e-08
3.64014e-08
4.74999e-08
5.97576e-08
7.29905e-08
8.70287e-08
1.01722e-07
1.16943e-07
1.32584e-07
1.48554e-07
1.64782e-07
1.81203e-07
1.97767e-07
2.1443e-07
2.31154e-07
2.47906e-07
2.64655e-07
2.81375e-07
2.98041e-07
3.1463e-07
3.31119e-07
3.47489e-07
3.63719e-07
3.7979e-07
3.95683e-07
4.11381e-07
4.26865e-07
4.4212e-07
4.57127e-07
4.71871e-07
4.86335e-07
5.00505e-07
5.14365e-07
5.279e-07
5.41097e-07
5.53941e-07
5.66419e-07
5.78519e-07
5.90228e-07
6.01533e-07
6.12423e-07
6.22888e-07
6.32916e-07
6.42498e-07
6.51624e-07
6.60285e-07
6.68472e-07
6.76177e-07
6.83393e-07
6.90111e-07
6.96326e-07
7.0203e-07
7.07219e-07
7.11886e-07
7.16026e-07
7.19635e-07
7.22709e-07
7.25243e-07
7.27235e-07
7.28681e-07
7.2958e-07
7.29928e-07
7.29725e-07
7.28969e-07
7.27658e-07
7.25791e-07
7.23369e-07
7.20392e-07
7.16861e-07
7.12777e-07
7.08141e-07
7.02955e-07
6.97221e-07
6.90943e-07
6.84123e-07
6.76766e-07
6.68874e-07
6.60454e-07
6.5151e-07
6.42048e-07
6.32074e-07
6.21595e-07
6.10618e-07
5.99151e-07
5.87202e-07
5.7478e-07
5.61896e-07
5.48558e-07
5.34779e-07
5.2057e-07
5.05942e-07
4.9091e-07
4.75486e-07
4.59686e-07
4.43524e-07
4.27018e-07
4.10184e-07
3.93041e-07
3.75608e-07
3.57908e-07
3.39962e-07
3.21796e-07
3.03437e-07
2.84914e-07
2.66262e-07
2.47519e-07
2.28727e-07
2.09937e-07
1.91208e-07
1.72609e-07
1.54222e-07
1.36144e-07
1.18494e-07
1.01409e-07
8.50535e-08
6.9617e-08
5.53101e-08
4.23577e-08
3.09818e-08
2.13768e-08
1.3674e-08
7.90423e-09
3.96453e-09
1.60594e-09
4.52788e-10
5.93197e-11
3.47219e-13
3.64921e-13
6.24369e-11
4.78236e-10
1.70626e-09
4.24759e-09
8.55823e-09
1.49877e-08
2.37463e-08
3.49014e-08
4.83962e-08
6.40805e-08
8.17455e-08
1.01154e-07
1.22063e-07
1.44241e-07
1.67476e-07
1.9158e-07
2.16389e-07
2.41761e-07
2.67576e-07
2.93728e-07
3.2013e-07
3.46705e-07
3.73385e-07
4.0011e-07
4.2683e-07
4.53495e-07
4.80063e-07
5.06494e-07
5.3275e-07
5.58795e-07
5.84596e-07
6.10121e-07
6.35338e-07
6.60217e-07
6.84731e-07
7.08852e-07
7.32551e-07
7.55804e-07
7.78585e-07
8.00869e-07
8.22634e-07
8.43855e-07
8.64511e-07
8.8458e-07
9.04041e-07
9.22875e-07
9.41062e-07
9.58584e-07
9.75423e-07
9.91563e-07
1.00699e-06
1.02168e-06
1.03563e-06
1.04881e-06
1.06123e-06
1.07286e-06
1.08369e-06
1.09372e-06
1.10293e-06
1.11131e-06
1.11886e-06
1.12556e-06
1.13141e-06
1.13641e-06
1.14054e-06
1.1438e-06
1.14618e-06
1.14769e-06
1.14831e-06
1.14806e-06
1.14691e-06
1.14488e-06
1.14195e-06
1.13813e-06
1.13342e-06
1.12782e-06
1.12133e-06
1.11396e-06
1.1057e-06
1.09656e-06
1.08654e-06
1.07564e-06
1.06388e-06
1.05126e-06
1.03779e-06
1.02346e-06
1.0083e-06
9.9231e-07
9.75498e-07
9.57878e-07
9.39461e-07
9.20259e-07
9.00286e-07
8.79558e-07
8.58089e-07
8.35897e-07
8.13001e-07
7.89418e-07
7.65171e-07
7.40281e-07
7.14772e-07
6.8867e-07
6.62002e-07
6.34799e-07
6.07092e-07
5.78917e-07
5.50312e-07
5.2132e-07
4.91989e-07
4.6237e-07
4.32524e-07
4.02518e-07
3.72431e-07
3.4235e-07
3.12379e-07
2.82637e-07
2.53263e-07
2.2442e-07
1.96297e-07
1.69111e-07
1.43107e-07
1.18558e-07
9.57564e-08
7.50046e-08
5.65922e-08
4.07689e-08
2.77085e-08
1.74708e-08
9.96763e-09
4.94398e-09
1.98527e-09
5.56373e-10
7.26445e-11
4.24712e-13
4.32311e-13
7.40216e-11
5.68165e-10
2.03479e-09
5.09353e-09
1.03367e-08
1.82588e-08
2.92109e-08
4.3383e-08
6.08098e-08
8.13945e-08
1.04942e-07
1.31191e-07
1.59848e-07
1.90611e-07
2.23182e-07
2.57285e-07
2.92667e-07
3.29102e-07
3.66389e-07
4.04353e-07
4.4284e-07
4.81716e-07
5.20862e-07
5.60173e-07
5.99557e-07
6.3893e-07
6.78216e-07
7.17346e-07
7.56257e-07
7.94888e-07
8.33186e-07
8.71098e-07
9.08573e-07
9.45565e-07
9.82029e-07
1.01792e-06
1.0532e-06
1.08783e-06
1.12176e-06
1.15496e-06
1.1874e-06
1.21904e-06
1.24984e-06
1.27977e-06
1.3088e-06
1.3369e-06
1.36405e-06
1.39021e-06
1.41536e-06
1.43947e-06
1.46252e-06
1.48449e-06
1.50535e-06
1.52508e-06
1.54366e-06
1.56109e-06
1.57732e-06
1.59236e-06
1.60619e-06
1.61879e-06
1.63015e-06
1.64025e-06
1.64909e-06
1.65665e-06
1.66293e-06
1.66792e-06
1.67161e-06
1.67399e-06
1.67506e-06
1.67481e-06
1.67324e-06
1.67035e-06
1.66613e-06
1.66058e-06
1.6537e-06
1.64549e-06
1.63596e-06
1.6251e-06
1.61292e-06
1.59942e-06
1.58461e-06
1.56849e-06
1.55107e-06
1.53235e-06
1.51236e-06
1.49109e-06
1.46856e-06
1.44478e-06
1.41977e-06
1.39354e-06
1.3661e-06
1.33748e-06
1.3077e-06
1.27677e-06
1.24472e-06
1.21157e-06
1.17736e-06
1.1421e-06
1.10584e-06
1.06861e-06
1.03044e-06
9.91375e-07
9.51463e-07
9.10751e-07
8.69293e-07
8.27151e-07
7.8439e-07
7.41087e-07
6.97325e-07
6.53197e-07
6.08811e-07
5.64289e-07
5.1977e-07
4.75417e-07
4.31413e-07
3.87971e-07
3.45329e-07
3.03761e-07
2.63572e-07
2.25099e-07
1.88707e-07
1.54778e-07
1.23701e-07
9.58409e-08
7.15154e-08
5.09552e-08
3.42664e-08
2.13943e-08
1.21002e-08
5.95832e-09
2.37924e-09
6.64242e-10
8.65439e-11
5.05595e-13
5.01192e-13
8.58578e-11
6.59932e-10
2.36935e-09
5.95287e-09
1.21392e-08
2.15692e-08
3.47405e-08
5.19783e-08
7.34298e-08
9.9079e-08
1.28775e-07
1.62265e-07
1.99231e-07
2.39317e-07
2.82154e-07
3.27383e-07
3.74658e-07
4.23661e-07
4.74102e-07
5.25717e-07
5.78273e-07
6.31561e-07
6.85396e-07
7.3961e-07
7.94057e-07
8.48602e-07
9.03126e-07
9.57519e-07
1.01168e-06
1.06552e-06
1.11894e-06
1.17188e-06
1.22425e-06
1.27598e-06
1.327e-06
1.37725e-06
1.42667e-06
1.4752e-06
1.52278e-06
1.56935e-06
1.61487e-06
1.65929e-06
1.70254e-06
1.7446e-06
1.78541e-06
1.82493e-06
1.86312e-06
1.89994e-06
1.93535e-06
1.96932e-06
2.00181e-06
2.03279e-06
2.06223e-06
2.0901e-06
2.11636e-06
2.141e-06
2.16399e-06
2.18531e-06
2.20493e-06
2.22283e-06
2.23899e-06
2.2534e-06
2.26604e-06
2.2769e-06
2.28596e-06
2.2932e-06
2.29862e-06
2.30221e-06
2.30396e-06
2.30386e-06
2.30191e-06
2.29809e-06
2.29241e-06
2.28486e-06
2.27543e-06
2.26414e-06
2.25098e-06
2.23595e-06
2.21905e-06
2.20029e-06
2.17968e-06
2.15722e-06
2.13293e-06
2.1068e-06
2.07886e-06
2.04911e-06
2.01757e-06
1.98425e-06
1.94919e-06
1.91238e-06
1.87387e-06
1.83367e-06
1.79181e-06
1.74832e-06
1.70323e-06
1.65658e-06
1.60841e-06
1.55876e-06
1.50769e-06
1.45523e-06
1.40146e-06
1.34642e-06
1.2902e-06
1.23287e-06
1.17451e-06
1.11523e-06
1.05512e-06
9.94323e-07
9.32968e-07
8.71213e-07
8.09237e-07
7.47242e-07
6.85455e-07
6.24134e-07
5.63573e-07
5.04098e-07
4.46076e-07
3.89907e-07
3.3603e-07
2.8491e-07
2.37027e-07
1.92864e-07
1.52875e-07
1.17459e-07
8.69223e-08
6.1436e-08
4.10021e-08
2.54236e-08
1.4293e-08
7.00336e-09
2.78604e-09
7.75825e-10
1.00938e-10
5.89389e-13
5.71049e-13
9.78579e-11
7.52888e-10
2.70773e-09
6.82034e-09
1.3955e-08
2.4898e-08
4.02948e-08
6.06108e-08
8.61168e-08
1.16895e-07
1.5286e-07
1.93792e-07
2.39373e-07
2.89216e-07
3.42898e-07
3.99987e-07
4.60054e-07
5.22687e-07
5.87503e-07
6.54147e-07
7.22293e-07
7.91647e-07
8.61944e-07
9.32944e-07
1.00443e-06
1.07621e-06
1.1481e-06
1.21995e-06
1.2916e-06
1.36292e-06
1.43378e-06
1.50407e-06
1.57367e-06
1.64249e-06
1.71043e-06
1.77739e-06
1.84329e-06
1.90803e-06
1.97156e-06
2.03378e-06
2.09463e-06
2.15403e-06
2.21192e-06
2.26823e-06
2.3229e-06
2.37588e-06
2.4271e-06
2.47652e-06
2.52407e-06
2.56972e-06
2.61341e-06
2.6551e-06
2.69474e-06
2.7323e-06
2.76773e-06
2.80101e-06
2.83209e-06
2.86094e-06
2.88754e-06
2.91185e-06
2.93385e-06
2.95351e-06
2.97081e-06
2.98572e-06
2.99824e-06
3.00833e-06
3.01599e-06
3.02119e-06
3.02393e-06
3.0242e-06
3.02199e-06
3.01728e-06
3.01006e-06
3.00034e-06
2.9881e-06
2.97336e-06
2.95609e-06
2.93631e-06
2.91403e-06
2.88923e-06
2.86194e-06
2.83215e-06
2.79988e-06
2.76513e-06
2.72793e-06
2.68829e-06
2.64622e-06
2.60176e-06
2.55491e-06
2.50571e-06
2.45419e-06
2.40038e-06
2.34431e-06
2.28604e-06
2.22559e-06
2.16303e-06
2.09841e-06
2.03179e-06
1.96323e-06
1.89282e-06
1.82063e-06
1.74678e-06
1.67135e-06
1.59446e-06
1.51626e-06
1.43689e-06
1.35651e-06
1.27531e-06
1.19352e-06
1.11135e-06
1.02909e-06
9.47036e-07
8.6553e-07
7.84952e-07
7.05723e-07
6.28307e-07
5.53211e-07
4.80978e-07
4.12181e-07
3.47407e-07
2.87242e-07
2.32244e-07
1.82911e-07
1.39639e-07
1.0269e-07
7.2148e-08
4.78846e-08
2.95436e-08
1.65382e-08
8.07527e-09
3.20399e-09
8.90613e-10
1.15756e-10
6.75676e-13
6.4141e-13
1.09942e-10
8.46432e-10
3.04784e-09
7.69088e-09
1.5774e-08
2.82268e-08
4.58409e-08
6.92228e-08
9.8771e-08
1.34674e-07
1.76928e-07
2.25361e-07
2.79674e-07
3.39469e-07
4.04288e-07
4.73638e-07
5.47018e-07
6.23932e-07
7.03906e-07
7.86489e-07
8.71265e-07
9.57847e-07
1.04588e-06
1.13505e-06
1.22506e-06
1.31564e-06
1.40655e-06
1.49756e-06
1.58848e-06
1.67911e-06
1.76928e-06
1.85882e-06
1.9476e-06
2.03546e-06
2.12228e-06
2.20793e-06
2.29229e-06
2.37524e-06
2.45669e-06
2.53653e-06
2.61465e-06
2.69098e-06
2.76541e-06
2.83787e-06
2.90827e-06
2.97653e-06
3.04258e-06
3.10634e-06
3.16775e-06
3.22675e-06
3.28326e-06
3.33723e-06
3.3886e-06
3.43732e-06
3.48333e-06
3.52659e-06
3.56706e-06
3.60468e-06
3.63942e-06
3.67123e-06
3.70009e-06
3.72595e-06
3.74879e-06
3.76857e-06
3.78527e-06
3.79886e-06
3.80933e-06
3.81664e-06
3.82078e-06
3.82173e-06
3.8195e-06
3.81404e-06
3.80535e-06
3.79341e-06
3.77823e-06
3.7598e-06
3.73811e-06
3.71317e-06
3.68498e-06
3.65353e-06
3.61883e-06
3.5809e-06
3.53973e-06
3.49535e-06
3.44778e-06
3.39702e-06
3.3431e-06
3.28605e-06
3.2259e-06
3.16268e-06
3.09642e-06
3.02718e-06
2.955e-06
2.87994e-06
2.80205e-06
2.72141e-06
2.63808e-06
2.55217e-06
2.46375e-06
2.37295e-06
2.27988e-06
2.18466e-06
2.08747e-06
1.98846e-06
1.88783e-06
1.78578e-06
1.68258e-06
1.57847e-06
1.47377e-06
1.36882e-06
1.264e-06
1.15974e-06
1.05651e-06
9.54823e-07
8.55251e-07
7.58408e-07
6.64947e-07
5.75554e-07
4.90934e-07
4.11786e-07
3.38785e-07
2.72542e-07
2.13568e-07
1.62237e-07
1.18739e-07
8.30479e-08
5.48908e-08
3.37417e-08
1.8829e-08
9.1704e-09
3.63151e-09
1.00814e-09
1.30936e-10
7.64087e-13
7.11843e-13
1.22036e-10
9.40003e-10
3.38774e-09
8.55971e-09
1.75865e-08
3.15384e-08
5.13499e-08
7.77664e-08
1.11314e-07
1.52292e-07
2.00781e-07
2.56673e-07
3.19696e-07
3.89459e-07
4.65483e-07
5.47228e-07
6.34133e-07
7.25628e-07
8.21152e-07
9.20169e-07
1.02217e-06
1.12667e-06
1.23324e-06
1.34146e-06
1.45096e-06
1.5614e-06
1.67245e-06
1.78384e-06
1.89529e-06
2.00655e-06
2.1174e-06
2.22763e-06
2.33704e-06
2.44544e-06
2.55266e-06
2.65854e-06
2.76292e-06
2.86566e-06
2.96661e-06
3.06566e-06
3.16266e-06
3.2575e-06
3.35006e-06
3.44024e-06
3.52793e-06
3.61302e-06
3.69542e-06
3.77505e-06
3.8518e-06
3.9256e-06
3.99636e-06
4.06401e-06
4.12847e-06
4.18968e-06
4.24756e-06
4.30205e-06
4.3531e-06
4.40064e-06
4.44462e-06
4.48499e-06
4.5217e-06
4.5547e-06
4.58396e-06
4.60943e-06
4.63107e-06
4.64886e-06
4.66275e-06
4.67272e-06
4.67874e-06
4.68078e-06
4.67885e-06
4.6729e-06
4.6629e-06
4.64885e-06
4.63074e-06
4.60855e-06
4.58229e-06
4.55194e-06
4.5175e-06
4.47898e-06
4.43637e-06
4.38969e-06
4.33895e-06
4.28415e-06
4.22532e-06
4.16248e-06
4.09566e-06
4.02487e-06
3.95017e-06
3.8716e-06
3.78919e-06
3.70302e-06
3.61313e-06
3.5196e-06
3.42251e-06
3.32195e-06
3.21803e-06
3.11086e-06
3.00056e-06
2.88728e-06
2.7712e-06
2.65248e-06
2.53135e-06
2.40803e-06
2.28279e-06
2.15592e-06
2.02776e-06
1.89867e-06
1.76906e-06
1.63941e-06
1.51021e-06
1.38203e-06
1.2555e-06
1.13128e-06
1.01009e-06
8.92704e-07
7.79928e-07
6.72586e-07
5.71504e-07
4.77483e-07
3.91267e-07
3.13498e-07
2.44686e-07
1.85156e-07
1.35012e-07
9.4102e-08
6.20009e-08
3.80062e-08
2.11585e-08
1.02853e-08
4.06717e-09
1.12798e-09
1.46422e-10
8.54285e-13
7.81947e-13
1.34072e-10
1.03308e-09
3.72558e-09
9.4223e-09
1.93835e-08
3.48167e-08
5.67951e-08
8.61991e-08
1.2368e-07
1.69645e-07
2.24266e-07
2.87498e-07
3.5911e-07
4.38724e-07
5.25848e-07
6.19917e-07
7.20312e-07
8.26402e-07
9.37551e-07
1.05314e-06
1.17257e-06
1.29527e-06
1.42072e-06
1.54842e-06
1.67792e-06
1.80879e-06
1.94063e-06
2.07309e-06
2.20584e-06
2.33856e-06
2.47097e-06
2.6028e-06
2.7338e-06
2.86375e-06
2.99242e-06
3.11961e-06
3.24513e-06
3.36879e-06
3.49041e-06
3.60984e-06
3.72691e-06
3.84147e-06
3.95338e-06
4.06251e-06
4.16871e-06
4.27187e-06
4.37186e-06
4.46857e-06
4.56189e-06
4.65171e-06
4.73792e-06
4.82044e-06
4.89916e-06
4.974e-06
5.04488e-06
5.11171e-06
5.17442e-06
5.23292e-06
5.28716e-06
5.33707e-06
5.38257e-06
5.42362e-06
5.46016e-06
5.49213e-06
5.51949e-06
5.54218e-06
5.56017e-06
5.57341e-06
5.58187e-06
5.5855e-06
5.5843e-06
5.57824e-06
5.56724e-06
5.55132e-06
5.53044e-06
5.50461e-06
5.47379e-06
5.43798e-06
5.39718e-06
5.35138e-06
5.30059e-06
5.2448e-06
5.18403e-06
5.11829e-06
5.0476e-06
4.97199e-06
4.89148e-06
4.8061e-06
4.71592e-06
4.62097e-06
4.52131e-06
4.41701e-06
4.30816e-06
4.19484e-06
4.07715e-06
3.95521e-06
3.82916e-06
3.69915e-06
3.56533e-06
3.42792e-06
3.28711e-06
3.14317e-06
2.99635e-06
2.84698e-06
2.69539e-06
2.54198e-06
2.38718e-06
2.23148e-06
2.0754e-06
1.91955e-06
1.76457e-06
1.61119e-06
1.46018e-06
1.31236e-06
1.16863e-06
1.0299e-06
8.97142e-07
7.71301e-07
6.53322e-07
5.44092e-07
4.44405e-07
3.54927e-07
2.76143e-07
2.0832e-07
1.51461e-07
1.05281e-07
6.91968e-08
4.23259e-08
2.35205e-08
1.14167e-08
4.50958e-09
1.24975e-09
1.62159e-10
9.45963e-13
8.51349e-13
1.45986e-10
1.12518e-09
4.05962e-09
1.02744e-08
2.11565e-08
3.80464e-08
6.21516e-08
9.44822e-08
1.3581e-07
1.86648e-07
2.47256e-07
3.17654e-07
3.97656e-07
4.86902e-07
5.84898e-07
6.91056e-07
8.04717e-07
9.25192e-07
1.05178e-06
1.18379e-06
1.32053e-06
1.46137e-06
1.60568e-06
1.7529e-06
1.90248e-06
2.05391e-06
2.20674e-06
2.36053e-06
2.51487e-06
2.6694e-06
2.82378e-06
2.97767e-06
3.13077e-06
3.28281e-06
3.43352e-06
3.58266e-06
3.72997e-06
3.87525e-06
4.01827e-06
4.15885e-06
4.29678e-06
4.43189e-06
4.56399e-06
4.69293e-06
4.81854e-06
4.94067e-06
5.05917e-06
5.1739e-06
5.28472e-06
5.3915e-06
5.49413e-06
5.59247e-06
5.68642e-06
5.77585e-06
5.86068e-06
5.94079e-06
6.0161e-06
6.0865e-06
6.1519e-06
6.21224e-06
6.26742e-06
6.31736e-06
6.36201e-06
6.40128e-06
6.43512e-06
6.46345e-06
6.48623e-06
6.5034e-06
6.51491e-06
6.52071e-06
6.52077e-06
6.51508e-06
6.50352e-06
6.48609e-06
6.46277e-06
6.43354e-06
6.39837e-06
6.35725e-06
6.31016e-06
6.2571e-06
6.19806e-06
6.13304e-06
6.06205e-06
5.9851e-06
5.90222e-06
5.81342e-06
5.71875e-06
5.61823e-06
5.51194e-06
5.39991e-06
5.28224e-06
5.15899e-06
5.03027e-06
4.89619e-06
4.75687e-06
4.61247e-06
4.46315e-06
4.30911e-06
4.15056e-06
3.98773e-06
3.82092e-06
3.65044e-06
3.47662e-06
3.29987e-06
3.12063e-06
2.93939e-06
2.7567e-06
2.57316e-06
2.38945e-06
2.20632e-06
2.02455e-06
1.84503e-06
1.6687e-06
1.49655e-06
1.32963e-06
1.16902e-06
1.01582e-06
8.71123e-07
7.35963e-07
6.11306e-07
4.97989e-07
3.96685e-07
3.07846e-07
2.31667e-07
1.68046e-07
1.1656e-07
7.64613e-08
4.66902e-08
2.59086e-08
1.25614e-08
4.95745e-09
1.37306e-09
1.781e-10
1.03883e-12
9.19705e-13
1.57719e-10
1.21584e-09
4.38827e-09
1.11119e-08
2.28971e-08
4.12131e-08
6.7396e-08
1.0258e-07
1.4765e-07
2.03223e-07
2.6964e-07
3.46987e-07
4.35121e-07
5.33704e-07
6.42245e-07
7.60137e-07
8.86692e-07
1.02117e-06
1.16281e-06
1.31085e-06
1.46454e-06
1.62316e-06
1.78601e-06
1.95244e-06
2.12183e-06
2.29361e-06
2.46723e-06
2.6422e-06
2.81805e-06
2.99434e-06
3.17066e-06
3.34664e-06
3.52193e-06
3.69618e-06
3.8691e-06
4.04038e-06
4.20975e-06
4.37694e-06
4.54171e-06
4.70381e-06
4.86302e-06
5.01912e-06
5.1719e-06
5.32118e-06
5.46675e-06
5.60843e-06
5.74605e-06
5.87943e-06
6.00843e-06
6.13287e-06
6.25261e-06
6.36751e-06
6.47742e-06
6.58222e-06
6.68177e-06
6.77595e-06
6.86463e-06
6.94772e-06
7.0251e-06
7.09665e-06
7.1623e-06
7.22193e-06
7.27545e-06
7.32279e-06
7.36385e-06
7.39857e-06
7.42685e-06
7.44864e-06
7.46387e-06
7.47248e-06
7.47438e-06
7.46965e-06
7.45805e-06
7.43962e-06
7.41432e-06
7.38211e-06
7.34295e-06
7.29683e-06
7.24372e-06
7.18361e-06
7.11648e-06
7.04233e-06
6.96117e-06
6.873e-06
6.77784e-06
6.67573e-06
6.5667e-06
6.45079e-06
6.32806e-06
6.19858e-06
6.06244e-06
5.91974e-06
5.7706e-06
5.61515e-06
5.45354e-06
5.28596e-06
5.11262e-06
4.93375e-06
4.74961e-06
4.56051e-06
4.3668e-06
4.16886e-06
3.96712e-06
3.76208e-06
3.55427e-06
3.3443e-06
3.13284e-06
2.92064e-06
2.70851e-06
2.49734e-06
2.28809e-06
2.08182e-06
1.87961e-06
1.68265e-06
1.49213e-06
1.3093e-06
1.13539e-06
9.71606e-07
8.191e-07
6.7889e-07
5.51853e-07
4.38657e-07
3.39715e-07
2.55143e-07
1.84729e-07
1.27911e-07
8.37778e-08
5.10886e-08
2.8317e-08
1.37165e-08
5.40955e-09
1.49757e-09
1.94199e-10
1.13263e-12
9.86701e-13
1.69217e-10
1.30466e-09
4.71003e-09
1.19312e-08
2.4598e-08
4.43034e-08
7.25064e-08
1.10458e-07
1.59153e-07
2.19301e-07
2.91322e-07
3.75365e-07
4.71326e-07
5.78891e-07
6.97573e-07
8.26751e-07
9.65712e-07
1.11367e-06
1.26981e-06
1.43333e-06
1.60339e-06
1.77921e-06
1.96002e-06
2.1451e-06
2.33376e-06
2.52535e-06
2.71927e-06
2.91494e-06
3.11185e-06
3.30948e-06
3.50739e-06
3.70513e-06
3.9023e-06
4.09853e-06
4.29345e-06
4.48672e-06
4.67803e-06
4.86707e-06
5.05355e-06
5.2372e-06
5.41776e-06
5.59497e-06
5.7686e-06
5.93841e-06
6.10418e-06
6.26571e-06
6.42277e-06
6.57519e-06
6.72276e-06
6.8653e-06
7.00264e-06
7.1346e-06
7.26102e-06
7.38174e-06
7.49661e-06
7.60547e-06
7.70818e-06
7.80462e-06
7.89464e-06
7.97811e-06
8.05492e-06
8.12495e-06
8.18807e-06
8.2442e-06
8.29322e-06
8.33502e-06
8.36953e-06
8.39665e-06
8.41629e-06
8.42838e-06
8.43281e-06
8.42967e-06
8.41867e-06
8.39984e-06
8.37312e-06
8.33846e-06
8.29583e-06
8.24518e-06
8.18649e-06
8.11972e-06
8.04485e-06
7.96189e-06
7.87081e-06
7.77164e-06
7.66439e-06
7.54908e-06
7.42575e-06
7.29446e-06
7.15527e-06
7.00826e-06
6.85352e-06
6.69119e-06
6.52138e-06
6.34427e-06
6.16004e-06
5.96892e-06
5.77114e-06
5.56698e-06
5.35679e-06
5.14091e-06
4.91977e-06
4.69382e-06
4.46361e-06
4.2297e-06
3.99276e-06
3.75351e-06
3.51275e-06
3.27137e-06
3.03033e-06
2.79068e-06
2.55355e-06
2.32015e-06
2.09176e-06
1.8697e-06
1.65536e-06
1.45012e-06
1.25536e-06
1.0724e-06
9.02462e-07
7.46648e-07
6.05854e-07
4.80741e-07
3.71676e-07
2.78696e-07
2.01476e-07
1.39312e-07
9.11301e-08
5.55111e-08
3.07397e-08
1.48789e-08
5.86469e-09
1.62295e-09
2.10412e-10
1.22709e-12
1.05205e-12
1.8043e-10
1.39126e-09
5.02354e-09
1.27288e-08
2.62521e-08
4.73047e-08
7.74625e-08
1.18087e-07
1.70274e-07
2.34819e-07
3.12218e-07
4.02672e-07
5.06118e-07
6.22262e-07
7.50622e-07
8.90564e-07
1.04135e-06
1.20217e-06
1.37215e-06
1.55043e-06
1.73613e-06
1.9284e-06
2.1264e-06
2.32935e-06
2.5365e-06
2.74713e-06
2.96058e-06
3.17621e-06
3.39345e-06
3.61173e-06
3.83055e-06
4.04942e-06
4.26789e-06
4.48553e-06
4.70193e-06
4.91673e-06
5.12955e-06
5.34006e-06
5.54793e-06
5.75285e-06
5.95452e-06
6.15266e-06
6.34699e-06
6.53726e-06
6.72321e-06
6.9046e-06
7.08118e-06
7.25275e-06
7.41906e-06
7.57992e-06
7.73511e-06
7.88444e-06
8.02772e-06
8.16475e-06
8.29536e-06
8.41937e-06
8.53661e-06
8.64692e-06
8.75014e-06
8.84612e-06
8.93471e-06
9.01577e-06
9.08915e-06
9.15474e-06
9.21239e-06
9.26199e-06
9.30343e-06
9.33659e-06
9.36136e-06
9.37765e-06
9.38531e-06
9.38444e-06
9.37476e-06
9.3562e-06
9.32873e-06
9.29229e-06
9.24681e-06
9.19224e-06
9.12854e-06
9.05566e-06
8.97359e-06
8.8823e-06
8.78177e-06
8.67202e-06
8.55305e-06
8.42489e-06
8.28758e-06
8.14117e-06
7.98574e-06
7.82137e-06
7.64818e-06
7.46629e-06
7.27588e-06
7.07713e-06
6.87026e-06
6.65552e-06
6.4332e-06
6.20364e-06
5.96722e-06
5.72438e-06
5.47559e-06
5.22142e-06
4.96248e-06
4.69946e-06
4.43314e-06
4.16435e-06
3.89405e-06
3.62325e-06
3.35309e-06
3.08476e-06
2.81957e-06
2.55889e-06
2.30418e-06
2.05694e-06
1.8187e-06
1.591e-06
1.37535e-06
1.17319e-06
9.85826e-07
8.1441e-07
6.59868e-07
5.22845e-07
4.03664e-07
3.02278e-07
2.18251e-07
1.50737e-07
9.85022e-08
5.99475e-08
3.31711e-08
1.60459e-08
6.32175e-09
1.74888e-09
2.26697e-10
1.32198e-12
1.11549e-12
1.91316e-10
1.47529e-09
5.32758e-09
1.35016e-08
2.7853e-08
5.02058e-08
8.2246e-08
1.25439e-07
1.80971e-07
2.49721e-07
3.32249e-07
4.28806e-07
5.39363e-07
6.63644e-07
8.0117e-07
9.51299e-07
1.11327e-06
1.28624e-06
1.4693e-06
1.66153e-06
1.86201e-06
2.06983e-06
2.2841e-06
2.50398e-06
2.72866e-06
2.95736e-06
3.18937e-06
3.42401e-06
3.66063e-06
3.89863e-06
4.13745e-06
4.37657e-06
4.61548e-06
4.85372e-06
5.09084e-06
5.32642e-06
5.56007e-06
5.7914e-06