/*--------------------------------*- C++ -*----------------------------------*\
  =========                 |
  \\      /  F ield         | OpenFOAM: The Open Source CFD Toolbox
   \\    /   O peration     | Website:  https://openfoam.org
    \\  /    A nd           | Version:  12
     \\/     M anipulation  |
\*---------------------------------------------------------------------------*/
FoamFile
{
    format      ascii;
    class       volScalarField;
    location    "3";
    object      p;
}
// * * * * * * * * * * * * * * * * * * * * * * * * * * * * * * * * * * * * * //

dimensions      [0 2 -2 0 0 0 0];

internalField   nonuniform List<scalar> 
18225
(
-1.15069e-07
-8.03996e-07
-1.41668e-06
-1.76804e-06
-1.78994e-06
-1.48131e-06
-8.8638e-07
-2.31865e-08
1.06076e-06
2.34099e-06
3.77716e-06
5.34537e-06
7.01161e-06
8.75473e-06
1.05461e-05
1.23671e-05
1.41937e-05
1.60098e-05
1.77954e-05
1.95368e-05
2.12168e-05
2.28242e-05
2.43447e-05
2.57688e-05
2.70846e-05
2.82845e-05
2.9359e-05
3.03019e-05
3.11058e-05
3.17661e-05
3.22772e-05
3.26359e-05
3.28386e-05
3.28831e-05
3.27674e-05
3.24907e-05
3.20523e-05
3.14523e-05
3.06914e-05
2.97707e-05
2.86917e-05
2.74567e-05
2.60681e-05
2.45288e-05
2.28424e-05
2.10126e-05
1.90436e-05
1.694e-05
1.47067e-05
1.23492e-05
9.87291e-06
7.28379e-06
4.58805e-06
1.79197e-06
-1.09779e-06
-4.07457e-06
-7.13139e-06
-1.02613e-05
-1.34572e-05
-1.67118e-05
-2.00178e-05
-2.3368e-05
-2.67549e-05
-3.01712e-05
-3.36096e-05
-3.70627e-05
-4.05234e-05
-4.39844e-05
-4.74386e-05
-5.08791e-05
-5.42989e-05
-5.76913e-05
-6.10495e-05
-6.43668e-05
-6.76369e-05
-7.08534e-05
-7.401e-05
-7.71006e-05
-8.01192e-05
-8.30602e-05
-8.59178e-05
-8.86867e-05
-9.13617e-05
-9.39377e-05
-9.641e-05
-9.87741e-05
-0.000101025
-0.00010316
-0.000105174
-0.000107064
-0.000108827
-0.000110458
-0.000111957
-0.000113319
-0.000114543
-0.000115627
-0.000116569
-0.000117367
-0.000118022
-0.000118531
-0.000118895
-0.000119114
-0.000119187
-0.000119117
-0.000118904
-0.00011855
-0.000118057
-0.000117429
-0.000116667
-0.000115778
-0.000114764
-0.000113633
-0.000112389
-0.00011104
-0.000109594
-0.00010806
-0.000106448
-0.00010477
-0.000103037
-0.000101264
-9.94665e-05
-9.76615e-05
-9.58672e-05
-9.41045e-05
-9.23954e-05
-9.07644e-05
-8.92369e-05
-8.78408e-05
-8.66045e-05
-8.55571e-05
-8.47261e-05
-8.41376e-05
-8.38181e-05
-8.37769e-05
-8.39121e-05
-8.09281e-07
-1.35029e-06
-1.81757e-06
-2.0716e-06
-2.08947e-06
-1.84551e-06
-1.36254e-06
-6.53722e-07
2.47613e-07
1.32099e-06
2.53427e-06
3.86672e-06
5.29035e-06
6.7862e-06
8.33001e-06
9.90471e-06
1.14895e-05
1.30696e-05
1.4627e-05
1.61488e-05
1.76197e-05
1.90288e-05
2.03632e-05
2.16135e-05
2.27689e-05
2.38219e-05
2.47636e-05
2.55879e-05
2.62878e-05
2.68586e-05
2.72951e-05
2.75938e-05
2.77512e-05
2.77651e-05
2.76333e-05
2.73547e-05
2.69286e-05
2.63547e-05
2.56336e-05
2.47658e-05
2.37529e-05
2.25964e-05
2.12985e-05
1.98618e-05
1.82894e-05
1.65844e-05
1.47508e-05
1.27925e-05
1.07141e-05
8.52039e-06
6.21646e-06
3.80762e-06
1.29959e-06
-1.30188e-06
-3.99066e-06
-6.76064e-06
-9.60537e-06
-1.25185e-05
-1.54933e-05
-1.85232e-05
-2.16014e-05
-2.47212e-05
-2.78757e-05
-3.1058e-05
-3.42614e-05
-3.7479e-05
-4.07041e-05
-4.393e-05
-4.715e-05
-5.03577e-05
-5.35466e-05
-5.67104e-05
-5.98427e-05
-6.29374e-05
-6.59884e-05
-6.89899e-05
-7.19358e-05
-7.48206e-05
-7.76386e-05
-8.03846e-05
-8.30531e-05
-8.56393e-05
-8.81381e-05
-9.05451e-05
-9.28556e-05
-9.50655e-05
-9.71708e-05
-9.91677e-05
-0.000101053
-0.000102822
-0.000104473
-0.000106003
-0.00010741
-0.00010869
-0.000109843
-0.000110866
-0.000111757
-0.000112517
-0.000113143
-0.000113637
-0.000113996
-0.000114222
-0.000114316
-0.000114278
-0.000114109
-0.000113813
-0.000113391
-0.000112845
-0.000112181
-0.000111401
-0.00011051
-0.000109514
-0.000108419
-0.000107231
-0.000105958
-0.00010461
-0.000103194
-0.000101723
-0.000100207
-9.86593e-05
-9.70937e-05
-9.55256e-05
-9.39709e-05
-9.24478e-05
-9.09746e-05
-8.95719e-05
-8.82604e-05
-8.70626e-05
-8.6001e-05
-8.50982e-05
-8.43759e-05
-8.38562e-05
-8.35659e-05
-8.35226e-05
-8.36397e-05
-2.86115e-06
-3.17112e-06
-3.40002e-06
-3.45708e-06
-3.34234e-06
-3.03934e-06
-2.55856e-06
-1.90346e-06
-1.09407e-06
-1.43422e-07
9.2509e-07
2.09578e-06
3.34619e-06
4.66069e-06
6.01879e-06
7.40585e-06
8.80371e-06
1.01992e-05
1.15763e-05
1.29234e-05
1.42266e-05
1.54759e-05
1.66594e-05
1.77684e-05
1.87931e-05
1.9726e-05
2.05592e-05
2.12866e-05
2.19017e-05
2.23999e-05
2.27764e-05
2.30275e-05
2.31498e-05
2.31411e-05
2.29992e-05
2.27227e-05
2.23108e-05
2.17631e-05
2.10797e-05
2.02613e-05
1.93088e-05
1.82236e-05
1.70077e-05
1.56632e-05
1.41929e-05
1.25997e-05
1.0887e-05
9.05841e-06
7.11818e-06
5.07054e-06
2.92026e-06
6.72175e-07
-1.66845e-06
-4.09634e-06
-6.60581e-06
-9.19122e-06
-1.18466e-05
-1.4566e-05
-1.73433e-05
-2.01723e-05
-2.30467e-05
-2.59602e-05
-2.89064e-05
-3.1879e-05
-3.48715e-05
-3.78777e-05
-4.08911e-05
-4.39057e-05
-4.69151e-05
-4.99132e-05
-5.28941e-05
-5.58518e-05
-5.87803e-05
-6.16739e-05
-6.45269e-05
-6.73338e-05
-7.0089e-05
-7.27873e-05
-7.54234e-05
-7.79924e-05
-8.04892e-05
-8.29092e-05
-8.52479e-05
-8.7501e-05
-8.96643e-05
-9.17339e-05
-9.3706e-05
-9.55773e-05
-9.73443e-05
-9.90042e-05
-0.000100554
-0.000101991
-0.000103314
-0.000104519
-0.000105606
-0.000106573
-0.000107418
-0.000108141
-0.000108741
-0.000109219
-0.000109573
-0.000109804
-0.000109913
-0.000109902
-0.000109772
-0.000109524
-0.000109161
-0.000108687
-0.000108104
-0.000107417
-0.000106629
-0.000105747
-0.000104776
-0.000103722
-0.000102593
-0.000101396
-0.000100141
-9.8836e-05
-9.74926e-05
-9.6122e-05
-9.47362e-05
-9.33487e-05
-9.19731e-05
-9.06248e-05
-8.93191e-05
-8.80727e-05
-8.69024e-05
-8.58258e-05
-8.48607e-05
-8.40247e-05
-8.3335e-05
-8.281e-05
-8.24735e-05
-8.23448e-05
-8.23653e-05
-6.05197e-06
-6.10842e-06
-6.07778e-06
-5.90704e-06
-5.60246e-06
-5.15909e-06
-4.58381e-06
-3.87862e-06
-3.05614e-06
-2.1249e-06
-1.10139e-06
2.93805e-09
1.17079e-06
2.38984e-06
3.64337e-06
4.91929e-06
6.20209e-06
7.4805e-06
8.7405e-06
9.97192e-06
1.11623e-05
1.23027e-05
1.33823e-05
1.43933e-05
1.53265e-05
1.61754e-05
1.69323e-05
1.75919e-05
1.81478e-05
1.8596e-05
1.89315e-05
1.91512e-05
1.92516e-05
1.92304e-05
1.90856e-05
1.88157e-05
1.84197e-05
1.78972e-05
1.72482e-05
1.64731e-05
1.55728e-05
1.45484e-05
1.34017e-05
1.21346e-05
1.07496e-05
9.24945e-06
7.63723e-06
5.91632e-06
4.09059e-06
2.16398e-06
1.40931e-07
-1.97407e-06
-4.1761e-06
-6.46023e-06
-8.82114e-06
-1.12536e-05
-1.37519e-05
-1.63106e-05
-1.89238e-05
-2.15858e-05
-2.42907e-05
-2.70324e-05
-2.98051e-05
-3.26027e-05
-3.54191e-05
-3.82486e-05
-4.10849e-05
-4.39225e-05
-4.67552e-05
-4.95775e-05
-5.23835e-05
-5.51678e-05
-5.79246e-05
-6.06486e-05
-6.33344e-05
-6.59768e-05
-6.85706e-05
-7.11109e-05
-7.35926e-05
-7.60113e-05
-7.83622e-05
-8.06409e-05
-8.28433e-05
-8.49653e-05
-8.7003e-05
-8.89528e-05
-9.08113e-05
-9.25751e-05
-9.42413e-05
-9.58072e-05
-9.72699e-05
-9.86275e-05
-9.98775e-05
-0.000101018
-0.000102048
-0.000102966
-0.000103771
-0.000104461
-0.000105037
-0.000105499
-0.000105846
-0.000106079
-0.000106199
-0.000106207
-0.000106104
-0.000105893
-0.000105575
-0.000105155
-0.000104634
-0.000104016
-0.000103306
-0.000102509
-0.00010163
-0.000100674
-9.96489e-05
-9.85611e-05
-9.74184e-05
-9.62298e-05
-9.5004e-05
-9.37514e-05
-9.24822e-05
-9.12081e-05
-8.99406e-05
-8.86926e-05
-8.74766e-05
-8.63065e-05
-8.51956e-05
-8.41583e-05
-8.32085e-05
-8.23605e-05
-8.1628e-05
-8.10256e-05
-8.05687e-05
-8.02702e-05
-8.01152e-05
-9.96868e-06
-9.7704e-06
-9.46725e-06
-9.05825e-06
-8.54802e-06
-7.93317e-06
-7.21997e-06
-6.41118e-06
-5.51632e-06
-4.54158e-06
-3.49919e-06
-2.39764e-06
-1.25034e-06
-6.6776e-08
1.1395e-06
2.3588e-06
3.5781e-06
4.78806e-06
5.97655e-06
7.13493e-06
8.25219e-06
9.3206e-06
1.03304e-05
1.12748e-05
1.21455e-05
1.29365e-05
1.36409e-05
1.42539e-05
1.47696e-05
1.51842e-05
1.54931e-05
1.56934e-05
1.57818e-05
1.5756e-05
1.56141e-05
1.53546e-05
1.49766e-05
1.44795e-05
1.38632e-05
1.31282e-05
1.2275e-05
1.1305e-05
1.02195e-05
9.02055e-06
7.71029e-06
6.29128e-06
4.76649e-06
3.13908e-06
1.41265e-06
-4.09081e-07
-2.32194e-06
-4.3217e-06
-6.40372e-06
-8.56335e-06
-1.07956e-05
-1.30954e-05
-1.54576e-05
-1.78768e-05
-2.03476e-05
-2.28644e-05
-2.54218e-05
-2.8014e-05
-3.06354e-05
-3.32803e-05
-3.59431e-05
-3.8618e-05
-4.12995e-05
-4.39819e-05
-4.66597e-05
-4.93275e-05
-5.19798e-05
-5.46113e-05
-5.72168e-05
-5.97912e-05
-6.23292e-05
-6.48262e-05
-6.7277e-05
-6.96772e-05
-7.20221e-05
-7.43073e-05
-7.65284e-05
-7.86815e-05
-8.07624e-05
-8.27675e-05
-8.46932e-05
-8.6536e-05
-8.82927e-05
-8.99605e-05
-9.15362e-05
-9.30176e-05
-9.4402e-05
-9.56876e-05
-9.68721e-05
-9.79542e-05
-9.89321e-05
-9.98049e-05
-0.000100571
-0.000101231
-0.000101784
-0.000102229
-0.000102567
-0.000102799
-0.000102924
-0.000102945
-0.000102862
-0.000102678
-0.000102395
-0.000102015
-0.000101541
-0.000100977
-0.000100327
-9.95938e-05
-9.87833e-05
-9.79009e-05
-9.69519e-05
-9.59431e-05
-9.48809e-05
-9.37731e-05
-9.26273e-05
-9.14524e-05
-9.02571e-05
-8.90512e-05
-8.78442e-05
-8.66467e-05
-8.54691e-05
-8.43222e-05
-8.32169e-05
-8.21642e-05
-8.1175e-05
-8.02604e-05
-7.94311e-05
-7.8697e-05
-7.80638e-05
-7.7535e-05
-7.71519e-05
-1.43366e-05
-1.38805e-05
-1.32986e-05
-1.26467e-05
-1.19242e-05
-1.11241e-05
-1.02517e-05
-9.31046e-06
-8.30848e-06
-7.2507e-06
-6.14677e-06
-5.00321e-06
-3.83077e-06
-2.63684e-06
-1.43258e-06
-2.25679e-07
9.72831e-07
2.15536e-06
3.3114e-06
4.43379e-06
5.5128e-06
6.54191e-06
7.51239e-06
8.41847e-06
9.2525e-06
1.00095e-05
1.0683e-05
1.12687e-05
1.17614e-05
1.21575e-05
1.24528e-05
1.26446e-05
1.27299e-05
1.27064e-05
1.25724e-05
1.23264e-05
1.19676e-05
1.14954e-05
1.09098e-05
1.02111e-05
9.40002e-06
8.47759e-06
7.44535e-06
6.30501e-06
5.0588e-06
3.70909e-06
2.25876e-06
7.10784e-07
-9.31376e-07
-2.66418e-06
-4.48364e-06
-6.38574e-06
-8.36604e-06
-1.04201e-05
-1.25432e-05
-1.47304e-05
-1.69769e-05
-1.92774e-05
-2.16269e-05
-2.40201e-05
-2.64516e-05
-2.89161e-05
-3.14081e-05
-3.39223e-05
-3.64532e-05
-3.89955e-05
-4.15437e-05
-4.40925e-05
-4.66367e-05
-4.9171e-05
-5.16903e-05
-5.41896e-05
-5.66638e-05
-5.91081e-05
-6.15177e-05
-6.3888e-05
-6.62142e-05
-6.84922e-05
-7.07174e-05
-7.28857e-05
-7.49932e-05
-7.7036e-05
-7.90103e-05
-8.09126e-05
-8.27396e-05
-8.44881e-05
-8.6155e-05
-8.77376e-05
-8.92332e-05
-9.06395e-05
-9.19542e-05
-9.31753e-05
-9.43011e-05
-9.53301e-05
-9.62607e-05
-9.70922e-05
-9.78234e-05
-9.84539e-05
-9.89832e-05
-9.94113e-05
-9.97383e-05
-9.99648e-05
-0.000100091
-0.000100119
-0.000100049
-9.98832e-05
-9.96233e-05
-9.92719e-05
-9.88313e-05
-9.83049e-05
-9.76957e-05
-9.70078e-05
-9.6245e-05
-9.54124e-05
-9.45146e-05
-9.35573e-05
-9.25462e-05
-9.14878e-05
-9.03886e-05
-8.92561e-05
-8.80973e-05
-8.69206e-05
-8.57337e-05
-8.45451e-05
-8.33629e-05
-8.21961e-05
-8.10526e-05
-7.99412e-05
-7.88698e-05
-7.7847e-05
-7.6881e-05
-7.59775e-05
-7.51318e-05
-7.43388e-05
-7.3701e-05
-1.89598e-05
-1.82447e-05
-1.73816e-05
-1.64839e-05
-1.55446e-05
-1.45513e-05
-1.35075e-05
-1.2417e-05
-1.1287e-05
-1.01213e-05
-8.92801e-06
-7.71221e-06
-6.48282e-06
-5.24567e-06
-4.01013e-06
-2.78236e-06
-1.57181e-06
-3.84636e-07
7.69998e-07
1.8862e-06
2.95537e-06
3.97209e-06
4.92852e-06
5.81982e-06
6.63909e-06
7.38205e-06
8.04283e-06
8.61771e-06
9.10186e-06
9.49211e-06
9.78466e-06
9.97695e-06
1.00662e-05
1.00505e-05
9.92806e-06
9.69768e-06
9.35853e-06
8.91016e-06
8.35259e-06
7.68613e-06
6.9116e-06
6.03e-06
5.04289e-06
3.95194e-06
2.75936e-06
1.46746e-06
7.90577e-08
-1.40295e-06
-2.97521e-06
-4.63428e-06
-6.3763e-06
-8.19739e-06
-1.00933e-05
-1.20596e-05
-1.40919e-05
-1.61854e-05
-1.83354e-05
-2.05369e-05
-2.27849e-05
-2.50745e-05
-2.74004e-05
-2.97576e-05
-3.21407e-05
-3.45447e-05
-3.69642e-05
-3.93942e-05
-4.18294e-05
-4.42648e-05
-4.66952e-05
-4.91158e-05
-5.15216e-05
-5.39077e-05
-5.62695e-05
-5.86022e-05
-6.09014e-05
-6.31626e-05
-6.53814e-05
-6.75537e-05
-6.96755e-05
-7.17427e-05
-7.37516e-05
-7.56986e-05
-7.75801e-05
-7.93928e-05
-8.11336e-05
-8.27996e-05
-8.43877e-05
-8.58956e-05
-8.73206e-05
-8.86606e-05
-8.99135e-05
-9.10774e-05
-9.21506e-05
-9.31317e-05
-9.40195e-05
-9.4813e-05
-9.55112e-05
-9.61137e-05
-9.66201e-05
-9.70302e-05
-9.73442e-05
-9.75625e-05
-9.76855e-05
-9.77144e-05
-9.765e-05
-9.7494e-05
-9.72479e-05
-9.69138e-05
-9.64939e-05
-9.59909e-05
-9.54075e-05
-9.47472e-05
-9.40133e-05
-9.321e-05
-9.23412e-05
-9.14119e-05
-9.04265e-05
-8.93908e-05
-8.83099e-05
-8.719e-05
-8.6037e-05
-8.48576e-05
-8.36578e-05
-8.24445e-05
-8.12241e-05
-8.00032e-05
-7.87881e-05
-7.75851e-05
-7.64e-05
-7.52391e-05
-7.41087e-05
-7.3011e-05
-7.19317e-05
-7.08582e-05
-6.9955e-05
-2.3706e-05
-2.27345e-05
-2.15909e-05
-2.04459e-05
-1.92869e-05
-1.80944e-05
-1.68708e-05
-1.56193e-05
-1.43466e-05
-1.30556e-05
-1.17532e-05
-1.04435e-05
-9.13395e-06
-7.82925e-06
-6.53744e-06
-5.26347e-06
-4.01555e-06
-2.79868e-06
-1.62094e-06
-4.87142e-07
5.95046e-07
1.62114e-06
2.58413e-06
3.47993e-06
4.30235e-06
5.04771e-06
5.71071e-06
6.2881e-06
6.77549e-06
7.17006e-06
7.46836e-06
7.6681e-06
7.76674e-06
7.76257e-06
7.65401e-06
7.44002e-06
7.11989e-06
6.69331e-06
6.1604e-06
5.52156e-06
4.77767e-06
3.92982e-06
2.97959e-06
1.92872e-06
7.79405e-07
-4.66008e-07
-1.80474e-06
-3.23389e-06
-4.75015e-06
-6.35014e-06
-8.03006e-06
-9.78609e-06
-1.16141e-05
-1.35098e-05
-1.54687e-05
-1.74864e-05
-1.95581e-05
-2.16792e-05
-2.38446e-05
-2.60496e-05
-2.8289e-05
-3.05581e-05
-3.28516e-05
-3.51646e-05
-3.7492e-05
-3.98289e-05
-4.21702e-05
-4.45111e-05
-4.68466e-05
-4.9172e-05
-5.14825e-05
-5.37736e-05
-5.60406e-05
-5.82792e-05
-6.04849e-05
-6.26537e-05
-6.47813e-05
-6.68638e-05
-6.88973e-05
-7.08781e-05
-7.28026e-05
-7.46674e-05
-7.64691e-05
-7.82048e-05
-7.98712e-05
-8.14657e-05
-8.29856e-05
-8.44284e-05
-8.57918e-05
-8.70738e-05
-8.82722e-05
-8.93855e-05
-9.0412e-05
-9.13503e-05
-9.21993e-05
-9.2958e-05
-9.36255e-05
-9.42013e-05
-9.4685e-05
-9.50765e-05
-9.53757e-05
-9.5583e-05
-9.56987e-05
-9.57236e-05
-9.56586e-05
-9.55049e-05
-9.52639e-05
-9.49372e-05
-9.45267e-05
-9.40347e-05
-9.34633e-05
-9.28156e-05
-9.20941e-05
-9.13025e-05
-9.04437e-05
-8.95221e-05
-8.85411e-05
-8.75054e-05
-8.64193e-05
-8.52877e-05
-8.41152e-05
-8.29071e-05
-8.16683e-05
-8.04039e-05
-7.91189e-05
-7.78181e-05
-7.65061e-05
-7.51875e-05
-7.38661e-05
-7.25466e-05
-7.12338e-05
-6.99271e-05
-6.86036e-05
-6.7244e-05
-6.6074e-05
-2.84842e-05
-2.72616e-05
-2.58409e-05
-2.44493e-05
-2.30683e-05
-2.16723e-05
-2.02619e-05
-1.88403e-05
-1.74135e-05
-1.59837e-05
-1.4557e-05
-1.31364e-05
-1.17286e-05
-1.03373e-05
-8.96953e-06
-7.62929e-06
-6.32382e-06
-5.05721e-06
-3.83663e-06
-2.66603e-06
-1.55229e-06
-4.99107e-07
4.87204e-07
1.40322e-06
2.24332e-06
3.00439e-06
3.68161e-06
4.27214e-06
4.772e-06
5.17871e-06
5.48916e-06
5.7013e-06
5.81289e-06
5.82245e-06
5.72861e-06
5.53051e-06
5.22764e-06
4.81984e-06
4.30737e-06
3.69078e-06
2.97106e-06
2.14941e-06
1.22751e-06
2.07162e-07
-9.0935e-07
-2.11963e-06
-3.42085e-06
-4.81008e-06
-6.28402e-06
-7.83924e-06
-9.472e-06
-1.11785e-05
-1.29546e-05
-1.47961e-05
-1.66986e-05
-1.86577e-05
-2.06687e-05
-2.27271e-05
-2.48279e-05
-2.69664e-05
-2.91378e-05
-3.13371e-05
-3.35595e-05
-3.58e-05
-3.80537e-05
-4.03158e-05
-4.25814e-05
-4.48458e-05
-4.71042e-05
-4.9352e-05
-5.15848e-05
-5.37979e-05
-5.5987e-05
-5.8148e-05
-6.02765e-05
-6.23686e-05
-6.44204e-05
-6.6428e-05
-6.83877e-05
-7.02961e-05
-7.21497e-05
-7.39453e-05
-7.56796e-05
-7.73499e-05
-7.89531e-05
-8.04868e-05
-8.19483e-05
-8.33353e-05
-8.46457e-05
-8.58774e-05
-8.70285e-05
-8.80976e-05
-8.90828e-05
-8.99832e-05
-9.07973e-05
-9.15243e-05
-9.21633e-05
-9.27139e-05
-9.31753e-05
-9.35477e-05
-9.38306e-05
-9.40245e-05
-9.41294e-05
-9.4146e-05
-9.40749e-05
-9.39171e-05
-9.36735e-05
-9.33456e-05
-9.29348e-05
-9.24429e-05
-9.18716e-05
-9.12234e-05
-9.05003e-05
-8.97051e-05
-8.88403e-05
-8.79093e-05
-8.69148e-05
-8.58605e-05
-8.47498e-05
-8.35865e-05
-8.23742e-05
-8.1117e-05
-7.98184e-05
-7.84825e-05
-7.71127e-05
-7.57127e-05
-7.42854e-05
-7.28339e-05
-7.13607e-05
-6.98692e-05
-6.83631e-05
-6.68395e-05
-6.52676e-05
-6.36223e-05
-6.21889e-05
-3.32286e-05
-3.1761e-05
-3.00681e-05
-2.84313e-05
-2.68272e-05
-2.52243e-05
-2.36217e-05
-2.20225e-05
-2.04322e-05
-1.88526e-05
-1.7289e-05
-1.57439e-05
-1.42231e-05
-1.27296e-05
-1.12698e-05
-9.84686e-06
-8.4673e-06
-7.13448e-06
-5.85484e-06
-4.63167e-06
-3.47114e-06
-2.37636e-06
-1.35303e-06
-4.04057e-07
4.65479e-07
1.25287e-06
1.95375e-06
2.56565e-06
3.08497e-06
3.50953e-06
3.83655e-06
4.06427e-06
4.19072e-06
4.21466e-06
4.13498e-06
3.95104e-06
3.66254e-06
3.26952e-06
2.77243e-06
2.17197e-06
1.4693e-06
6.65766e-07
-2.36827e-07
-1.23653e-06
-2.33096e-06
-3.51761e-06
-4.79358e-06
-6.15586e-06
-7.60107e-06
-9.12575e-06
-1.07261e-05
-1.23983e-05
-1.41383e-05
-1.59417e-05
-1.78043e-05
-1.97217e-05
-2.16891e-05
-2.37021e-05
-2.57558e-05
-2.78456e-05
-2.99665e-05
-3.21139e-05
-3.42829e-05
-3.64687e-05
-3.86665e-05
-4.08714e-05
-4.30789e-05
-4.52842e-05
-4.74828e-05
-4.96701e-05
-5.18418e-05
-5.39935e-05
-5.6121e-05
-5.82202e-05
-6.02871e-05
-6.23177e-05
-6.43084e-05
-6.62555e-05
-6.81554e-05
-7.00048e-05
-7.18004e-05
-7.35391e-05
-7.5218e-05
-7.68342e-05
-7.8385e-05
-7.98679e-05
-8.12805e-05
-8.26206e-05
-8.38861e-05
-8.50751e-05
-8.61858e-05
-8.72167e-05
-8.81662e-05
-8.90332e-05
-8.98163e-05
-9.05148e-05
-9.11276e-05
-9.16544e-05
-9.20943e-05
-9.24473e-05
-9.2713e-05
-9.28915e-05
-9.29828e-05
-9.29874e-05
-9.29054e-05
-9.27379e-05
-9.24852e-05
-9.21487e-05
-9.17291e-05
-9.12281e-05
-9.06466e-05
-8.99869e-05
-8.92501e-05
-8.84387e-05
-8.75544e-05
-8.65998e-05
-8.55769e-05
-8.44888e-05
-8.33377e-05
-8.21268e-05
-8.08584e-05
-7.95359e-05
-7.81617e-05
-7.67386e-05
-7.5269e-05
-7.37554e-05
-7.21995e-05
-7.06033e-05
-6.8968e-05
-6.72961e-05
-6.55905e-05
-6.38464e-05
-6.20262e-05
-6.0099e-05
-5.84079e-05
-3.78881e-05
-3.61815e-05
-3.42212e-05
-3.23411e-05
-3.05135e-05
-2.8701e-05
-2.69016e-05
-2.51186e-05
-2.33571e-05
-2.16185e-05
-1.99076e-05
-1.82265e-05
-1.65804e-05
-1.49719e-05
-1.34066e-05
-1.18873e-05
-1.04199e-05
-9.0072e-06
-7.65504e-06
-6.36624e-06
-5.14637e-06
-3.9981e-06
-2.9266e-06
-1.9344e-06
-1.0261e-06
-2.04069e-07
5.27743e-07
1.16715e-06
1.71094e-06
2.15721e-06
2.5035e-06
2.74834e-06
2.89005e-06
2.92767e-06
2.86033e-06
2.68767e-06
2.4096e-06
2.02641e-06
1.53874e-06
9.47521e-07
2.5409e-07
-5.40009e-07
-1.43282e-06
-2.42221e-06
-3.50566e-06
-4.68051e-06
-5.94373e-06
-7.29219e-06
-8.72242e-06
-1.02308e-05
-1.18136e-05
-1.34668e-05
-1.51862e-05
-1.69677e-05
-1.88068e-05
-2.0699e-05
-2.26397e-05
-2.46244e-05
-2.66482e-05
-2.87066e-05
-3.07946e-05
-3.29075e-05
-3.50407e-05
-3.71892e-05
-3.93483e-05
-4.15134e-05
-4.36799e-05
-4.58432e-05
-4.79987e-05
-5.01421e-05
-5.22691e-05
-5.43755e-05
-5.64571e-05
-5.85101e-05
-6.05304e-05
-6.25143e-05
-6.44583e-05
-6.63587e-05
-6.82123e-05
-7.00157e-05
-7.17659e-05
-7.34598e-05
-7.50946e-05
-7.66677e-05
-7.81764e-05
-7.96184e-05
-8.09914e-05
-8.22932e-05
-8.35218e-05
-8.46755e-05
-8.57524e-05
-8.67512e-05
-8.76702e-05
-8.85084e-05
-8.92645e-05
-8.99376e-05
-9.05267e-05
-9.10313e-05
-9.14506e-05
-9.17844e-05
-9.2032e-05
-9.21937e-05
-9.22691e-05
-9.22586e-05
-9.21619e-05
-9.19799e-05
-9.17127e-05
-9.13612e-05
-9.09258e-05
-9.04077e-05
-8.98076e-05
-8.91269e-05
-8.83665e-05
-8.75282e-05
-8.66132e-05
-8.56234e-05
-8.45602e-05
-8.34258e-05
-8.22218e-05
-8.09505e-05
-7.96136e-05
-7.82133e-05
-7.67512e-05
-7.52293e-05
-7.36488e-05
-7.20114e-05
-7.03177e-05
-6.85687e-05
-6.67647e-05
-6.49074e-05
-6.29994e-05
-6.10343e-05
-5.89678e-05
-5.67642e-05
-5.4822e-05
-4.24222e-05
-4.04816e-05
-3.82581e-05
-3.61365e-05
-3.40848e-05
-3.20605e-05
-3.00605e-05
-2.80884e-05
-2.61489e-05
-2.42436e-05
-2.23766e-05
-2.05498e-05
-1.8768e-05
-1.70335e-05
-1.53515e-05
-1.37244e-05
-1.21576e-05
-1.06537e-05
-9.21785e-06
-7.85264e-06
-6.56312e-06
-5.35171e-06
-4.22307e-06
-3.1795e-06
-2.22515e-06
-1.36216e-06
-5.94067e-07
7.71746e-08
6.48718e-07
1.11892e-06
1.48567e-06
1.74774e-06
1.90379e-06
1.95312e-06
1.89516e-06
1.7298e-06
1.45724e-06
1.07799e-06
5.92957e-07
3.30025e-09
-6.89421e-07
-1.48344e-06
-2.37659e-06
-3.36655e-06
-4.45061e-06
-5.62592e-06
-6.88929e-06
-8.23741e-06
-9.66669e-06
-1.11734e-05
-1.27536e-05
-1.44032e-05
-1.61179e-05
-1.78935e-05
-1.97254e-05
-2.16092e-05
-2.35401e-05
-2.55135e-05
-2.75247e-05
-2.95689e-05
-3.16413e-05
-3.37372e-05
-3.58517e-05
-3.79802e-05
-4.0118e-05
-4.22604e-05
-4.44028e-05
-4.65408e-05
-4.86699e-05
-5.07857e-05
-5.28842e-05
-5.4961e-05
-5.70123e-05
-5.90341e-05
-6.10227e-05
-6.29744e-05
-6.48857e-05
-6.67532e-05
-6.85735e-05
-7.03437e-05
-7.20607e-05
-7.37216e-05
-7.53237e-05
-7.68644e-05
-7.83412e-05
-7.97519e-05
-8.10942e-05
-8.23661e-05
-8.35657e-05
-8.46912e-05
-8.57409e-05
-8.67135e-05
-8.76074e-05
-8.84214e-05
-8.91544e-05
-8.98053e-05
-9.03733e-05
-9.08576e-05
-9.12574e-05
-9.15724e-05
-9.18019e-05
-9.19457e-05
-9.20035e-05
-9.19754e-05
-9.18609e-05
-9.16606e-05
-9.13743e-05
-9.10025e-05
-9.05454e-05
-9.00037e-05
-8.93777e-05
-8.86684e-05
-8.78763e-05
-8.70025e-05
-8.60476e-05
-8.50132e-05
-8.39e-05
-8.27096e-05
-8.14428e-05
-8.01013e-05
-7.86861e-05
-7.71986e-05
-7.56395e-05
-7.40101e-05
-7.23109e-05
-7.05423e-05
-6.87046e-05
-6.67976e-05
-6.4821e-05
-6.27759e-05
-6.06648e-05
-5.84797e-05
-5.61703e-05
-5.36963e-05
-5.15095e-05
-4.67994e-05
-4.46284e-05
-4.21446e-05
-3.97823e-05
-3.75058e-05
-3.52673e-05
-3.3063e-05
-3.08968e-05
-2.87735e-05
-2.66944e-05
-2.46635e-05
-2.26827e-05
-2.07563e-05
-1.88866e-05
-1.70783e-05
-1.53338e-05
-1.36579e-05
-1.20532e-05
-1.05244e-05
-9.07398e-06
-7.70646e-06
-6.42415e-06
-5.23131e-06
-4.13006e-06
-3.12418e-06
-2.21563e-06
-1.40759e-06
-7.01787e-07
-1.00722e-07
3.94201e-07
7.81209e-07
1.05934e-06
1.22758e-06
1.28551e-06
1.23286e-06
1.06981e-06
7.96822e-07
4.14712e-07
-7.5359e-08
-6.71964e-07
-1.37329e-06
-2.17732e-06
-3.08165e-06
-4.08371e-06
-5.18058e-06
-6.36917e-06
-7.64611e-06
-9.00788e-06
-1.04507e-05
-1.19706e-05
-1.35636e-05
-1.52254e-05
-1.69516e-05
-1.87377e-05
-2.05792e-05
-2.24714e-05
-2.44096e-05
-2.6389e-05
-2.84048e-05
-3.04522e-05
-3.25264e-05
-3.46226e-05
-3.6736e-05
-3.88618e-05
-4.09955e-05
-4.31322e-05
-4.52675e-05
-4.73969e-05
-4.9516e-05
-5.16206e-05
-5.37064e-05
-5.57694e-05
-5.78058e-05
-5.98115e-05
-6.17831e-05
-6.37168e-05
-6.56093e-05
-6.74572e-05
-6.92575e-05
-7.1007e-05
-7.27028e-05
-7.43423e-05
-7.59227e-05
-7.74415e-05
-7.88965e-05
-8.02853e-05
-8.16058e-05
-8.28562e-05
-8.40345e-05
-8.5139e-05
-8.61681e-05
-8.71204e-05
-8.79944e-05
-8.87889e-05
-8.95027e-05
-9.01349e-05
-9.06844e-05
-9.11505e-05
-9.15323e-05
-9.18292e-05
-9.20406e-05
-9.21661e-05
-9.22051e-05
-9.21575e-05
-9.20228e-05
-9.18011e-05
-9.1492e-05
-9.10958e-05
-9.06122e-05
-9.00416e-05
-8.9384e-05
-8.86399e-05
-8.78092e-05
-8.6893e-05
-8.58912e-05
-8.48048e-05
-8.3634e-05
-8.23799e-05
-8.10427e-05
-7.96236e-05
-7.81227e-05
-7.65409e-05
-7.48783e-05
-7.31353e-05
-7.13116e-05
-6.94071e-05
-6.74212e-05
-6.53532e-05
-6.3202e-05
-6.09683e-05
-5.86545e-05
-5.62515e-05
-5.37029e-05
-5.09641e-05
-4.85388e-05
-5.09949e-05
-4.85953e-05
-4.58524e-05
-4.32492e-05
-4.0746e-05
-3.82906e-05
-3.5878e-05
-3.3513e-05
-3.12e-05
-2.89409e-05
-2.67391e-05
-2.45968e-05
-2.25179e-05
-2.05049e-05
-1.8562e-05
-1.66919e-05
-1.48988e-05
-1.31854e-05
-1.15561e-05
-1.00132e-05
-8.56096e-06
-7.20169e-06
-5.93922e-06
-4.77565e-06
-3.71437e-06
-2.75723e-06
-1.90706e-06
-1.16542e-06
-5.34461e-07
-1.53723e-08
3.90412e-07
6.82198e-07
8.59289e-07
9.21553e-07
8.69039e-07
7.02223e-07
4.2188e-07
2.91113e-08
-4.74623e-07
-1.0876e-06
-1.80773e-06
-2.63271e-06
-3.55986e-06
-4.58634e-06
-5.70896e-06
-6.92439e-06
-8.229e-06
-9.61902e-06
-1.10905e-05
-1.26392e-05
-1.42609e-05
-1.59511e-05
-1.77053e-05
-1.95189e-05
-2.1387e-05
-2.3305e-05
-2.52678e-05
-2.72708e-05
-2.93089e-05
-3.13772e-05
-3.34709e-05
-3.5585e-05
-3.77148e-05
-3.98555e-05
-4.20023e-05
-4.41505e-05
-4.62957e-05
-4.84333e-05
-5.0559e-05
-5.26686e-05
-5.47578e-05
-5.68227e-05
-5.88594e-05
-6.08641e-05
-6.28332e-05
-6.47632e-05
-6.66507e-05
-6.84925e-05
-7.02855e-05
-7.20268e-05
-7.37135e-05
-7.5343e-05
-7.69126e-05
-7.84201e-05
-7.98631e-05
-8.12394e-05
-8.2547e-05
-8.37841e-05
-8.49487e-05
-8.60393e-05
-8.70543e-05
-8.79922e-05
-8.88516e-05
-8.96313e-05
-9.03302e-05
-9.09471e-05
-9.1481e-05
-9.19312e-05
-9.22965e-05
-9.25765e-05
-9.27702e-05
-9.28773e-05
-9.28968e-05
-9.28285e-05
-9.26717e-05
-9.24263e-05
-9.20916e-05
-9.16676e-05
-9.11537e-05
-9.05501e-05
-8.98562e-05
-8.90724e-05
-8.81982e-05
-8.72341e-05
-8.61797e-05
-8.50355e-05
-8.38014e-05
-8.24779e-05
-8.10647e-05
-7.95623e-05
-7.79704e-05
-7.62892e-05
-7.45183e-05
-7.26572e-05
-7.07053e-05
-6.86617e-05
-6.65252e-05
-6.42944e-05
-6.19679e-05
-5.95458e-05
-5.70306e-05
-5.44118e-05
-5.16278e-05
-4.86293e-05
-4.59706e-05
-5.49886e-05
-5.23604e-05
-4.93576e-05
-4.65117e-05
-4.37791e-05
-4.1103e-05
-3.84777e-05
-3.59085e-05
-3.34003e-05
-3.09548e-05
-2.85755e-05
-2.62647e-05
-2.40263e-05
-2.18628e-05
-1.97782e-05
-1.77752e-05
-1.58581e-05
-1.40294e-05
-1.22933e-05
-1.06522e-05
-9.11007e-06
-7.66922e-06
-6.33322e-06
-5.10413e-06
-3.98503e-06
-2.97769e-06
-2.08463e-06
-1.30725e-06
-6.47385e-07
-1.06e-07
3.15792e-07
6.17559e-07
7.98932e-07
8.60072e-07
8.01353e-07
6.23564e-07
3.278e-07
-8.45143e-08
-6.11603e-07
-1.25142e-06
-2.00157e-06
-2.85941e-06
-3.82198e-06
-4.88611e-06
-6.04834e-06
-7.30501e-06
-8.65223e-06
-1.00859e-05
-1.16019e-05
-1.31956e-05
-1.48627e-05
-1.65983e-05
-1.83978e-05
-2.02562e-05
-2.21687e-05
-2.41302e-05
-2.61357e-05
-2.81802e-05
-3.02586e-05
-3.23659e-05
-3.44971e-05
-3.66472e-05
-3.88113e-05
-4.09845e-05
-4.31621e-05
-4.53392e-05
-4.75115e-05
-4.96743e-05
-5.18233e-05
-5.39542e-05
-5.6063e-05
-5.81455e-05
-6.0198e-05
-6.22166e-05
-6.41979e-05
-6.61383e-05
-6.80346e-05
-6.98836e-05
-7.16822e-05
-7.34277e-05
-7.51171e-05
-7.6748e-05
-7.83179e-05
-7.98243e-05
-8.12651e-05
-8.26383e-05
-8.39417e-05
-8.51737e-05
-8.63323e-05
-8.74161e-05
-8.84234e-05
-8.93528e-05
-9.0203e-05
-9.09727e-05
-9.16607e-05
-9.2266e-05
-9.27874e-05
-9.32241e-05
-9.3575e-05
-9.38394e-05
-9.40162e-05
-9.41051e-05
-9.41048e-05
-9.40152e-05
-9.38351e-05
-9.35643e-05
-9.32019e-05
-9.27476e-05
-9.22006e-05
-9.15607e-05
-9.08272e-05
-8.99999e-05
-8.90782e-05
-8.80621e-05
-8.69509e-05
-8.57447e-05
-8.4443e-05
-8.30457e-05
-8.15523e-05
-7.99626e-05
-7.82759e-05
-7.64918e-05
-7.46092e-05
-7.26274e-05
-7.05449e-05
-6.83603e-05
-6.60718e-05
-6.36775e-05
-6.11755e-05
-5.85657e-05
-5.58504e-05
-5.30183e-05
-5.0002e-05
-4.67485e-05
-4.3861e-05
-5.87627e-05
-5.59038e-05
-5.26382e-05
-4.9546e-05
-4.65799e-05
-4.36784e-05
-4.08352e-05
-3.80563e-05
-3.53467e-05
-3.27086e-05
-3.01454e-05
-2.76596e-05
-2.5255e-05
-2.29344e-05
-2.07017e-05
-1.85598e-05
-1.65127e-05
-1.45633e-05
-1.27153e-05
-1.09716e-05
-9.33566e-06
-7.81001e-06
-6.39793e-06
-5.10152e-06
-3.92359e-06
-2.86586e-06
-1.93054e-06
-1.1189e-06
-4.32487e-07
1.27956e-07
5.61633e-07
8.6837e-07
1.04813e-06
1.10137e-06
1.02882e-06
8.31566e-07
5.11067e-07
6.90831e-08
-4.92263e-07
-1.17058e-06
-1.96311e-06
-2.86688e-06
-3.87858e-06
-4.99469e-06
-6.21141e-06
-7.52475e-06
-8.9305e-06
-1.04243e-05
-1.20015e-05
-1.36574e-05
-1.53873e-05
-1.71861e-05
-1.90489e-05
-2.09704e-05
-2.29455e-05
-2.49691e-05
-2.70358e-05
-2.91404e-05
-3.12778e-05
-3.34427e-05
-3.56299e-05
-3.78343e-05
-4.0051e-05
-4.22748e-05
-4.45011e-05
-4.67249e-05
-4.89417e-05
-5.11469e-05
-5.33361e-05
-5.55049e-05
-5.76494e-05
-5.97654e-05
-6.18491e-05
-6.38968e-05
-6.59049e-05
-6.787e-05
-6.97889e-05
-7.16583e-05
-7.34755e-05
-7.52374e-05
-7.69415e-05
-7.85852e-05
-8.01661e-05
-8.16818e-05
-8.31303e-05
-8.45095e-05
-8.58175e-05
-8.70525e-05
-8.82127e-05
-8.92967e-05
-9.03028e-05
-9.12297e-05
-9.2076e-05
-9.28405e-05
-9.35219e-05
-9.41193e-05
-9.46313e-05
-9.50572e-05
-9.53957e-05
-9.56461e-05
-9.58072e-05
-9.58785e-05
-9.58587e-05
-9.57474e-05
-9.55434e-05
-9.52461e-05
-9.48545e-05
-9.43682e-05
-9.3786e-05
-9.31076e-05
-9.23317e-05
-9.14583e-05
-9.04862e-05
-8.94151e-05
-8.8244e-05
-8.69728e-05
-8.56003e-05
-8.41263e-05
-8.25498e-05
-8.087e-05
-7.90859e-05
-7.71965e-05
-7.52003e-05
-7.30958e-05
-7.08813e-05
-6.85547e-05
-6.61138e-05
-6.3556e-05
-6.08791e-05
-5.80827e-05
-5.5169e-05
-5.21258e-05
-4.88804e-05
-4.53756e-05
-4.2263e-05
-6.23002e-05
-5.92064e-05
-5.56732e-05
-5.23294e-05
-4.91243e-05
-4.59915e-05
-4.29242e-05
-3.99293e-05
-3.70119e-05
-3.41747e-05
-3.1421e-05
-2.87538e-05
-2.61768e-05
-2.36931e-05
-2.13066e-05
-1.90204e-05
-1.68384e-05
-1.47636e-05
-1.28e-05
-1.09502e-05
-9.21786e-06
-7.60544e-06
-6.11608e-06
-4.7519e-06
-3.51552e-06
-2.40858e-06
-1.43306e-06
-5.901e-07
1.19067e-07
6.93881e-07
1.13387e-06
1.43911e-06
1.60991e-06
1.64705e-06
1.55157e-06
1.32495e-06
9.68993e-07
4.85821e-07
-1.22061e-07
-8.51881e-07
-1.70051e-06
-2.66457e-06
-3.74038e-06
-4.92404e-06
-6.21136e-06
-7.59798e-06
-9.07932e-06
-1.06506e-05
-1.2307e-05
-1.40433e-05
-1.58545e-05
-1.77352e-05
-1.96801e-05
-2.16837e-05
-2.37407e-05
-2.58456e-05
-2.79928e-05
-3.01769e-05
-3.23925e-05
-3.46341e-05
-3.68964e-05
-3.91741e-05
-4.14621e-05
-4.37552e-05
-4.60485e-05
-4.8337e-05
-5.06161e-05
-5.28811e-05
-5.51276e-05
-5.73512e-05
-5.95478e-05
-6.17132e-05
-6.38438e-05
-6.59357e-05
-6.79854e-05
-6.99894e-05
-7.19447e-05
-7.3848e-05
-7.56964e-05
-7.74872e-05
-7.92178e-05
-8.08856e-05
-8.24882e-05
-8.40235e-05
-8.54894e-05
-8.68838e-05
-8.82049e-05
-8.9451e-05
-9.06204e-05
-9.17116e-05
-9.2723e-05
-9.36533e-05
-9.45011e-05
-9.52652e-05
-9.59444e-05
-9.65377e-05
-9.70436e-05
-9.74614e-05
-9.77899e-05
-9.80281e-05
-9.81749e-05
-9.82296e-05
-9.81908e-05
-9.80579e-05
-9.78297e-05
-9.75054e-05
-9.70838e-05
-9.65643e-05
-9.59455e-05
-9.52268e-05
-9.4407e-05
-9.34854e-05
-9.24608e-05
-9.13327e-05
-9.00996e-05
-8.87612e-05
-8.73159e-05
-8.57632e-05
-8.41015e-05
-8.23299e-05
-8.04468e-05
-7.84507e-05
-7.63397e-05
-7.41118e-05
-7.17647e-05
-6.92959e-05
-6.67026e-05
-6.39819e-05
-6.1131e-05
-5.81492e-05
-5.50389e-05
-5.17868e-05
-4.83149e-05
-4.45618e-05
-4.12269e-05
-6.55839e-05
-6.22491e-05
-5.8441e-05
-5.48388e-05
-5.13877e-05
-4.80165e-05
-4.47181e-05
-4.15001e-05
-3.8368e-05
-3.53249e-05
-3.23742e-05