/*--------------------------------*- C++ -*----------------------------------*\
  =========                 |
  \\      /  F ield         | OpenFOAM: The Open Source CFD Toolbox
   \\    /   O peration     | Website:  https://openfoam.org
    \\  /    A nd           | Version:  12
     \\/     M anipulation  |
\*---------------------------------------------------------------------------*/
FoamFile
{
    format      ascii;
    class       volVectorField;
    location    "3";
    object      U;
}
// * * * * * * * * * * * * * * * * * * * * * * * * * * * * * * * * * * * * * //

dimensions      [0 1 -1 0 0 0 0];

internalField   nonuniform List<vector> 
18225
(
(-2.21241e-07 2.69548e-07 0)
(-7.302e-07 5.08923e-07 0)
(-1.79842e-06 6.26533e-07 0)
(-2.98429e-06 6.95849e-07 0)
(-4.1655e-06 7.23672e-07 0)
(-5.22825e-06 7.00128e-07 0)
(-6.01908e-06 6.21932e-07 0)
(-6.48417e-06 5.16481e-07 0)
(-6.5387e-06 3.86353e-07 0)
(-6.1561e-06 2.47368e-07 0)
(-5.29591e-06 1.00447e-07 0)
(-3.95332e-06 -4.5888e-08 0)
(-2.11251e-06 -1.92126e-07 0)
(2.18957e-07 -3.33855e-07 0)
(3.04207e-06 -4.71897e-07 0)
(6.34175e-06 -6.03894e-07 0)
(1.01096e-05 -7.30507e-07 0)
(1.43264e-05 -8.50547e-07 0)
(1.89775e-05 -9.64409e-07 0)
(2.40409e-05 -1.07154e-06 0)
(2.94977e-05 -1.17208e-06 0)
(3.53244e-05 -1.26587e-06 0)
(4.1499e-05 -1.35287e-06 0)
(4.7997e-05 -1.43316e-06 0)
(5.47945e-05 -1.50659e-06 0)
(6.18662e-05 -1.57337e-06 0)
(6.91869e-05 -1.6333e-06 0)
(7.67312e-05 -1.68666e-06 0)
(8.4473e-05 -1.73326e-06 0)
(9.23868e-05 -1.77339e-06 0)
(0.000100446 -1.80691e-06 0)
(0.000108627 -1.83411e-06 0)
(0.000116901 -1.8549e-06 0)
(0.000125245 -1.86958e-06 0)
(0.000133633 -1.87809e-06 0)
(0.00014204 -1.88075e-06 0)
(0.000150442 -1.87755e-06 0)
(0.000158816 -1.86882e-06 0)
(0.000167137 -1.85455e-06 0)
(0.000175383 -1.83511e-06 0)
(0.000183532 -1.81049e-06 0)
(0.000191562 -1.78105e-06 0)
(0.000199452 -1.74681e-06 0)
(0.000207183 -1.70815e-06 0)
(0.000214734 -1.66504e-06 0)
(0.000222088 -1.61789e-06 0)
(0.000229226 -1.56669e-06 0)
(0.000236131 -1.51185e-06 0)
(0.000242788 -1.45336e-06 0)
(0.00024918 -1.39164e-06 0)
(0.000255294 -1.3267e-06 0)
(0.000261116 -1.25897e-06 0)
(0.000266633 -1.18845e-06 0)
(0.000271834 -1.11558e-06 0)
(0.000276708 -1.04038e-06 0)
(0.000281244 -9.63269e-07 0)
(0.000285435 -8.84267e-07 0)
(0.000289272 -8.03795e-07 0)
(0.000292748 -7.21857e-07 0)
(0.000295857 -6.3887e-07 0)
(0.000298593 -5.5483e-07 0)
(0.000300953 -4.70146e-07 0)
(0.000302933 -3.84815e-07 0)
(0.000304529 -2.99237e-07 0)
(0.000305741 -2.13401e-07 0)
(0.000306568 -1.27699e-07 0)
(0.000307009 -4.21212e-08 0)
(0.000307064 4.29609e-08 0)
(0.000306737 1.27549e-07 0)
(0.000306028 2.11333e-07 0)
(0.000304942 2.94319e-07 0)
(0.000303481 3.76161e-07 0)
(0.00030165 4.56908e-07 0)
(0.000299454 5.36249e-07 0)
(0.0002969 6.14219e-07 0)
(0.000293993 6.90534e-07 0)
(0.000290741 7.65216e-07 0)
(0.000287152 8.38011e-07 0)
(0.000283233 9.08923e-07 0)
(0.000278994 9.77721e-07 0)
(0.000274445 1.0444e-06 0)
(0.000269595 1.10874e-06 0)
(0.000264454 1.17073e-06 0)
(0.000259035 1.23018e-06 0)
(0.000253349 1.28705e-06 0)
(0.000247407 1.34118e-06 0)
(0.000241223 1.39253e-06 0)
(0.000234809 1.44092e-06 0)
(0.00022818 1.48634e-06 0)
(0.00022135 1.52859e-06 0)
(0.000214332 1.56768e-06 0)
(0.000207142 1.60339e-06 0)
(0.000199796 1.63575e-06 0)
(0.000192309 1.66453e-06 0)
(0.000184698 1.68974e-06 0)
(0.000176979 1.71116e-06 0)
(0.000169171 1.72881e-06 0)
(0.00016129 1.74244e-06 0)
(0.000153355 1.75207e-06 0)
(0.000145385 1.75743e-06 0)
(0.000137399 1.75855e-06 0)
(0.000129415 1.75513e-06 0)
(0.000121455 1.7472e-06 0)
(0.000113539 1.73443e-06 0)
(0.000105687 1.71686e-06 0)
(9.79213e-05 1.69414e-06 0)
(9.02631e-05 1.66628e-06 0)
(8.27346e-05 1.63292e-06 0)
(7.53585e-05 1.59408e-06 0)
(6.81576e-05 1.54934e-06 0)
(6.11553e-05 1.49874e-06 0)
(5.4375e-05 1.44183e-06 0)
(4.78407e-05 1.37865e-06 0)
(4.15762e-05 1.30872e-06 0)
(3.56058e-05 1.23209e-06 0)
(2.99532e-05 1.14827e-06 0)
(2.46427e-05 1.05733e-06 0)
(1.96977e-05 9.58803e-07 0)
(1.51412e-05 8.52805e-07 0)
(1.09955e-05 7.38959e-07 0)
(7.28151e-06 6.17535e-07 0)
(4.0186e-06 4.88362e-07 0)
(1.22361e-06 3.52051e-07 0)
(-1.0895e-06 2.08949e-07 0)
(-2.91139e-06 6.04152e-08 0)
(-4.238e-06 -9.20431e-08 0)
(-5.07354e-06 -2.4534e-07 0)
(-5.43169e-06 -3.95439e-07 0)
(-5.34066e-06 -5.35637e-07 0)
(-4.84551e-06 -6.56847e-07 0)
(-4.01569e-06 -7.45615e-07 0)
(-2.95108e-06 -7.8399e-07 0)
(-1.80274e-06 -7.46088e-07 0)
(-7.93059e-07 -5.90525e-07 0)
(-1.25469e-07 -2.71448e-07 0)
(-2.74621e-07 1.60855e-06 0)
(-1.4406e-06 3.38608e-06 0)
(-3.11856e-06 4.16105e-06 0)
(-4.9155e-06 4.31674e-06 0)
(-6.43682e-06 3.9362e-06 0)
(-7.45316e-06 3.12916e-06 0)
(-7.74612e-06 1.95099e-06 0)
(-7.15975e-06 5.14234e-07 0)
(-5.56054e-06 -1.12454e-06 0)
(-2.86159e-06 -2.88998e-06 0)
(1.00925e-06 -4.74471e-06 0)
(6.08953e-06 -6.64175e-06 0)
(1.24082e-05 -8.55808e-06 0)
(1.99689e-05 -1.04647e-05 0)
(2.87697e-05 -1.23472e-05 0)
(3.87908e-05 -1.41872e-05 0)
(5.00091e-05 -1.59754e-05 0)
(6.23885e-05 -1.76999e-05 0)
(7.58907e-05 -1.93543e-05 0)
(9.04682e-05 -2.09308e-05 0)
(0.000106072 -2.24249e-05 0)
(0.000122646 -2.38314e-05 0)
(0.000140134 -2.51472e-05 0)
(0.000158474 -2.6369e-05 0)
(0.000177605 -2.74945e-05 0)
(0.000197461 -2.85219e-05 0)
(0.000217977 -2.94496e-05 0)
(0.000239086 -3.02769e-05 0)
(0.000260719 -3.10029e-05 0)
(0.000282808 -3.16276e-05 0)
(0.000305284 -3.21507e-05 0)
(0.000328079 -3.2573e-05 0)
(0.000351123 -3.28949e-05 0)
(0.00037435 -3.31174e-05 0)
(0.000397689 -3.32417e-05 0)
(0.000421076 -3.32693e-05 0)
(0.000444444 -3.32018e-05 0)
(0.000467728 -3.30412e-05 0)
(0.000490864 -3.27894e-05 0)
(0.00051379 -3.24489e-05 0)
(0.000536446 -3.20218e-05 0)
(0.000558773 -3.15112e-05 0)
(0.000580713 -3.09194e-05 0)
(0.00060221 -3.02495e-05 0)
(0.000623212 -2.95043e-05 0)
(0.000643667 -2.86872e-05 0)
(0.000663525 -2.7801e-05 0)
(0.000682741 -2.68493e-05 0)
(0.000701268 -2.58352e-05 0)
(0.000719065 -2.47625e-05 0)
(0.000736092 -2.36343e-05 0)
(0.000752311 -2.24545e-05 0)
(0.000767686 -2.12263e-05 0)
(0.000782186 -1.99538e-05 0)
(0.00079578 -1.86403e-05 0)
(0.00080844 -1.72896e-05 0)
(0.000820141 -1.59052e-05 0)
(0.000830861 -1.4491e-05 0)
(0.00084058 -1.30502e-05 0)
(0.00084928 -1.15868e-05 0)
(0.000856945 -1.01041e-05 0)
(0.000863564 -8.60578e-06 0)
(0.000869125 -7.09507e-06 0)
(0.000873622 -5.57567e-06 0)
(0.000877048 -4.05066e-06 0)
(0.000879401 -2.52363e-06 0)
(0.000880679 -9.97551e-07 0)
(0.000880885 5.24124e-07 0)
(0.000880022 2.03859e-06 0)
(0.000878095 3.54255e-06 0)
(0.000875112 5.03332e-06 0)
(0.000871085 6.50776e-06 0)
(0.000866024 7.96335e-06 0)
(0.000859943 9.39713e-06 0)
(0.000852858 1.08067e-05 0)
(0.000844788 1.21893e-05 0)
(0.000835752 1.35426e-05 0)
(0.00082577 1.4864e-05 0)
(0.000814867 1.61513e-05 0)
(0.000803066 1.74021e-05 0)
(0.000790395 1.86142e-05 0)
(0.00077688 1.97853e-05 0)
(0.000762553 2.09135e-05 0)
(0.000747443 2.19964e-05 0)
(0.000731583 2.30322e-05 0)
(0.000715008 2.40188e-05 0)
(0.000697752 2.49542e-05 0)
(0.000679853 2.58366e-05 0)
(0.000661348 2.6664e-05 0)
(0.000642278 2.74344e-05 0)
(0.000622682 2.81463e-05 0)
(0.000602603 2.87975e-05 0)
(0.000582085 2.93864e-05 0)
(0.000561171 2.99112e-05 0)
(0.000539908 3.037e-05 0)
(0.000518344 3.07611e-05 0)
(0.000496526 3.10827e-05 0)
(0.000474503 3.1333e-05 0)
(0.000452327 3.15104e-05 0)
(0.00043005 3.16129e-05 0)
(0.000407724 3.1639e-05 0)
(0.000385404 3.15866e-05 0)
(0.000363145 3.14544e-05 0)
(0.000341003 3.12403e-05 0)
(0.000319035 3.0943e-05 0)
(0.0002973 3.05606e-05 0)
(0.000275857 3.00917e-05 0)
(0.000254766 2.95346e-05 0)
(0.000234087 2.88881e-05 0)
(0.000213882 2.81508e-05 0)
(0.000194213 2.73217e-05 0)
(0.000175141 2.63998e-05 0)
(0.00015673 2.53846e-05 0)
(0.000139039 2.42756e-05 0)
(0.000122132 2.3073e-05 0)
(0.000106069 2.17773e-05 0)
(9.09091e-05 2.039e-05 0)
(7.67094e-05 1.89128e-05 0)
(6.3525e-05 1.73493e-05 0)
(5.14073e-05 1.57036e-05 0)
(4.04033e-05 1.39821e-05 0)
(3.05544e-05 1.2193e-05 0)
(2.18944e-05 1.03479e-05 0)
(1.44484e-05 8.46144e-06 0)
(8.22952e-06 6.55371e-06 0)
(3.23684e-06 4.65046e-06 0)
(-5.49106e-07 2.78636e-06 0)
(-3.1695e-06 1.00615e-06 0)
(-4.69426e-06 -6.31063e-07 0)
(-5.22629e-06 -2.04902e-06 0)
(-4.91014e-06 -3.14905e-06 0)
(-3.94102e-06 -3.80618e-06 0)
(-2.58795e-06 -3.86529e-06 0)
(-1.21658e-06 -3.14116e-06 0)
(-1.76508e-07 -1.4332e-06 0)
(-2.04242e-07 3.08574e-06 0)
(-1.19679e-06 6.36145e-06 0)
(-2.42838e-06 7.46578e-06 0)
(-3.47921e-06 7.14128e-06 0)
(-3.91964e-06 5.65933e-06 0)
(-3.45614e-06 3.21671e-06 0)
(-1.83712e-06 -1.05839e-08 0)
(1.13484e-06 -3.83808e-06 0)
(5.61887e-06 -8.12381e-06 0)
(1.17333e-05 -1.27329e-05 0)
(1.95692e-05 -1.75655e-05 0)
(2.91838e-05 -2.25288e-05 0)
(4.06154e-05 -2.7555e-05 0)
(5.38757e-05 -3.25809e-05 0)
(6.8963e-05 -3.756e-05 0)
(8.58551e-05 -4.2449e-05 0)
(0.00010452 -4.72155e-05 0)
(0.000124911 -5.18294e-05 0)
(0.000146972 -5.62679e-05 0)
(0.000170639 -6.05098e-05 0)
(0.00019584 -6.4539e-05 0)
(0.000222495 -6.83405e-05 0)
(0.00025052 -7.1903e-05 0)
(0.000279827 -7.52163e-05 0)
(0.000310321 -7.82725e-05 0)
(0.000341908 -8.1065e-05 0)
(0.000374488 -8.35887e-05 0)
(0.00040796 -8.58399e-05 0)
(0.00044222 -8.78159e-05 0)
(0.000477166 -8.95151e-05 0)
(0.000512693 -9.0937e-05 0)
(0.000548695 -9.20818e-05 0)
(0.000585069 -9.29509e-05 0)
(0.000621708 -9.35462e-05 0)
(0.00065851 -9.38705e-05 0)
(0.000695372 -9.39273e-05 0)
(0.000732192 -9.37208e-05 0)
(0.00076887 -9.32557e-05 0)
(0.000805307 -9.25376e-05 0)
(0.000841408 -9.15722e-05 0)
(0.000877079 -9.03661e-05 0)
(0.000912227 -8.89262e-05 0)
(0.000946765 -8.72598e-05 0)
(0.000980606 -8.53746e-05 0)
(0.00101367 -8.32789e-05 0)
(0.00104587 -8.09811e-05 0)
(0.00107713 -7.84898e-05 0)
(0.00110738 -7.58142e-05 0)
(0.00113656 -7.29636e-05 0)
(0.00116458 -6.99474e-05 0)
(0.0011914 -6.67752e-05 0)
(0.00121695 -6.3457e-05 0)
(0.00124118 -6.00025e-05 0)
(0.00126403 -5.6422e-05 0)
(0.00128546 -5.27254e-05 0)
(0.00130542 -4.89228e-05 0)
(0.00132388 -4.50245e-05 0)
(0.00134079 -4.10405e-05 0)
(0.00135613 -3.69808e-05 0)
(0.00136988 -3.28556e-05 0)
(0.00138199 -2.86748e-05 0)
(0.00139246 -2.44481e-05 0)
(0.00140126 -2.01854e-05 0)
(0.00140839 -1.58962e-05 0)
(0.00141384 -1.159e-05 0)
(0.00141759 -7.27612e-06 0)
(0.00141966 -2.96366e-06 0)
(0.00142003 1.33842e-06 0)
(0.00141872 5.62132e-06 0)
(0.00141573 9.87649e-06 0)
(0.00141107 1.40955e-05 0)
(0.00140477 1.82702e-05 0)
(0.00139683 2.23927e-05 0)
(0.00138729 2.6455e-05 0)
(0.00137616 3.04497e-05 0)
(0.00136347 3.43694e-05 0)
(0.00134926 3.82069e-05 0)
(0.00133355 4.19552e-05 0)
(0.00131638 4.56075e-05 0)
(0.0012978 4.91571e-05 0)
(0.00127783 5.25975e-05 0)
(0.00125654 5.59225e-05 0)
(0.00123395 5.91259e-05 0)
(0.00121013 6.22016e-05 0)
(0.00118511 6.51439e-05 0)
(0.00115897 6.79468e-05 0)
(0.00113174 7.06049e-05 0)
(0.0011035 7.31125e-05 0)
(0.00107429 7.54642e-05 0)
(0.00104419 7.76548e-05 0)
(0.00101325 7.96789e-05 0)
(0.000981545 8.15313e-05 0)
(0.000949141 8.32071e-05 0)
(0.000916108 8.47011e-05 0)
(0.000882518 8.60083e-05 0)
(0.000848446 8.71239e-05 0)
(0.000813967 8.8043e-05 0)
(0.00077916 8.87608e-05 0)
(0.000744103 8.92726e-05 0)
(0.000708879 8.95736e-05 0)
(0.000673569 8.96594e-05 0)
(0.000638259 8.95255e-05 0)
(0.000603035 8.91674e-05 0)
(0.000567983 8.85811e-05 0)
(0.000533193 8.77624e-05 0)
(0.000498754 8.67076e-05 0)
(0.000464758 8.54132e-05 0)
(0.000431297 8.38759e-05 0)
(0.000398463 8.2093e-05 0)
(0.000366349 8.00623e-05 0)
(0.000335049 7.77819e-05 0)
(0.000304656 7.52511e-05 0)
(0.000275263 7.24698e-05 0)
(0.000246962 6.94391e-05 0)
(0.000219843 6.61615e-05 0)
(0.000193995 6.26411e-05 0)
(0.000169504 5.88839e-05 0)
(0.000146451 5.48986e-05 0)
(0.000124913 5.06967e-05 0)
(0.000104963 4.62936e-05 0)
(8.66631e-05 4.17093e-05 0)
(7.0069e-05 3.69693e-05 0)
(5.52242e-05 3.21062e-05 0)
(4.21589e-05 2.71614e-05 0)
(3.08867e-05 2.21871e-05 0)
(2.14022e-05 1.72488e-05 0)
(1.36761e-05 1.24288e-05 0)
(7.65171e-06 7.83011e-06 0)
(3.23936e-06 3.58098e-06 0)
(3.1189e-07 -1.59196e-07 0)
(-1.30226e-06 -3.19362e-06 0)
(-1.8262e-06 -5.28134e-06 0)
(-1.55285e-06 -6.12955e-06 0)
(-8.64386e-07 -5.38283e-06 0)
(-1.44352e-07 -2.61384e-06 0)
(-1.09293e-07 4.07742e-06 0)
(-5.12637e-07 8.03192e-06 0)
(-6.55415e-07 8.77121e-06 0)
(-1.58552e-07 7.22087e-06 0)
(1.38372e-06 3.81887e-06 0)
(4.27118e-06 -1.1185e-06 0)
(8.75518e-06 -7.30127e-06 0)
(1.50393e-05 -1.44604e-05 0)
(2.32876e-05 -2.23693e-05 0)
(3.36265e-05 -3.08261e-05 0)
(4.61519e-05 -3.96654e-05 0)
(6.09275e-05 -4.87412e-05 0)
(7.79935e-05 -5.79348e-05 0)
(9.73637e-05 -6.71411e-05 0)
(0.000119034 -7.62746e-05 0)
(0.000142977 -8.52595e-05 0)
(0.000169156 -9.40336e-05 0)
(0.000197511 -0.000102542 0)
(0.000227977 -0.000110739 0)
(0.000260472 -0.000118585 0)
(0.000294907 -0.000126047 0)
(0.000331185 -0.000133096 0)
(0.000369199 -0.000139708 0)
(0.000408837 -0.000145862 0)
(0.000449982 -0.000151542 0)
(0.000492512 -0.000156733 0)
(0.000536299 -0.000161426 0)
(0.000581217 -0.000165611 0)
(0.000627132 -0.000169282 0)
(0.000673911 -0.000172435 0)
(0.00072142 -0.000175069 0)
(0.000769523 -0.000177182 0)
(0.000818085 -0.000178776 0)
(0.00086697 -0.000179855 0)
(0.000916043 -0.000180422 0)
(0.000965172 -0.000180485 0)
(0.00101422 -0.000180049 0)
(0.00106307 -0.000179125 0)
(0.00111158 -0.000177721 0)
(0.00115962 -0.000175848 0)
(0.00120709 -0.000173518 0)
(0.00125385 -0.000170743 0)
(0.00129979 -0.000167538 0)
(0.0013448 -0.000163917 0)
(0.00138877 -0.000159895 0)
(0.00143159 -0.000155488 0)
(0.00147316 -0.000150711 0)
(0.00151339 -0.000145583 0)
(0.00155218 -0.00014012 0)
(0.00158945 -0.000134341 0)
(0.00162512 -0.000128263 0)
(0.0016591 -0.000121905 0)
(0.00169132 -0.000115286 0)
(0.00172172 -0.000108425 0)
(0.00175023 -0.000101341 0)
(0.00177679 -9.40528e-05 0)
(0.00180136 -8.658e-05 0)
(0.00182388 -7.89417e-05 0)
(0.00184431 -7.11571e-05 0)
(0.00186261 -6.32451e-05 0)
(0.00187876 -5.52249e-05 0)
(0.00189271 -4.7115e-05 0)
(0.00190446 -3.89342e-05 0)
(0.00191398 -3.07007e-05 0)
(0.00192127 -2.24326e-05 0)
(0.0019263 -1.41477e-05 0)
(0.00192909 -5.86361e-06 0)
(0.00192963 2.40259e-06 0)
(0.00192792 1.0634e-05 0)
(0.00192399 1.88141e-05 0)
(0.00191784 2.69268e-05 0)
(0.00190949 3.49562e-05 0)
(0.00189897 4.2887e-05 0)
(0.00188631 5.07041e-05 0)
(0.00187153 5.83929e-05 0)
(0.00185468 6.5939e-05 0)
(0.00183579 7.33286e-05 0)
(0.00181491 8.05479e-05 0)
(0.00179208 8.75838e-05 0)
(0.00176736 9.44234e-05 0)
(0.0017408 0.000101054 0)
(0.00171245 0.000107464 0)
(0.00168239 0.00011364 0)
(0.00165067 0.000119571 0)
(0.00161737 0.000125247 0)
(0.00158254 0.000130654 0)
(0.00154627 0.000135784 0)
(0.00150864 0.000140624 0)
(0.00146972 0.000145165 0)
(0.0014296 0.000149397 0)
(0.00138835 0.000153308 0)
(0.00134608 0.00015689 0)
(0.00130286 0.000160132 0)
(0.0012588 0.000163025 0)
(0.00121399 0.00016556 0)
(0.00116852 0.000167728 0)
(0.0011225 0.000169518 0)
(0.00107603 0.000170923 0)
(0.00102922 0.000171934 0)
(0.000982164 0.000172542 0)
(0.000934981 0.000172739 0)
(0.000887779 0.000172517 0)
(0.000840672 0.000171869 0)
(0.000793773 0.000170787 0)
(0.000747198 0.000169265 0)
(0.000701064 0.000167297 0)
(0.00065549 0.000164876 0)
(0.000610594 0.000161998 0)
(0.000566496 0.000158659 0)
(0.000523316 0.000154858 0)
(0.000481172 0.000150591 0)
(0.000440184 0.00014586 0)
(0.00040047 0.000140666 0)
(0.000362145 0.000135014 0)
(0.000325323 0.000128912 0)
(0.000290114 0.000122368 0)
(0.000256624 0.000115399 0)
(0.000224954 0.000108022 0)
(0.000195199 0.000100261 0)
(0.000167445 9.2149e-05 0)
(0.000141769 8.37239e-05 0)
(0.000118237 7.50349e-05 0)
(9.69001e-05 6.61423e-05 0)
(7.77956e-05 5.71209e-05 0)
(6.0941e-05 4.80618e-05 0)
(4.6333e-05 3.9077e-05 0)
(3.39427e-05 3.03025e-05 0)
(2.37138e-05 2.19038e-05 0)
(1.55569e-05 1.40811e-05 0)
(9.34687e-06 7.07632e-06 0)
(4.91729e-06 1.18033e-06 0)
(2.05601e-06 -3.25862e-06 0)
(4.95604e-07 -5.82401e-06 0)
(-9.36723e-08 -6.01279e-06 0)
(-7.18618e-08 -3.21254e-06 0)
(-2.25572e-08 4.24265e-06 0)
(3.47945e-07 7.59191e-06 0)
(1.62304e-06 6.87459e-06 0)
(4.13438e-06 3.10283e-06 0)
(8.21432e-06 -3.16335e-06 0)
(1.41268e-05 -1.15036e-05 0)
(2.20999e-05 -2.1531e-05 0)
(3.23205e-05 -3.28977e-05 0)
(4.49406e-05 -4.52998e-05 0)
(6.00774e-05 -5.84707e-05 0)
(7.78197e-05 -7.21815e-05 0)
(9.82257e-05 -8.62322e-05 0)
(0.00012133 -0.000100452 0)
(0.000147141 -0.000114691 0)
(0.000175647 -0.000128821 0)
(0.000206816 -0.000142731 0)
(0.000240598 -0.000156324 0)
(0.000276926 -0.000169518 0)
(0.000315721 -0.000182239 0)
(0.000356889 -0.000194424 0)
(0.000400326 -0.000206021 0)
(0.000445915 -0.000216983 0)
(0.000493534 -0.00022727 0)
(0.00054305 -0.000236848 0)
(0.000594325 -0.000245689 0)
(0.000647216 -0.00025377 0)
(0.000701572 -0.000261071 0)
(0.000757242 -0.000267578 0)
(0.000814069 -0.00027328 0)
(0.000871894 -0.000278168 0)
(0.000930558 -0.000282239 0)
(0.000989899 -0.00028549 0)
(0.00104975 -0.000287923 0)
(0.00110996 -0.000289543 0)
(0.00117036 -0.000290354 0)
(0.0012308 -0.000290367 0)
(0.0012911 -0.000289591 0)
(0.00135113 -0.00028804 0)
(0.00141072 -0.000285729 0)
(0.00146972 -0.000282673 0)
(0.00152798 -0.000278892 0)
(0.00158537 -0.000274405 0)
(0.00164173 -0.000269232 0)
(0.00169694 -0.000263397 0)
(0.00175087 -0.000256923 0)
(0.00180338 -0.000249836 0)
(0.00185435 -0.00024216 0)
(0.00190367 -0.000233922 0)
(0.00195123 -0.000225151 0)
(0.00199692 -0.000215873 0)
(0.00204063 -0.000206118 0)
(0.00208229 -0.000195915 0)
(0.00212179 -0.000185294 0)
(0.00215905 -0.000174285 0)
(0.002194 -0.000162918 0)
(0.00222656 -0.000151223 0)
(0.00225668 -0.000139231 0)
(0.0022843 -0.000126973 0)
(0.00230935 -0.000114478 0)
(0.0023318 -0.000101778 0)
(0.00235161 -8.89021e-05 0)
(0.00236874 -7.58807e-05 0)
(0.00238316 -6.27433e-05 0)
(0.00239486 -4.95192e-05 0)
(0.00240381 -3.62373e-05 0)
(0.00241001 -2.29261e-05 0)
(0.00241345 -9.6137e-06 0)
(0.00241414 3.6724e-06 0)
(0.00241208 1.69051e-05 0)
(0.00240728 3.0058e-05 0)
(0.00239976 4.3105e-05 0)
(0.00238955 5.60208e-05 0)
(0.00237668 6.87805e-05 0)
(0.00236117 8.13599e-05 0)
(0.00234307 9.37352e-05 0)
(0.00232242 0.000105884 0)
(0.00229927 0.000117782 0)
(0.00227367 0.000129409 0)
(0.00224568 0.000140743 0)
(0.00221536 0.000151763 0)
(0.00218278 0.000162449 0)
(0.002148 0.000172781 0)
(0.00211111 0.000182739 0)
(0.00207218 0.000192305 0)
(0.0020313 0.00020146 0)
(0.00198854 0.000210186 0)
(0.001944 0.000218465 0)
(0.00189778 0.000226281 0)
(0.00184997 0.000233617 0)
(0.00180067 0.000240455 0)
(0.00174998 0.000246781 0)
(0.00169802 0.000252577 0)
(0.00164489 0.000257829 0)
(0.0015907 0.000262522 0)
(0.00153558 0.00026664 0)
(0.00147964 0.000270169 0)
(0.001423 0.000273096 0)
(0.00136579 0.000275406 0)
(0.00130814 0.000277086 0)
(0.00125017 0.000278123 0)
(0.00119202 0.000278504 0)
(0.00113382 0.000278219 0)
(0.0010757 0.000277256 0)
(0.00101781 0.000275604 0)
(0.000960278 0.000273253 0)
(0.00090325 0.000270196 0)
(0.000846867 0.000266426 0)
(0.000791269 0.000261935 0)
(0.0007366 0.00025672 0)
(0.000683 0.000250779 0)
(0.000630611 0.000244111 0)
(0.000579573 0.00023672 0)
(0.000530025 0.000228611 0)
(0.000482102 0.000219793 0)
(0.000435937 0.00021028 0)
(0.000391658 0.000200092 0)
(0.000349389 0.000189253 0)
(0.000309245 0.000177795 0)
(0.000271337 0.000165758 0)
(0.000235764 0.000153193 0)
(0.000202616 0.000140161 0)
(0.00017197 0.000126738 0)
(0.000143889 0.000113014 0)
(0.000118418 9.91e-05 0)
(9.55863e-05 8.51276e-05 0)
(7.53993e-05 7.12553e-05 0)
(5.78398e-05 5.76718e-05 0)
(4.28646e-05 4.46014e-05 0)
(3.04004e-05 3.23101e-05 0)
(2.03435e-05 2.11126e-05 0)
(1.25538e-05 1.13798e-05 0)
(6.85544e-06 3.5473e-06 0)
(3.03654e-06 -1.87249e-06 0)
(8.58349e-07 -4.27106e-06 0)
(1.04311e-08 -2.92085e-06 0)
(5.76095e-08 3.50176e-06 0)
(1.27625e-06 4.72449e-06 0)
(4.12733e-06 1.22916e-06 0)
(8.89658e-06 -5.93818e-06 0)
(1.58216e-05 -1.61377e-05 0)
(2.51106e-05 -2.8869e-05 0)
(3.69525e-05 -4.3671e-05 0)
(5.15032e-05 -6.01284e-05 0)
(6.88897e-05 -7.78724e-05 0)
(8.92084e-05 -9.65773e-05 0)
(0.000112531 -0.000115957 0)
(0.000138901 -0.000135759 0)
(0.000168339 -0.000155763 0)
(0.000200842 -0.000175774 0)
(0.000236387 -0.000195623 0)
(0.000274929 -0.00021516 0)
(0.000316408 -0.000234254 0)
(0.000360744 -0.000252789 0)
(0.000407843 -0.000270664 0)
(0.0004576 -0.000287793 0)
(0.000509893 -0.000304097 0)
(0.000564591 -0.00031951 0)
(0.000621555 -0.000333975 0)
(0.000680634 -0.000347443 0)
(0.000741672 -0.000359871 0)
(0.000804505 -0.000371225 0)
(0.000868964 -0.000381475 0)
(0.000934875 -0.000390601 0)
(0.00100206 -0.000398583 0)
(0.00107034 -0.000405409 0)
(0.00113953 -0.000411073 0)
(0.00120945 -0.00041557 0)
(0.00127991 -0.0004189 0)
(0.00135073 -0.00042107 0)
(0.00142172 -0.000422085 0)
(0.0014927 -0.000421959 0)
(0.0015635 -0.000420706 0)
(0.00163392 -0.000418343 0)
(0.0017038 -0.000414891 0)
(0.00177295 -0.000410373 0)
(0.00184122 -0.000404814 0)
(0.00190844 -0.000398242 0)
(0.00197444 -0.000390687 0)
(0.00203907 -0.000382181 0)
(0.00210217 -0.000372756 0)
(0.00216361 -0.000362449 0)
(0.00222323 -0.000351296 0)
(0.00228092 -0.000339334 0)
(0.00233653 -0.000326603 0)
(0.00238994 -0.000313144 0)
(0.00244105 -0.000298996 0)
(0.00248974 -0.000284202 0)
(0.00253591 -0.000268804 0)
(0.00257946 -0.000252846 0)
(0.0026203 -0.00023637 0)
(0.00265836 -0.00021942 0)
(0.00269356 -0.00020204 0)
(0.00272582 -0.000184274 0)
(0.0027551 -0.000166165 0)
(0.00278133 -0.000147757 0)
(0.00280448 -0.000129093 0)
(0.0028245 -0.000110216 0)
(0.00284135 -9.11698e-05 0)
(0.00285502 -7.19956e-05 0)
(0.00286548 -5.27354e-05 0)
(0.00287273 -3.34302e-05 0)
(0.00287675 -1.41206e-05 0)
(0.00287755 5.15359e-06 0)
(0.00287514 2.43533e-05 0)
(0.00286953 4.34401e-05 0)
(0.00286075 6.23765e-05 0)
(0.00284881 8.11256e-05 0)
(0.00283375 9.96513e-05 0)
(0.00281562 0.000117918 0)
(0.00279445 0.000135893 0)
(0.0027703 0.000153541 0)
(0.00274321 0.000170829 0)
(0.00271326 0.000187726 0)
(0.00268051 0.000204201 0)
(0.00264503 0.000220223 0)
(0.0026069 0.000235763 0)
(0.0025662 0.000250791 0)
(0.00252301 0.00026528 0)
(0.00247743 0.000279201 0)
(0.00242955 0.000292529 0)
(0.00237948 0.000305237 0)
(0.00232731 0.000317299 0)
(0.00227315 0.00032869 0)
(0.00221713 0.000339387 0)
(0.00215935 0.000349365 0)
(0.00209993 0.000358601 0)
(0.002039 0.000367073 0)
(0.00197669 0.000374757 0)
(0.00191312 0.000381634 0)
(0.00184844 0.000387681 0)
(0.00178278 0.000392878 0)
(0.00171628 0.000397205 0)
(0.00164908 0.000400644 0)
(0.00158134 0.000403175 0)
(0.00151319 0.000404781 0)
(0.0014448 0.000405444 0)
(0.00137631 0.00040515 0)
(0.00130789 0.000403883 0)
(0.00123968 0.000401629 0)
(0.00117185 0.000398376 0)
(0.00110456 0.000394114 0)
(0.00103797 0.000388834 0)
(0.000972239 0.000382529 0)
(0.000907532 0.000375196 0)
(0.000844007 0.000366832 0)
(0.000781825 0.000357442 0)
(0.000721146 0.000347029 0)
(0.000662124 0.000335607 0)
(0.000604912 0.000323189 0)
(0.000549661 0.000309799 0)
(0.000496514 0.000295465 0)
(0.00044561 0.000280225 0)
(0.00039708 0.000264125 0)
(0.000351049 0.000247224 0)
(0.000307631 0.000229592 0)
(0.000266928 0.000211313 0)
(0.000229032 0.000192491 0)
(0.000194018 0.000173248 0)
(0.000161949 0.000153727 0)
(0.000132867 0.000134101 0)
(0.000106796 0.000114571 0)
(8.37387e-05 9.53734e-05 0)
(6.36756e-05 7.67837e-05 0)
(4.65617e-05 5.9124e-05 0)
(3.23268e-05 4.27688e-05 0)
(2.08718e-05 2.81516e-05 0)
(1.20709e-05 1.57734e-05 0)
(5.78338e-06 6.21312e-06 0)
(1.87626e-06 1.45292e-07 0)
(9.48761e-08 -1.64174e-06 0)
(1.32807e-07 1.83192e-06 0)
(2.21908e-06 -7.02472e-07 0)
(6.70627e-06 -8.41964e-06 0)
(1.38388e-05 -2.02701e-05 0)
(2.37564e-05 -3.55644e-05 0)
(3.66043e-05 -5.37462e-05 0)
(5.25244e-05 -7.43003e-05 0)
(7.16337e-05 -9.67579e-05 0)
(9.40258e-05 -0.000120698 0)
(0.000119768 -0.000145743 0)
(0.000148908 -0.000171557 0)
(0.000181466 -0.000197842 0)
(0.000217446 -0.000224329 0)
(0.000256824 -0.000250783 0)
(0.000299562 -0.000276993 0)
(0.0003456 -0.000302772 0)
(0.000394861 -0.000327953 0)
(0.000447251 -0.000352389 0)
(0.000502662 -0.000375951 0)
(0.00056097 -0.000398524 0)
(0.000622041 -0.000420006 0)
(0.000685727 -0.00044031 0)
(0.000751871 -0.000459358 0)
(0.000820306 -0.000477085 0)
(0.000890857 -0.000493433 0)
(0.000963343 -0.000508356 0)
(0.00103758 -0.000521813 0)
(0.00111336 -0.000533773 0)
(0.00119051 -0.000544212 0)
(0.00126881 -0.000553111 0)
(0.00134806 -0.000560459 0)
(0.00142807 -0.000566251 0)
(0.00150861 -0.000570485 0)
(0.0015895 -0.000573168 0)
(0.00167052 -0.000574308 0)
(0.00175148 -0.000573921 0)
(0.00183216 -0.000572024 0)
(0.00191237 -0.000568642 0)
(0.00199192 -0.0005638 0)
(0.00207061 -0.000557529 0)
(0.00214825 -0.000549861 0)
(0.00222466 -0.000540835 0)
(0.00229966 -0.000530488 0)
(0.00237307 -0.000518864 0)
(0.00244473 -0.000506007 0)
(0.00251447 -0.000491963 0)
(0.00258214 -0.000476781 0)
(0.00264759 -0.000460512 0)
(0.00271067 -0.000443208 0)
(0.00277125 -0.000424922 0)
(0.00282919 -0.00040571 0)
(0.00288439 -0.000385626 0)
(0.00293671 -0.000364729 0)
(0.00298606 -0.000343076 0)
(0.00303234 -0.000320723 0)
(0.00307545 -0.000297731 0)
(0.00311532 -0.000274157 0)
(0.00315186 -0.000250061 0)
(0.00318501 -0.000225501 0)
(0.00321471 -0.000200535 0)
(0.0032409 -0.000175223 0)
(0.00326355 -0.000149621 0)
(0.00328262 -0.000123788 0)
(0.00329807 -9.77795e-05 0)
(0.00330989 -7.16527e-05 0)
(0.00331806 -4.54628e-05 0)
(0.00332258 -1.92643e-05 0)
(0.00332345 6.88898e-06 0)
(0.00332068 3.29442e-05 0)
(0.00331428 5.88494e-05 0)
(0.00330428 8.45538e-05 0)
(0.00329071 0.000110008 0)
(0.0032736 0.000135162 0)
(0.00325299 0.000159969 0)
(0.00322895 0.000184383 0)
(0.00320152 0.000208357 0)
(0.00317076 0.000231847 0)
(0.00313675 0.000254811 0)
(0.00309956 0.000277205 0)
(0.00305927 0.000298988 0)
(0.00301596 0.00032012 0)
(0.00296973 0.000340562 0)
(0.00292068 0.000360276 0)
(0.0028689 0.000379224 0)
(0.00281451 0.000397369 0)
(0.00275761 0.000414677 0)
(0.00269833 0.000431113 0)
(0.00263678 0.000446643 0)
(0.00257309 0.000461235 0)
(0.00250739 0.000474855 0)
(0.00243982 0.000487474 0)
(0.00237051 0.000499059 0)
(0.00229961 0.000509583 0)
(0.00222727 0.000519016 0)
(0.00215364 0.00052733 0)
(0.00207886 0.000534498 0)
(0.0020031 0.000540493 0)
(0.00192652 0.000545292 0)
(0.00184929 0.000548869 0)
(0.00177156 0.000551201 0)
(0.00169351 0.000552268 0)
(0.0016153 0.000552048 0)
(0.00153712 0.000550524 0)
(0.00145914 0.000547677 0)
(0.00138152 0.000543494 0)
(0.00130446 0.000537962 0)
(0.00122813 0.000531071 0)
(0.00115271 0.000522814 0)
(0.00107837 0.000513188 0)
(0.0010053 0.000502194 0)
(0.000933665 0.000489837 0)
(0.000863647 0.000476128 0)
(0.000795418 0.000461081 0)
(0.000729145 0.000444722 0)
(0.000664993 0.000427081 0)
(0.000603122 0.000408198 0)
(0.000543685 0.000388123 0)
(0.00048683 0.000366919 0)
(0.000432696 0.000344661 0)
(0.000381411 0.000321439 0)
(0.000333096 0.000297363 0)
(0.000287856 0.000272561 0)
(0.000245787 0.000247183 0)
(0.000206969 0.000221406 0)
(0.000171466 0.000195436 0)
(0.000139326 0.000169513 0)
(0.000110579 0.000143913 0)
(8.52345e-05 0.000118956 0)
(6.32855e-05 9.50078e-05 0)
(4.47033e-05 7.24885e-05 0)
(2.94372e-05 5.18778e-05 0)
(1.74184e-05 3.37216e-05 0)
(8.58204e-06 1.86405e-05 0)
(2.90278e-06 7.34506e-06 0)
(1.76962e-07 6.48516e-07 0)
(2.03239e-07 -7.5787e-07 0)
(3.14928e-06 -8.71194e-06 0)
(9.27742e-06 -2.21485e-05 0)
(1.87979e-05 -4.00318e-05 0)
(3.17577e-05 -6.1644e-05 0)
(4.82389e-05 -8.63914e-05 0)
(6.83343e-05 -0.000113721 0)
(9.21185e-05 -0.000143122 0)
(0.000119647 -0.000174133 0)
(0.000150954 -0.000206334 0)
(0.000186057 -0.000239346 0)
(0.000224949 -0.000272828 0)
(0.000267609 -0.000306473 0)
(0.000313993 -0.000340004 0)
(0.000364041 -0.000373172 0)
(0.000417673 -0.000405756 0)
(0.000474794 -0.000437555 0)
(0.000535292 -0.00046839 0)
(0.000599041 -0.000498103 0)
(0.000665902 -0.000526552 0)
(0.000735721 -0.000553611 0)
(0.000808334 -0.000579171 0)
(0.000883566 -0.000603134 0)
(0.000961233 -0.000625417 0)
(0.00104114 -0.000645948 0)
(0.0011231 -0.000664665 0)
(0.00120689 -0.000681517 0)
(0.0012923 -0.000696464 0)
(0.00137913 -0.000709473 0)
(0.00146715 -0.000720521 0)
(0.00155614 -0.000729591 0)
(0.00164588 -0.000736676 0)
(0.00173614 -0.000741774 0)
(0.00182669 -0.000744891 0)
(0.00191733 -0.000746038 0)
(0.00200782 -0.000745233 0)
(0.00209794 -0.000742499 0)
(0.00218748 -0.000737865 0)
(0.00227622 -0.000731364 0)
(0.00236396 -0.000723034 0)
(0.00245048 -0.000712918 0)
(0.00253559 -0.00070106 0)
(0.00261908 -0.000687513 0)
(0.00270078 -0.000672328 0)
(0.00278049 -0.000655562 0)
(0.00285805 -0.000637276 0)
(0.00293327 -0.00061753 0)
(0.00300599 -0.00059639 0)
(0.00307606 -0.000573922 0)
(0.00314333 -0.000550194 0)
(0.00320766 -0.000525276 0)
(0.00326892 -0.00049924 0)
(0.00332697 -0.000472158 0)
(0.00338172 -0.000444104 0)
(0.00343303 -0.000415151 0)
(0.00348083 -0.000385376 0)
(0.00352501 -0.000354852 0)
(0.00356549 -0.000323655 0)
(0.00360221 -0.000291861 0)
(0.00363509 -0.000259544 0)
(0.00366408 -0.000226779 0)
(0.00368912 -0.00019364 0)
(0.00371019 -0.000160202 0)
(0.00372725 -0.000126538 0)
(0.00374028 -9.27183e-05 0)
(0.00374926 -5.88158e-05 0)
(0.00375418 -2.49002e-05 0)
(0.00375505 8.95923e-06 0)
(0.00375188 4.26945e-05 0)
(0.00374469 7.62386e-05 0)
(0.0037335 0.000109526 0)
(0.00371834 0.000142493 0)
(0.00369926 0.000175076 0)
(0.0036763 0.000207214 0)
(0.00364952 0.000238847 0)
(0.00361897 0.000269915 0)
(0.00358474 0.000300362 0)
(0.00354688 0.000330131 0)
(0.00350549 0.000359168 0)
(0.00346066 0.000387419 0)
(0.00341247 0.000414833 0)
(0.00336103 0.000441358 0)
(0.00330645 0.000466945 0)
(0.00324883 0.000491547 0)
(0.0031883 0.000515115 0)
(0.00312497 0.000537605 0)
(0.00305898 0.000558972 0)
(0.00299046 0.000579173 0)
(0.00291955 0.000598164 0)
(0.00284638 0.000615906 0)
(0.00277112 0.000632358 0)
(0.00269391 0.000647481 0)
(0.0026149 0.000661237 0)
(0.00253426 0.00067359 0)
(0.00245216 0.000684504 0)
(0.00236875 0.000693946 0)
(0.00228422 0.000701881 0)
(0.00219874 0.00070828 0)
(0.00211249 0.00071311 0)
(0.00202564 0.000716345 0)
(0.00193839 0.000717958 0)
(0.00185092 0.000717923 0)
(0.00176341 0.000716219 0)
(0.00167607 0.000712825 0)
(0.00158907 0.000707724 0)