/*--------------------------------*- C++ -*----------------------------------*\
  =========                 |
  \\      /  F ield         | OpenFOAM: The Open Source CFD Toolbox
   \\    /   O peration     | Website:  https://openfoam.org
    \\  /    A nd           | Version:  12
     \\/     M anipulation  |
\*---------------------------------------------------------------------------*/
FoamFile
{
    format      ascii;
    class       volScalarField;
    location    "10";
    object      k;
}
// * * * * * * * * * * * * * * * * * * * * * * * * * * * * * * * * * * * * * //

dimensions      [0 2 -2 0 0 0 0];

internalField   nonuniform List<scalar> 
5625
(
9.71816e-11
6.5733e-10
1.46305e-09
2.42075e-09
3.48591e-09
4.63076e-09
5.83661e-09
7.09157e-09
8.38968e-09
9.73055e-09
1.11192e-08
1.25656e-08
1.40848e-08
1.56962e-08
1.74234e-08
1.92936e-08
2.13379e-08
2.35899e-08
2.60862e-08
2.88658e-08
3.19693e-08
3.54392e-08
3.93189e-08
4.36528e-08
4.84851e-08
5.38602e-08
5.98213e-08
6.64105e-08
7.36681e-08
8.16318e-08
9.03366e-08
9.98142e-08
1.10093e-07
1.21197e-07
1.33146e-07
1.45956e-07
1.59638e-07
1.74196e-07
1.89631e-07
2.05933e-07
2.23086e-07
2.41061e-07
2.59812e-07
2.79274e-07
2.99357e-07
3.19934e-07
3.40836e-07
3.61841e-07
3.82666e-07
4.02953e-07
4.2226e-07
4.40057e-07
4.55707e-07
4.68435e-07
4.77043e-07
4.809e-07
4.81038e-07
4.74836e-07
4.6196e-07
4.42358e-07
4.16235e-07
3.8418e-07
3.47224e-07
3.06796e-07
2.64602e-07
2.22444e-07
1.8201e-07
1.44682e-07
1.1141e-07
8.26592e-08
5.84562e-08
3.85077e-08
2.23908e-08
9.84138e-09
1.44955e-09
7.34514e-10
5.85395e-09
1.31278e-08
2.17571e-08
3.13492e-08
4.16562e-08
5.25106e-08
6.38056e-08
7.54876e-08
8.75534e-08
1.00048e-07
1.13061e-07
1.26729e-07
1.41225e-07
1.56762e-07
1.73587e-07
1.91976e-07
2.12233e-07
2.34689e-07
2.59693e-07
2.87612e-07
3.18827e-07
3.53731e-07
3.92721e-07
4.36197e-07
4.84556e-07
5.3819e-07
5.97476e-07
6.62776e-07
7.3443e-07
8.12752e-07
8.98029e-07
9.90513e-07
1.09042e-06
1.19794e-06
1.31319e-06
1.43629e-06
1.56728e-06
1.70614e-06
1.85282e-06
2.00714e-06
2.16886e-06
2.33756e-06
2.51267e-06
2.69336e-06
2.87851e-06
3.06661e-06
3.25566e-06
3.44312e-06
3.62577e-06
3.79966e-06
3.96001e-06
4.10114e-06
4.21609e-06
4.29387e-06
4.3276e-06
4.32827e-06
4.27143e-06
4.1546e-06
3.97739e-06
3.7417e-06
3.45287e-06
3.1202e-06
2.75653e-06
2.37716e-06
1.99824e-06
1.6349e-06
1.29953e-06
1.0006e-06
7.42293e-07
5.24832e-07
3.45557e-07
2.00593e-07
8.75189e-08
1.09455e-08
1.56054e-09
1.33727e-08
3.01842e-08
5.01287e-08
7.22931e-08
9.61033e-08
1.21172e-07
1.47253e-07
1.74222e-07
2.02072e-07
2.30905e-07
2.60934e-07
2.92468e-07
3.25913e-07
3.6176e-07
4.00579e-07
4.43012e-07
4.89764e-07
5.41598e-07
5.99324e-07
6.63795e-07
7.35895e-07
8.16533e-07
9.06636e-07
1.00714e-06
1.11896e-06
1.24302e-06
1.3802e-06
1.53136e-06
1.69729e-06
1.87873e-06
2.07638e-06
2.29083e-06
2.5226e-06
2.77213e-06
3.03974e-06
3.32567e-06
3.63002e-06
3.95275e-06
4.29368e-06
4.65237e-06
5.02816e-06
5.42003e-06
5.82652e-06
6.24559e-06
6.6745e-06
7.1096e-06
7.54616e-06
7.97816e-06
8.39811e-06
8.79682e-06
9.1633e-06
9.48458e-06
9.7454e-06
9.91885e-06
9.99125e-06
9.99074e-06
9.85613e-06
9.58354e-06
9.17229e-06
8.62658e-06
7.95867e-06
7.1899e-06
6.34989e-06
5.474e-06
4.59957e-06
3.76154e-06
2.98849e-06
2.29991e-06
1.70528e-06
1.20495e-06
7.92616e-07
4.59243e-07
1.99128e-07
2.31622e-08
2.55357e-09
2.24263e-08
5.0863e-08
8.46408e-08
1.22183e-07
1.62508e-07
2.04954e-07
2.49102e-07
2.94741e-07
3.41858e-07
3.9063e-07
4.41415e-07
4.94742e-07
5.51299e-07
6.11922e-07
6.7758e-07
7.49365e-07
8.28478e-07
9.16217e-07
1.01396e-06
1.12317e-06
1.24535e-06
1.38206e-06
1.53488e-06
1.70542e-06
1.89526e-06
2.106e-06
2.33915e-06
2.5962e-06
2.87855e-06
3.18748e-06
3.52418e-06
3.88971e-06
4.28496e-06
4.71066e-06
5.16734e-06
5.65535e-06
6.17475e-06
6.72535e-06
7.3066e-06
7.91754e-06
8.55673e-06
9.22211e-06
9.91084e-06
1.06191e-05
1.1342e-05
1.20731e-05
1.28043e-05
1.35254e-05
1.42242e-05
1.48855e-05
1.54915e-05
1.60212e-05
1.64509e-05
1.67328e-05
1.68473e-05
1.6845e-05
1.66168e-05
1.61579e-05
1.54667e-05
1.45489e-05
1.34241e-05
1.21276e-05
1.07093e-05
9.22912e-06
7.75089e-06
6.33443e-06
5.02864e-06
3.86669e-06
2.86444e-06
2.0221e-06
1.32858e-06
7.68258e-07
3.31577e-07
3.763e-08
3.68386e-09
3.26756e-08
7.43638e-08
1.23965e-07
1.79118e-07
2.38357e-07
3.00699e-07
3.65522e-07
4.32514e-07
5.01657e-07
5.73211e-07
6.47707e-07
7.25926e-07
8.08886e-07
8.97823e-07
9.9417e-07
1.09954e-06
1.21572e-06
1.34463e-06
1.48831e-06
1.64892e-06
1.82872e-06
2.03003e-06
2.25521e-06
2.50666e-06
2.78678e-06
3.09794e-06
3.44245e-06
3.82254e-06
4.24032e-06
4.69774e-06
5.19656e-06
5.73834e-06
6.32433e-06
6.9555e-06
7.63246e-06
8.35541e-06
9.1241e-06
9.93774e-06
1.07949e-05
1.16936e-05
1.26308e-05
1.36027e-05
1.46046e-05
1.56303e-05
1.66722e-05
1.77208e-05
1.87647e-05
1.979e-05
2.07798e-05
2.17139e-05
2.25682e-05
2.33144e-05
2.39209e-05
2.43188e-05
2.44805e-05
2.44816e-05
2.41601e-05
2.35069e-05
2.2518e-05
2.11986e-05
1.95742e-05
1.76939e-05
1.56297e-05
1.34697e-05
1.13086e-05
9.23616e-06
7.32572e-06
5.62708e-06
4.16384e-06
2.93592e-06
1.92641e-06
1.11187e-06
4.78252e-07
5.37331e-08
4.93138e-09
4.39464e-08
1.0026e-07
1.67377e-07
2.4205e-07
3.22259e-07
4.06656e-07
4.94386e-07
5.85022e-07
6.78539e-07
7.75296e-07
8.76016e-07
9.81767e-07
1.09394e-06
1.21422e-06
1.34458e-06
1.48721e-06
1.64456e-06
1.81926e-06
2.01411e-06
2.23209e-06
2.47629e-06
2.74991e-06
3.05623e-06
3.39857e-06
3.78026e-06
4.20458e-06
4.67476e-06
5.19388e-06
5.76484e-06
6.3903e-06
7.07259e-06
7.81367e-06
8.61503e-06
9.47759e-06
1.04016e-05
1.13868e-05
1.24317e-05
1.35342e-05
1.46913e-05
1.58989e-05
1.71516e-05
1.84433e-05
1.97664e-05
2.11123e-05
2.24707e-05
2.38299e-05
2.51759e-05
2.64923e-05
2.77593e-05
2.89533e-05
3.00456e-05
3.1002e-05
3.17835e-05
3.23059e-05
3.25256e-05
3.254e-05
3.2142e-05
3.13073e-05
3.00291e-05
2.83087e-05
2.61748e-05
2.36892e-05
2.09454e-05
1.80615e-05
1.51664e-05
1.23837e-05
9.81561e-06
7.53222e-06
5.56696e-06
3.92018e-06
2.56859e-06
1.47993e-06
6.34967e-07
7.09968e-08
6.28439e-09
5.61444e-08
1.28314e-07
2.14461e-07
3.10367e-07
4.13394e-07
5.21785e-07
6.34424e-07
7.50756e-07
8.70749e-07
9.94871e-07
1.12406e-06
1.25971e-06
1.40363e-06
1.558e-06
1.72539e-06
1.90865e-06
2.11097e-06
2.33577e-06
2.58671e-06
2.86769e-06
3.18275e-06
3.53608e-06
3.93201e-06
4.37488e-06
4.86908e-06
5.41894e-06
6.02866e-06
6.70225e-06
7.4434e-06
8.25542e-06
9.14106e-06
1.01024e-05
1.11408e-05
1.22566e-05
1.3449e-05
1.47161e-05
1.60547e-05
1.74601e-05
1.89265e-05
2.04467e-05
2.20125e-05
2.36145e-05
2.52427e-05
2.68862e-05
2.85333e-05
3.01712e-05
3.17853e-05
3.33588e-05
3.48713e-05
3.62977e-05
3.76066e-05
3.87591e-05
3.97087e-05
4.03644e-05
4.06546e-05
4.0694e-05
4.02448e-05
3.92543e-05
3.77133e-05
3.56167e-05
3.29933e-05
2.99144e-05
2.64931e-05
2.28759e-05
1.92265e-05
1.57051e-05
1.24465e-05
9.54501e-06
7.04739e-06
4.95638e-06
3.24292e-06
1.86543e-06
7.9881e-07
8.90797e-08
7.73655e-09
6.92199e-08
1.58399e-07
2.64986e-07
3.8372e-07
5.11288e-07
6.45477e-07
7.84885e-07
9.28817e-07
1.07723e-06
1.23072e-06
1.39047e-06
1.55822e-06
1.73625e-06
1.9273e-06
2.13458e-06
2.3617e-06
2.61264e-06
2.89172e-06
3.20357e-06
3.55307e-06
3.94536e-06
4.38573e-06
4.87964e-06
5.43262e-06
6.05018e-06
6.73775e-06
7.50056e-06
8.34351e-06
9.27099e-06
1.02867e-05
1.13936e-05
1.25933e-05
1.38864e-05
1.52716e-05
1.67463e-05
1.83058e-05
1.99437e-05
2.16518e-05
2.34203e-05
2.52383e-05
2.70942e-05
2.89759e-05
3.08715e-05
3.27692e-05
3.46578e-05
3.65256e-05
3.83599e-05
4.01457e-05
4.18639e-05
4.34894e-05
4.4989e-05
4.63196e-05
4.74272e-05
4.82193e-05
4.85881e-05
4.8661e-05
4.81856e-05
4.70688e-05
4.53021e-05
4.28719e-05
3.98042e-05
3.61753e-05
3.21131e-05
2.77883e-05
2.3397e-05
1.91355e-05
1.51743e-05
1.1636e-05
8.5855e-06
6.03141e-06
3.94087e-06
2.26346e-06
9.67709e-07
1.07742e-07
9.28508e-09
8.31524e-08
1.90457e-07
3.18844e-07
4.61938e-07
6.15695e-07
7.77409e-07
9.45365e-07
1.11871e-06
1.29741e-06
1.48218e-06
1.67448e-06
1.87644e-06
2.09086e-06
2.32109e-06
2.57107e-06
2.84521e-06
3.14839e-06
3.48591e-06
3.86345e-06
4.28702e-06
4.76292e-06
5.29767e-06
5.89797e-06
6.57057e-06
7.3222e-06
8.1594e-06
9.08838e-06
1.01148e-05
1.12434e-05
1.24781e-05
1.38212e-05
1.52733e-05
1.6833e-05
1.84969e-05
2.02586e-05
2.21097e-05
2.40393e-05
2.60346e-05
2.80813e-05
3.01646e-05
3.22699e-05
3.43835e-05
3.64933e-05
3.85892e-05
4.06625e-05
4.2705e-05
4.47082e-05
4.66602e-05
4.85442e-05
5.03353e-05
5.19984e-05
5.34857e-05
5.47356e-05
5.56568e-05
5.61017e-05
5.62103e-05
5.57267e-05
5.45125e-05
5.25626e-05
4.98544e-05
4.64077e-05
4.22986e-05
3.76628e-05
3.26878e-05
2.75965e-05
2.26191e-05
1.79626e-05
1.37826e-05
1.01672e-05
7.13636e-06
4.65681e-06
2.67075e-06
1.14022e-06
1.26827e-07
1.09297e-08
9.7942e-08
2.24484e-07
3.76014e-07
5.44974e-07
7.2654e-07
9.17469e-07
1.11571e-06
1.32024e-06
1.53103e-06
1.74894e-06
1.97573e-06
2.21398e-06
2.46703e-06
2.73893e-06
3.03438e-06
3.35871e-06
3.71776e-06
4.11791e-06
4.56598e-06
5.0692e-06
5.63513e-06
6.27162e-06
6.98666e-06
7.7883e-06
8.68445e-06
9.68271e-06
1.07901e-05
1.20127e-05
1.33554e-05
1.48214e-05
1.64117e-05
1.8125e-05
1.99568e-05
2.18998e-05
2.3943e-05
2.60729e-05
2.82731e-05
3.05256e-05
3.28118e-05
3.51135e-05
3.74148e-05
3.97022e-05
4.19662e-05
4.42005e-05
4.64016e-05
4.85667e-05
5.06919e-05
5.27693e-05
5.47834e-05
5.67087e-05
5.85068e-05
6.01244e-05
6.14932e-05
6.25227e-05
6.30307e-05
6.31692e-05
6.26871e-05
6.14025e-05
5.93148e-05
5.63925e-05
5.26465e-05
4.81467e-05
4.30276e-05
3.74848e-05
3.17597e-05
2.61117e-05
2.0784e-05
1.59687e-05
1.17835e-05
8.26596e-06
5.3875e-06
3.08536e-06
1.31542e-06
1.46266e-07
1.26719e-08
1.13604e-07
2.6051e-07
4.36539e-07
6.32879e-07
8.43872e-07
1.0657e-06
1.29595e-06
1.53343e-06
1.77809e-06
2.031e-06
2.29421e-06
2.5708e-06
2.86472e-06
3.18076e-06
3.52449e-06
3.90218e-06
4.32077e-06
4.78777e-06
5.31125e-06
5.89973e-06
6.56214e-06
7.30767e-06
8.14567e-06
9.08546e-06
1.01361e-05
1.1306e-05
1.26027e-05
1.40324e-05
1.55994e-05
1.73054e-05
1.91492e-05
2.11262e-05
2.32277e-05
2.5441e-05
2.77496e-05
3.01336e-05
3.25709e-05
3.50385e-05
3.75142e-05
3.99786e-05
4.24163e-05
4.48171e-05
4.71765e-05
4.94945e-05
5.1774e-05
5.40186e-05
5.62287e-05
5.83984e-05
6.05122e-05
6.25417e-05
6.44441e-05
6.61606e-05
6.76172e-05
6.87226e-05
6.92733e-05
6.94311e-05
6.89516e-05
6.76219e-05
6.54426e-05
6.23738e-05
5.84154e-05
5.36248e-05
4.8127e-05
4.21152e-05
3.58396e-05
2.95822e-05
2.362e-05
1.81846e-05
1.34297e-05
9.41804e-06
6.1317e-06
3.50646e-06
1.49291e-06
1.6599e-07
1.45147e-08
1.30166e-07
2.98596e-07
5.00513e-07
7.25775e-07
9.6784e-07
1.22228e-06
1.48628e-06
1.75847e-06
2.03881e-06
2.32855e-06
2.63013e-06
2.94712e-06
3.28416e-06
3.64684e-06
4.04165e-06
4.47593e-06
4.95774e-06
5.49584e-06
6.0996e-06
6.77894e-06
7.54417e-06
8.40588e-06
9.37474e-06
1.04613e-05
1.16755e-05
1.30264e-05
1.45216e-05
1.61669e-05
1.79649e-05
1.99153e-05
2.20132e-05
2.42495e-05
2.661e-05
2.90756e-05
3.16231e-05
3.42262e-05
3.68572e-05
3.94894e-05
4.20989e-05
4.46672e-05
4.71828e-05
4.96414e-05
5.20458e-05
5.44036e-05
5.67249e-05
5.90181e-05
6.12863e-05
6.35233e-05
6.57108e-05
6.78161e-05
6.97907e-05
7.15712e-05
7.30797e-05
7.42233e-05
7.47931e-05
7.49586e-05
7.44756e-05
7.31242e-05
7.08971e-05
6.77472e-05
6.36618e-05
5.86815e-05
5.29138e-05
4.65392e-05
3.98063e-05
3.30108e-05
2.64599e-05
2.0426e-05
1.51051e-05
1.0593e-05
6.88982e-06
3.93415e-06
1.67266e-06
1.85983e-07
1.64621e-08
1.47665e-07
3.38826e-07
5.68071e-07
8.23849e-07
1.09867e-06
1.38746e-06
1.68699e-06
1.99568e-06
2.31353e-06
2.64197e-06
2.98386e-06
3.34333e-06
3.72574e-06
4.13757e-06
4.5863e-06
5.08038e-06
5.6291e-06
6.24253e-06
6.93142e-06
7.70709e-06
8.58128e-06
9.56598e-06
1.06731e-05
1.19142e-05
1.32999e-05
1.48395e-05
1.65403e-05
1.84064e-05
2.04385e-05
2.26324e-05
2.4979e-05
2.7463e-05
3.00637e-05
3.27548e-05
3.55061e-05
3.82853e-05
4.10604e-05
4.38028e-05
4.64897e-05
4.91067e-05
5.16489e-05
5.41203e-05
5.65323e-05
5.89007e-05
6.1241e-05
6.35646e-05
6.58743e-05
6.81607e-05
7.04005e-05
7.2555e-05
7.45707e-05
7.63806e-05
7.79057e-05
7.90505e-05
7.96172e-05
7.97795e-05
7.9285e-05
7.79285e-05
7.5692e-05
7.25176e-05
6.83811e-05
6.33035e-05
5.73692e-05
5.07369e-05
4.36426e-05
3.63863e-05
2.92986e-05
2.26925e-05
1.68117e-05
1.17933e-05
7.66356e-06
4.36922e-06
1.85493e-06
2.06269e-07
1.85191e-08
1.66146e-07
3.81302e-07
6.3938e-07
9.27331e-07
1.23667e-06
1.56161e-06
1.89848e-06
2.24552e-06
2.60272e-06
2.97176e-06
3.35591e-06
3.75995e-06
4.19e-06
4.65348e-06
5.15895e-06
5.71604e-06
6.33532e-06
7.02822e-06
7.80693e-06
8.6842e-06
9.67319e-06
1.07872e-05
1.20392e-05
1.34415e-05
1.50053e-05
1.67394e-05
1.86498e-05
2.07387e-05
2.30033e-05
2.54348e-05
2.80182e-05
3.07314e-05
3.3546e-05
3.64286e-05
3.93423e-05
4.22499e-05
4.51171e-05
4.79164e-05
5.06291e-05
5.32481e-05
5.57775e-05
5.82309e-05
6.06289e-05
6.29935e-05
6.53439e-05
6.76912e-05
7.00346e-05
7.23591e-05
7.46345e-05
7.68161e-05
7.88463e-05
8.06562e-05
8.21682e-05
8.32838e-05
8.38293e-05
8.39794e-05
8.34653e-05
8.21112e-05
7.9893e-05
7.67365e-05
7.26077e-05
6.75086e-05
6.14971e-05
5.47033e-05
4.73409e-05
3.97025e-05
3.21339e-05
2.49859e-05
1.85531e-05
1.30226e-05
8.4555e-06
4.81297e-06
2.04014e-06
2.26892e-07
2.06915e-08
1.85664e-07
4.26146e-07
7.14636e-07
1.0365e-06
1.38217e-06
1.74513e-06
2.12124e-06
2.50851e-06
2.90695e-06
3.31849e-06
3.74689e-06
4.19758e-06
4.67753e-06
5.19515e-06
5.76014e-06
6.38337e-06
7.07675e-06
7.85314e-06
8.72614e-06
9.70995e-06
1.0819e-05
1.20679e-05
1.34705e-05
1.50395e-05
1.6786e-05
1.87178e-05
2.08391e-05
2.31488e-05
2.56398e-05
2.82974e-05
3.10998e-05
3.40173e-05
3.70137e-05
4.00485e-05
4.30793e-05
4.60664e-05
4.8976e-05
5.17845e-05
5.44807e-05
5.70673e-05
5.95589e-05
6.19795e-05
6.4357e-05
6.6718e-05
6.90816e-05
7.14557e-05
7.3833e-05
7.61909e-05
7.84919e-05
8.06858e-05
8.27119e-05
8.45016e-05
8.59805e-05
8.7046e-05
8.75577e-05
8.76888e-05
8.71459e-05
8.57941e-05
8.36048e-05
8.0491e-05
7.64067e-05
7.13386e-05
6.53186e-05
5.84444e-05
5.08985e-05
4.29551e-05
3.49641e-05
2.73078e-05
2.03332e-05
1.42851e-05
9.26873e-06
5.26701e-06
2.22888e-06
2.47914e-07
2.29859e-08
2.06276e-07
4.7349e-07
7.94059e-07
1.15166e-06
1.53558e-06
1.93851e-06
2.35581e-06
2.78523e-06
3.22683e-06
3.68282e-06
4.15744e-06
4.65685e-06
5.18891e-06
5.76311e-06
6.39032e-06
7.08271e-06
7.8536e-06
8.71724e-06
9.68868e-06
1.07835e-05
1.20174e-05
1.34059e-05
1.49634e-05
1.6703e-05
1.86347e-05
2.07649e-05
2.30949e-05
2.56196e-05
2.83261e-05
3.11933e-05
3.41915e-05
3.72833e-05
4.04249e-05
4.35697e-05
4.66722e-05
4.96924e-05
5.26002e-05
5.53794e-05
5.80291e-05
6.05633e-05
6.30079e-05
6.53959e-05
6.77608e-05
7.01302e-05
7.25204e-05
7.49327e-05
7.73515e-05
7.97458e-05
8.20708e-05
8.42717e-05
8.62863e-05
8.80471e-05
8.94837e-05
9.04886e-05
9.09594e-05
9.1067e-05
9.04846e-05
8.91274e-05
8.69596e-05
8.38926e-05
7.98654e-05
7.48539e-05
6.88687e-05
6.19743e-05
5.43165e-05
4.614e-05
3.7786e-05
2.96586e-05
2.21555e-05
1.55849e-05
1.01065e-05
5.73311e-06
2.42178e-06
2.69402e-07
2.54095e-08
2.28048e-07
5.23481e-07
8.77891e-07
1.27315e-06
1.69733e-06
2.14227e-06
2.60277e-06
3.07634e-06
3.56306e-06
4.06542e-06
4.58823e-06
5.13839e-06
5.72473e-06
6.35783e-06
7.04984e-06
7.81426e-06
8.6658e-06
9.62014e-06
1.06937e-05
1.19034e-05
1.3266e-05
1.47977e-05
1.65134e-05
1.84254e-05
2.05426e-05
2.28691e-05
2.54022e-05
2.81318e-05
3.10387e-05
3.40943e-05
3.72609e-05
4.04933e-05
4.37413e-05
4.69541e-05
5.00852e-05
5.30977e-05
5.59686e-05
5.86918e-05
6.12786e-05
6.37552e-05
6.61583e-05
6.85277e-05
7.08996e-05
7.32995e-05
7.57379e-05
7.82072e-05
8.06827e-05
8.31246e-05
8.54816e-05
8.76953e-05
8.97023e-05
9.14375e-05
9.28342e-05
9.37768e-05
9.42043e-05
9.42851e-05
9.36514e-05
9.22738e-05
9.01065e-05
8.70678e-05
8.30861e-05
7.81292e-05
7.21936e-05
6.53147e-05
5.75988e-05
4.92524e-05
4.05939e-05
3.20361e-05
2.40216e-05
1.69255e-05
1.09719e-05
6.21302e-06
2.61946e-06
2.91424e-07
2.79699e-08
2.5105e-07
5.76278e-07
9.66391e-07
1.40134e-06
1.8679e-06
2.35696e-06
2.86276e-06
3.38251e-06
3.91631e-06
4.46699e-06
5.03991e-06
5.64278e-06
6.28546e-06
6.97969e-06
7.7389e-06
8.57796e-06
9.513e-06
1.05611e-05
1.174e-05
1.30677e-05
1.45619e-05
1.62393e-05
1.81145e-05
2.01989e-05
2.24995e-05
2.50169e-05
2.77442e-05
3.06651e-05
3.37533e-05
3.69725e-05
4.0277e-05
4.36146e-05
4.69302e-05
5.01713e-05
5.32933e-05
5.62657e-05
5.90754e-05
6.17288e-05
6.42503e-05
6.66784e-05
6.90583e-05
7.14343e-05
7.38422e-05
7.63026e-05
7.88172e-05
8.13689e-05
8.39231e-05
8.64319e-05
8.88386e-05
9.10812e-05
9.30957e-05
9.48191e-05
9.61881e-05
9.70748e-05
9.74601e-05
9.75118e-05
9.68148e-05
9.53959e-05
9.31987e-05
9.01507e-05
8.61815e-05
8.12507e-05
7.53508e-05
6.84954e-05
6.07537e-05
5.22878e-05
4.33798e-05
3.44351e-05
2.59306e-05
1.83091e-05
1.18675e-05
6.70834e-06
2.82251e-06
3.14044e-07
3.06754e-08
2.75355e-07
6.32049e-07
1.05984e-06
1.53662e-06
2.04777e-06
2.58318e-06
3.13643e-06
3.70444e-06
4.28732e-06
4.88822e-06
5.5131e-06
6.17056e-06
6.8715e-06
7.62889e-06
8.45746e-06
9.3735e-06
1.03945e-05
1.15389e-05
1.28256e-05
1.42736e-05
1.59013e-05
1.77253e-05
1.97598e-05
2.20145e-05
2.44937e-05
2.71942e-05
3.01034e-05
3.31986e-05
3.6446e-05
3.98012e-05
4.32115e-05
4.6619e-05
4.99657e-05
5.32001e-05
5.62829e-05
5.91927e-05
6.19288e-05
6.45115e-05
6.69786e-05
6.93791e-05
7.17647e-05
7.41816e-05
7.66615e-05
7.92175e-05
8.18417e-05
8.45066e-05
8.7168e-05
8.97705e-05
9.2252e-05
9.45479e-05
9.65939e-05
9.83276e-05
9.96876e-05
0.000100533
0.000100881
0.000100901
0.000100131
9.86467e-05
9.63839e-05
9.32777e-05
8.92687e-05
8.43137e-05
7.84083e-05
7.15562e-05
6.37958e-05
5.52436e-05
4.61341e-05
3.68475e-05
2.78795e-05
1.97362e-05
1.27952e-05
7.22047e-06
3.03144e-06
3.37318e-07
3.35347e-08
3.01042e-07
6.90972e-07
1.15852e-06
1.6794e-06
2.23747e-06
2.82154e-06
3.42449e-06
4.04287e-06
4.67679e-06
5.32975e-06
6.00838e-06
6.72216e-06
7.48311e-06
8.30545e-06
9.20527e-06
1.02002e-05
1.13092e-05
1.25518e-05
1.3948e-05
1.55177e-05
1.72795e-05
1.92498e-05
2.14414e-05
2.38622e-05
2.65129e-05
2.93855e-05
3.24616e-05
3.57114e-05
3.90935e-05
4.25561e-05
4.60401e-05
4.9484e-05
5.28295e-05
5.60289e-05
5.90512e-05
6.18867e-05
6.45489e-05
6.70722e-05
6.95069e-05
7.19106e-05
7.43393e-05
7.68368e-05
7.94292e-05
8.21201e-05
8.48911e-05
8.77041e-05
9.05059e-05
9.32341e-05
9.58219e-05
9.82017e-05
0.000100308
0.000102079
0.000103452
0.000104274
0.000104598
0.000104581
0.000103733
0.000102161
9.97958e-05
9.65793e-05
9.24655e-05
8.74191e-05
8.14438e-05
7.45473e-05
6.67484e-05
5.81221e-05
4.8848e-05
3.92631e-05
2.98625e-05
2.12059e-05
1.37562e-05
7.7505e-06
3.24665e-06
3.61291e-07
3.65571e-08
3.28194e-07
7.53235e-07
1.26276e-06
1.83012e-06
2.43755e-06
3.07269e-06
3.72762e-06
4.39849e-06
5.0854e-06
5.79221e-06
6.52622e-06
7.29787e-06
8.12036e-06
9.00918e-06
9.98178e-06
1.10572e-05
1.22555e-05
1.35976e-05
1.51044e-05
1.6796e-05
1.86912e-05
2.08057e-05
2.31506e-05
2.5731e-05
2.85437e-05
3.15753e-05
3.4801e-05
3.81838e-05
4.16749e-05
4.52159e-05
4.87433e-05
5.21937e-05
5.55114e-05
5.86555e-05
6.16057e-05
6.43661e-05
6.69649e-05
6.94505e-05
7.18839e-05
7.43294e-05
7.68431e-05
7.9465e-05
8.22128e-05
8.508e-05
8.80371e-05
9.10356e-05
9.4014e-05
9.69032e-05
9.96316e-05
0.000102128
0.000104326
0.000106161
0.000107571
0.000108392
0.000108708
0.000108649
0.000107724
0.000106048
0.000103548
0.000100173
9.58861e-05
9.06703e-05
8.45433e-05
7.753e-05
6.96453e-05
6.09327e-05
5.15152e-05
4.16709e-05
3.18718e-05
2.27156e-05
1.47506e-05
8.29922e-06
3.46842e-06
3.85996e-07
3.97524e-08
3.56897e-07
8.19035e-07
1.37286e-06
1.98922e-06
2.64858e-06
3.33729e-06
4.04654e-06
4.77203e-06
5.51382e-06
6.27613e-06
7.06701e-06
7.89789e-06
8.78315e-06
9.73964e-06
1.07862e-05
1.1943e-05
1.32316e-05
1.46737e-05
1.62909e-05
1.81038e-05
2.01304e-05
2.23855e-05
2.4878e-05
2.76097e-05
3.05727e-05
3.37482e-05
3.71045e-05
4.05975e-05
4.41718e-05
4.77637e-05
5.13069e-05
5.47389e-05
5.80092e-05
6.1086e-05
6.39622e-05
6.66566e-05
6.92123e-05
7.16903e-05
7.41606e-05
7.66905e-05
7.93343e-05
8.21256e-05
8.50726e-05
8.81577e-05
9.13404e-05
9.45623e-05
9.77538e-05
0.000100839
0.000103741
0.000106387
0.000108705
0.000110631
0.000112101
0.000112944
0.000113263
0.000113172
0.000112176
0.000110387
0.000107731
0.000104156
9.96346e-05
9.41681e-05
8.77972e-05
8.05754e-05
7.25317e-05
6.36941e-05
5.41342e-05
4.40605e-05
3.38981e-05
2.42609e-05
1.5778e-05
8.8671e-06
3.69695e-06
4.11453e-07
4.31317e-08
3.87239e-07
8.88577e-07
1.48917e-06
2.15718e-06
2.87115e-06
3.61601e-06
4.38195e-06
5.16417e-06
5.96265e-06
6.782e-06
7.63101e-06
8.5222e-06
9.47119e-06
1.04962e-05
1.16173e-05
1.28561e-05
1.42351e-05
1.57769e-05
1.75036e-05
1.94356e-05
2.15905e-05
2.3981e-05
2.66137e-05
2.94865e-05
3.25867e-05
3.58893e-05
3.93562e-05
4.29365e-05
4.65691e-05
5.01868e-05
5.37224e-05
5.7117e-05
6.03276e-05
6.33341e-05
6.61434e-05
6.87898e-05
7.13304e-05
7.38374e-05
7.63865e-05
7.90458e-05
8.18653e-05
8.48706e-05
8.80593e-05
9.14023e-05
9.48483e-05
9.83295e-05
0.000101768
0.000105081
0.000108187
0.000111008
0.000113472
0.000115512
0.000117064
0.00011795
0.000118281
0.000118175
0.000117122
0.000115223
0.000112403
0.000108602
0.000103798
9.80057e-05
9.12965e-05
8.37616e-05
7.54632e-05
6.64352e-05
5.67108e-05
4.64242e-05
3.59315e-05
2.58363e-05
1.68368e-05
9.45425e-06
3.93229e-06
4.37671e-07
4.67058e-08
4.19315e-07
9.62078e-07
1.61204e-06
2.33448e-06
3.10585e-06
3.90952e-06
4.73458e-06
5.57558e-06
6.43245e-06
7.31017e-06
8.21837e-06
9.17065e-06
1.01839e-05
1.12778e-05
1.24736e-05
1.37943e-05
1.52632e-05
1.69036e-05
1.87378e-05
2.07859e-05
2.30643e-05
2.55838e-05
2.83478e-05
3.13502e-05
3.45729e-05
3.7985e-05
4.15421e-05
4.51875e-05
4.88556e-05
5.24773e-05
5.59871e-05
5.93317e-05
6.2478e-05
6.5419e-05
6.81768e-05
7.08004e-05
7.33599e-05
7.59358e-05
7.86075e-05
8.14412e-05
8.44809e-05
8.77425e-05
9.12122e-05
9.48498e-05
9.85932e-05
0.000102365
0.000106078
0.000109644
0.000112976
0.000115993
0.000118621
0.000120793
0.000122445
0.000123393
0.000123749
0.000123648
0.000122559
0.000120568
0.000117591
0.000113558
0.00010844
0.000102263
9.51272e-05
8.71696e-05
7.85046e-05
6.91957e-05
5.92589e-05
4.87582e-05
3.79626e-05
2.74353e-05
1.79249e-05
1.00604e-05
4.17441e-06
4.64646e-07
5.04853e-08
4.53227e-07
1.03976e-06
1.74183e-06
2.52162e-06
3.35332e-06
4.21854e-06
5.1051e-06
6.00689e-06
6.9237e-06
7.86093e-06
8.82907e-06
9.84289e-06
1.09206e-05
1.20833e-05
1.33535e-05
1.47552e-05
1.63127e-05
1.80498e-05
1.99886e-05
2.21485e-05
2.45445e-05
2.71851e-05
3.00703e-05
3.31895e-05
3.65194e-05
4.00232e-05
4.36507e-05
4.73405e-05
5.10241e-05
5.46323e-05
5.81034e-05
6.13921e-05
6.44767e-05
6.73645e-05
7.00927e-05
7.27242e-05
7.534e-05
7.80266e-05
8.08645e-05
8.39159e-05
8.72171e-05
9.07731e-05
9.45588e-05
9.85224e-05
0.000102591
0.000106677
0.000110686
0.000114522
0.000118095
0.00012132
0.000124122
0.000126436
0.0001282
0.00012923
0.000129621
0.000129548
0.000128452
0.000126397
0.000123288
0.000119036
0.000113599
0.000107
9.93646e-05
9.08792e-05
8.1726e-05
7.20248e-05
6.18015e-05
5.10641e-05
3.99834e-05
2.90509e-05
1.90396e-05
1.06852e-05
4.42318e-06
4.92368e-07
5.44818e-08
4.8908e-07
1.12186e-06
1.87893e-06
2.71913e-06
3.61419e-06
4.54374e-06
5.49422e-06
6.4587e-06
7.43682e-06
8.43443e-06
9.46294e-06
1.05383e-05
1.16803e-05
1.29111e-05
1.42547e-05
1.57361e-05
1.73802e-05
1.9211e-05
2.12505e-05
2.3517e-05
2.60237e-05
2.87765e-05
3.17718e-05
3.49942e-05
3.84156e-05
4.19935e-05
4.56729e-05
4.93887e-05
5.30712e-05
5.66531e-05
6.00787e-05
6.3312e-05
6.63442e-05
6.91972e-05
7.19228e-05
7.45965e-05
7.73075e-05
8.01462e-05
8.31919e-05
8.6501e-05
9.01001e-05
9.39833e-05
9.81139e-05
0.000102428
0.000106842
0.000111258
0.000115574
0.000119689
0.000123506
0.000126941
0.000129919
0.000132378
0.000134261
0.000135391
0.00013583
0.000135801
0.000134734
0.000132655
0.000129455
0.00012502
0.000119283
0.000112252
0.000104067
9.49627e-05
8.51992e-05
7.4979e-05
6.43706e-05
5.33501e-05
4.19883e-05
3.06758e-05
2.01773e-05
1.13277e-05
4.67841e-06
5.20813e-07
5.87079e-08
5.26984e-07
1.20863e-06
2.02374e-06
2.92756e-06
3.8891e-06
4.88584e-06
5.9026e-06
6.93154e-06
7.97212e-06
9.03069e-06
1.01196e-05
1.12563e-05
1.24617e-05
1.37595e-05
1.5175e-05
1.6734e-05
1.84619e-05
2.03828e-05
2.25181e-05
2.4885e-05
2.74945e-05
3.03498e-05
3.34432e-05
3.67552e-05
4.02525e-05
4.3888e-05
4.76025e-05
5.13289e-05
5.49976e-05
5.85455e-05
6.19241e-05
6.51085e-05
6.81033e-05
7.09449e-05
7.36984e-05
7.645e-05
7.92951e-05
8.23256e-05
8.56171e-05
8.92186e-05
9.31464e-05
9.73833e-05
0.00010188
0.000106561
0.000111331
0.000116084
0.000120709
0.000125099
0.000129156
0.000132794
0.000135941
0.000138541
0.000140542
0.000141787
0.000142293
0.000142316
0.000141319
0.000139262
0.000136024
0.000131461
0.000125469
0.000118027
0.000109273
9.94803e-05
8.8993e-05
7.81192e-05
6.70063e-05
5.56311e-05
4.3975e-05
3.23031e-05
2.13342e-05
1.1987e-05
4.93983e-06
5.49954e-07
6.31762e-08
5.67054e-07
1.30032e-06
2.17666e-06
3.14745e-06
4.17873e-06
5.24553e-06
6.33087e-06
7.42589e-06
8.52984e-06
9.64961e-06
1.07987e-05
1.19957e-05
1.32634e-05
1.46266e-05
1.61118e-05
1.77456e-05
1.95538e-05
2.15604e-05
2.37859e-05
2.62461e-05
2.89499e-05
3.18971e-05
3.50767e-05
3.84646e-05
4.20231e-05
4.57009e-05
4.94363e-05
5.3161e-05
5.68077e-05
6.03186e-05
6.36543e-05
6.68015e-05
6.97785e-05
7.26353e-05
7.54492e-05
7.83147e-05
8.13311e-05
8.45893e-05
8.81598e-05
9.20825e-05
9.63633e-05
0.000100973
0.000105849
0.000110904
0.000116032
0.000121118
0.000126044
0.000130698
0.00013498
0.000138806
0.00014211
0.000144839
0.000146952
0.000148322
0.000148916
0.000148993
0.000148104
0.00014612
0.000142905
0.000138283
0.000132105
0.000124304
0.000114996
0.000104475
9.31684e-05
8.15073e-05
6.97546e-05
5.79294e-05
4.59455e-05
3.39271e-05
2.2506e-05
1.26617e-05
5.20709e-06
5.79752e-07
6.79005e-08
6.0941e-07
1.3972e-06
2.33813e-06
3.3794e-06
4.48376e-06
5.62351e-06
6.77966e-06
7.94218e-06
9.11011e-06
1.0291e-05
1.14994e-05
1.27556e-05
1.40836e-05
1.551e-05
1.70622e-05
1.87674e-05
2.06518e-05
2.27389e-05
2.50483e-05
2.75942e-05
3.0383e-05
3.34117e-05
3.66654e-05
4.01161e-05
4.37221e-05
4.74292e-05
5.11738e-05
5.48883e-05
5.85091e-05
6.19849e-05
6.52864e-05
6.84126e-05
7.13947e-05
7.42955e-05
7.72025e-05
8.02166e-05
8.34382e-05
8.69556e-05
9.08322e-05
9.50986e-05
9.97489e-05
0.000104741
0.00011
0.000115428
0.000120907
0.000126313
0.000131522
0.00013642
0.000140907
0.000144901
0.000148342
0.000151186
0.000153399
0.000154899
0.000155592
0.000155733
0.000154984
0.00015312
0.000149995
0.000145393
0.000139114
0.000131035
0.00012122
0.000109968
9.77741e-05
8.5202e-05
7.26656e-05
6.02732e-05
4.79061e-05
3.55429e-05
2.36883e-05
1.33505e-05
5.47982e-06
6.10164e-07
7.2895e-08
6.54178e-07
1.49955e-06
2.50859e-06
3.62399e-06
4.80487e-06
6.02048e-06
7.24954e-06
8.48075e-06
9.71294e-06
1.09543e-05
1.22209e-05
1.35344e-05
1.49207e-05
1.64075e-05
1.80233e-05
1.9796e-05
2.17517e-05
2.39136e-05
2.63001e-05
2.89236e-05
3.17881e-05
3.48876e-05
3.82038e-05
4.17051e-05
4.53467e-05
4.90722e-05
5.28175e-05
5.6517e-05
6.0112e-05
6.3559e-05
6.68392e-05
6.99637e-05
7.29762e-05
7.59504e-05
7.89825e-05
8.21772e-05
8.56339e-05
8.94362e-05
9.36399e-05
9.8265e-05
0.000103293
0.00010867
0.000114308
0.000120097
0.00012591
0.000131615
0.000137084
0.0001422
0.000146865
0.000151003
0.000154559
0.0001575
0.000159802
0.000161426
0.000162228
0.000162441
0.000161854
0.000160155
0.000157181
0.000152682
0.000146401
0.000138145
0.000127906
0.000115958
0.000102842
8.92551e-05
7.57903e-05
6.26961e-05
4.98678e-05
3.71479e-05
2.48766e-05
1.40515e-05
5.75751e-06
6.41136e-07
7.81744e-08
7.01488e-07
1.60766e-06
2.68852e-06
3.88185e-06
5.14278e-06
6.43713e-06
7.74106e-06
9.04188e-06
1.03383e-05
1.16392e-05
1.29622e-05
1.43308e-05
1.57725e-05
1.73164e-05
1.8992e-05
2.08277e-05
2.28495e-05
2.508e-05
2.75363e-05
3.02291e-05
3.316e-05
3.63201e-05
3.96879e-05
4.32291e-05
4.68962e-05
5.06318e-05
5.43725e-05
5.80559e-05
6.16291e-05
6.50574e-05
6.83325e-05
7.14772e-05
7.45463e-05
7.76229e-05
8.08101e-05
8.42137e-05
8.79301e-05
9.20373e-05
9.6582e-05
0.000101573
0.00010698
0.000112735
0.000118739
0.00012487
0.000130993
0.00013697
0.000142669
0.000147973
0.000152786
0.000157041
0.00016069
0.000163711
0.000166091
0.000167817
0.000168741
0.000169033
0.000168622
0.000167122
0.000164355
0.000160038
0.000153856
0.00014554
0.000134989
0.000122419
0.000108386
9.37076e-05
7.91777e-05
6.52354e-05
5.18465e-05
3.87414e-05
2.60664e-05
1.47628e-05
6.03963e-06
6.72604e-07
8.37546e-08
7.5148e-07
1.72184e-06
2.87839e-06
4.15361e-06
5.49819e-06
6.87412e-06
8.25471e-06
9.62577e-06
1.09858e-05
1.23449e-05
1.37222e-05
1.51432e-05
1.66369e-05
1.82341e-05
1.99653e-05
2.1859e-05
2.39413e-05
2.62339e-05
2.87527e-05
3.15065e-05
3.44947e-05
3.77057e-05
4.11155e-05
4.46872e-05
4.8372e-05
5.21122e-05
5.58462e-05
5.95159e-05
6.30749e-05
6.64978e-05
6.97864e-05
7.29744e-05
7.61264e-05
7.93331e-05
8.27023e-05
8.63387e-05
9.03341e-05
9.47596e-05
9.96522e-05
0.000105009
0.000110787
0.000116905
0.000123254
0.000129702
0.000136105
0.000142321
0.000148217
0.000153676
0.000158609
0.000162954
0.000166674
0.000169757
0.000172202
0.000174012
0.000175064
0.000175443
0.000175208
0.000173933
0.000171419
0.000167352
0.000161367
0.000153114
0.000142384
0.0001293
0.000114397
9.85867e-05
8.28719e-05
6.79304e-05
5.3862e-05
4.03254e-05
2.72538e-05
1.54819e-05
6.3255e-06
7.04496e-07
8.96518e-08
8.04297e-07
1.84241e-06
3.07872e-06
4.43994e-06
5.87184e-06
7.33212e-06
8.79094e-06
1.02325e-05
1.16554e-05
1.30707e-05
1.44996e-05
1.59697e-05
1.75118e-05
1.91582e-05
2.09402e-05
2.28867e-05
2.50236e-05
2.73716e-05
2.99456e-05
3.27523e-05
3.57892e-05
3.90425e-05
4.24858e-05
4.60807e-05
4.97777e-05
5.35198e-05
5.72482e-05
6.09097e-05
6.44653e-05
6.78984e-05
7.12207e-05
7.44758e-05
7.7736e-05
8.10979e-05
8.46728e-05
8.85611e-05
9.28487e-05
9.75993e-05
0.00010284
0.000108554
0.000114688
0.000121149
0.000127815
0.000134548
0.000141197
0.000147617
0.000153674
0.000159256
0.00016428
0.00016869
0.000172461
0.00017559
0.000178086
0.000179965
0.000181146
0.000181622
0.000181552
0.000180516
0.000178285
0.000174527
0.000168824
0.000160754
0.00014999
0.000136529
0.000120845