/*--------------------------------*- C++ -*----------------------------------*\
  =========                 |
  \\      /  F ield         | OpenFOAM: The Open Source CFD Toolbox
   \\    /   O peration     | Website:  https://openfoam.org
    \\  /    A nd           | Version:  12
     \\/     M anipulation  |
\*---------------------------------------------------------------------------*/
FoamFile
{
    format      ascii;
    class       volScalarField;
    location    "10";
    object      nut;
}
// * * * * * * * * * * * * * * * * * * * * * * * * * * * * * * * * * * * * * //

dimensions      [0 2 -1 0 0 0 0];

internalField   nonuniform List<scalar> 
5625
(
3.88448e-15
2.62743e-14
5.84799e-14
9.67607e-14
1.39337e-13
1.85098e-13
2.33297e-13
2.8346e-13
3.35347e-13
3.88943e-13
4.44448e-13
5.02265e-13
5.6299e-13
6.274e-13
6.96436e-13
7.71194e-13
8.52906e-13
9.42923e-13
1.04271e-12
1.15381e-12
1.27786e-12
1.41656e-12
1.57164e-12
1.74487e-12
1.93803e-12
2.15288e-12
2.39116e-12
2.65454e-12
2.94464e-12
3.26296e-12
3.61091e-12
3.98975e-12
4.40061e-12
4.84446e-12
5.32209e-12
5.83413e-12
6.38101e-12
6.96294e-12
7.57989e-12
8.23154e-12
8.91718e-12
9.63565e-12
1.03852e-11
1.11631e-11
1.19659e-11
1.27884e-11
1.36239e-11
1.44635e-11
1.52959e-11
1.61068e-11
1.68786e-11
1.75899e-11
1.82155e-11
1.87243e-11
1.90683e-11
1.92225e-11
1.9228e-11
1.89801e-11
1.84654e-11
1.76819e-11
1.66377e-11
1.53564e-11
1.38792e-11
1.22632e-11
1.05767e-11
8.89152e-12
7.27528e-12
5.78323e-12
4.45327e-12
3.30404e-12
2.33661e-12
1.53922e-12
8.95001e-13
3.93378e-13
5.79411e-14
1.17438e-13
3.82584e-12
9.6027e-12
1.62935e-11
2.3665e-11
3.15546e-11
3.98443e-11
4.84564e-11
5.73517e-11
6.65285e-11
7.60212e-11
8.58993e-11
9.62649e-11
1.07251e-10
1.19019e-10
1.31756e-10
1.4567e-10
1.60991e-10
1.77969e-10
1.96867e-10
2.1796e-10
2.41534e-10
2.67881e-10
2.97296e-10
3.30076e-10
3.66513e-10
4.06891e-10
4.51485e-10
5.00554e-10
5.54337e-10
6.13055e-10
6.76902e-10
7.46048e-10
8.20635e-10
9.00775e-10
9.86552e-10
1.07802e-09
1.1752e-09
1.27808e-09
1.3866e-09
1.50066e-09
1.6201e-09
1.74465e-09
1.87395e-09
2.00748e-09
2.14451e-09
2.28404e-09
2.42475e-09
2.56492e-09
2.70232e-09
2.83418e-09
2.95709e-09
3.06692e-09
3.15855e-09
3.22344e-09
3.25388e-09
3.26157e-09
3.22523e-09
3.14303e-09
3.01423e-09
2.83974e-09
2.62327e-09
2.37177e-09
2.09516e-09
1.80549e-09
1.51561e-09
1.23756e-09
9.81204e-10
7.53201e-10
5.56718e-10
3.91718e-10
2.5577e-10
1.45185e-10
5.68258e-11
1.75005e-12
2.49507e-13
2.04857e-11
6.58656e-11
1.19484e-10
1.77795e-10
2.39629e-10
3.04199e-10
3.70969e-10
4.39668e-10
5.10298e-10
5.83133e-10
6.58708e-10
7.3781e-10
8.21458e-10
9.10878e-10
1.00749e-09
1.11287e-09
1.22876e-09
1.35701e-09
1.49957e-09
1.65848e-09
1.83582e-09
2.03372e-09
2.25428e-09
2.49959e-09
2.77169e-09
3.07251e-09
3.40389e-09
3.76748e-09
4.1648e-09
4.59716e-09
5.06568e-09
5.57129e-09
6.11468e-09
6.69638e-09
7.31672e-09
7.97588e-09
8.6739e-09
9.41068e-09
1.01859e-08
1.09993e-08
1.18499e-08
1.27368e-08
1.36582e-08
1.46116e-08
1.55932e-08
1.65975e-08
1.76167e-08
1.86403e-08
1.96541e-08
2.06397e-08
2.15734e-08
2.24264e-08
2.31654e-08
2.37227e-08
2.40131e-08
2.41794e-08
2.40078e-08
2.34862e-08
2.26028e-08
2.13572e-08
1.97721e-08
1.78979e-08
1.58117e-08
1.36101e-08
1.13975e-08
9.27277e-09
7.31633e-09
5.58182e-09
4.09308e-09
2.84665e-09
1.8182e-09
9.72604e-10
3.01305e-10
3.70335e-12
4.08279e-13
4.80625e-11
1.97695e-10
3.94962e-10
6.1156e-10
8.39701e-10
1.0761e-09
1.31887e-09
1.5671e-09
1.82085e-09
2.08112e-09
2.34984e-09
2.6298e-09
2.9246e-09
3.23854e-09
3.57655e-09
3.94411e-09
4.34712e-09
4.79185e-09
5.28483e-09
5.83275e-09
6.44236e-09
7.12037e-09
7.87332e-09
8.70753e-09
9.62892e-09
1.06429e-08
1.17544e-08
1.29677e-08
1.42861e-08
1.57125e-08
1.72491e-08
1.88973e-08
2.06582e-08
2.25323e-08
2.45198e-08
2.6621e-08
2.88363e-08
3.11661e-08
3.36113e-08
3.61727e-08
3.88511e-08
4.16473e-08
4.45608e-08
4.7589e-08
5.0726e-08
5.39605e-08
5.72744e-08
6.06405e-08
6.40191e-08
6.73546e-08
7.05718e-08
7.35718e-08
7.63035e-08
7.8428e-08
7.96373e-08
8.05597e-08
8.03178e-08
7.88691e-08
7.61587e-08
7.2166e-08
6.69541e-08
6.06896e-08
5.36387e-08
4.61421e-08
3.85735e-08
3.12886e-08
2.45782e-08
1.86346e-08
1.35401e-08
9.27487e-09
5.74274e-09
2.83559e-09
7.00089e-10
6.01657e-12
5.88995e-13
8.11368e-11
4.00826e-10
8.86831e-10
1.4429e-09
2.03131e-09
2.63793e-09
3.25636e-09
3.88387e-09
4.52046e-09
5.16857e-09
5.83295e-09
6.52047e-09
7.23988e-09
8.0016e-09
8.81741e-09
9.70018e-09
1.06637e-08
1.17223e-08
1.28906e-08
1.41834e-08
1.56151e-08
1.71997e-08
1.89504e-08
2.08793e-08
2.29974e-08
2.5314e-08
2.78368e-08
3.05719e-08
3.35235e-08
3.66942e-08
4.0086e-08
4.36997e-08
4.75355e-08
5.15935e-08
5.58748e-08
6.03813e-08
6.51168e-08
7.00867e-08
7.52985e-08
8.07608e-08
8.64839e-08
9.24792e-08
9.87561e-08
1.0532e-07
1.12168e-07
1.19286e-07
1.26642e-07
1.34185e-07
1.41832e-07
1.49459e-07
1.56895e-07
1.63903e-07
1.70473e-07
1.75552e-07
1.78576e-07
1.81042e-07
1.80818e-07
1.77803e-07
1.71899e-07
1.6305e-07
1.51396e-07
1.37314e-07
1.21405e-07
1.04442e-07
8.7273e-08
7.07087e-08
5.54168e-08
4.1842e-08
3.01742e-08
2.03649e-08
1.22053e-08
5.57429e-09
1.16783e-09
8.59125e-12
7.88456e-13
1.1727e-10
6.54973e-10
1.58632e-09
2.71853e-09
3.93836e-09
5.19697e-09
6.47299e-09
7.75759e-09
9.04938e-09
1.03527e-08
1.16768e-08
1.30352e-08
1.44451e-08
1.59265e-08
1.7502e-08
1.91959e-08
2.10337e-08
2.30413e-08
2.52447e-08
2.76693e-08
3.03393e-08
3.32773e-08
3.65035e-08
4.00357e-08
4.3889e-08
4.80751e-08
5.26025e-08
5.74768e-08
6.27008e-08
6.82747e-08
7.42e-08
8.04817e-08
8.71173e-08
9.41093e-08
1.01464e-07
1.09189e-07
1.17301e-07
1.25816e-07
1.34756e-07
1.44148e-07
1.54017e-07
1.64396e-07
1.7531e-07
1.86779e-07
1.98806e-07
2.1137e-07
2.24413e-07
2.37846e-07
2.51512e-07
2.65178e-07
2.78522e-07
2.91092e-07
3.02791e-07
3.11821e-07
3.17074e-07
3.212e-07
3.2055e-07
3.14831e-07
3.03998e-07
2.88031e-07
2.67223e-07
2.42261e-07
2.14192e-07
1.84333e-07
1.54119e-07
1.24926e-07
9.78898e-08
7.37807e-08
5.29373e-08
3.52953e-08
2.05646e-08
8.81946e-09
1.66265e-09
1.13515e-11
1.00478e-12
1.55741e-10
9.42438e-10
2.45455e-09
4.41599e-09
6.58779e-09
8.84454e-09
1.1127e-08
1.3409e-08
1.56831e-08
1.79548e-08
2.02392e-08
2.2559e-08
2.49433e-08
2.7426e-08
3.00444e-08
3.28381e-08
3.58479e-08
3.91144e-08
4.26775e-08
4.65746e-08
5.08406e-08
5.55065e-08
6.0599e-08
6.61415e-08
7.21523e-08
7.86432e-08
8.56226e-08
9.3095e-08
1.01062e-07
1.09521e-07
1.18472e-07
1.27914e-07
1.37855e-07
1.48305e-07
1.59282e-07
1.7081e-07
1.8292e-07
1.95654e-07
2.09057e-07
2.23185e-07
2.38093e-07
2.53831e-07
2.70443e-07
2.87957e-07
3.06374e-07
3.25654e-07
3.45703e-07
3.66325e-07
3.87226e-07
4.07983e-07
4.28026e-07
4.46646e-07
4.63274e-07
4.76173e-07
4.82976e-07
4.87544e-07
4.85011e-07
4.74706e-07
4.56913e-07
4.31751e-07
3.99756e-07
3.61979e-07
3.19939e-07
2.75485e-07
2.30615e-07
1.87232e-07
1.46924e-07
1.10782e-07
7.93023e-08
5.24379e-08
2.99182e-08
1.22663e-08
2.16799e-09
1.42427e-11
1.23696e-12
1.96396e-10
1.25277e-09
3.44895e-09
6.47214e-09
9.92628e-09
1.35582e-08
1.72335e-08
2.08885e-08
2.45002e-08
2.80713e-08
3.16233e-08
3.51906e-08
3.88179e-08
4.25568e-08
4.6464e-08
5.05984e-08
5.50195e-08
5.97857e-08
6.49529e-08
7.05725e-08
7.66905e-08
8.33469e-08
9.05744e-08
9.83978e-08
1.06836e-07
1.15903e-07
1.25606e-07
1.35949e-07
1.46934e-07
1.58566e-07
1.70846e-07
1.83779e-07
1.97383e-07
2.11682e-07
2.26709e-07
2.42509e-07
2.59136e-07
2.76655e-07
2.95141e-07
3.14673e-07
3.3533e-07
3.57182e-07
3.80282e-07
4.04652e-07
4.30265e-07
4.57021e-07
4.84718e-07
5.13014e-07
5.41412e-07
5.69237e-07
5.95627e-07
6.19561e-07
6.39933e-07
6.54729e-07
6.61775e-07
6.64618e-07
6.58204e-07
6.41252e-07
6.14715e-07
5.78944e-07
5.34748e-07
4.83529e-07
4.27209e-07
3.68078e-07
3.0858e-07
2.51049e-07
1.9744e-07
1.49113e-07
1.0671e-07
7.02287e-08
3.95181e-08
1.57317e-08
2.67637e-09
1.72266e-11
1.48455e-12
2.39254e-10
1.58103e-09
4.53681e-09
8.81439e-09
1.38562e-08
1.92335e-08
2.46919e-08
3.01001e-08
3.54033e-08
4.05954e-08
4.57025e-08
5.07734e-08
5.58721e-08
6.10732e-08
6.64572e-08
7.2107e-08
7.81047e-08
8.45287e-08
9.14527e-08
9.89437e-08
1.0706e-07
1.15852e-07
1.2536e-07
1.35614e-07
1.46636e-07
1.58442e-07
1.71041e-07
1.84439e-07
1.98642e-07
2.13659e-07
2.29501e-07
2.46182e-07
2.63732e-07
2.82192e-07
3.01614e-07
3.22061e-07
3.43611e-07
3.66354e-07
3.90386e-07
4.15809e-07
4.42718e-07
4.71186e-07
5.01259e-07
5.32923e-07
5.6608e-07
6.00515e-07
6.35861e-07
6.71557e-07
7.06841e-07
7.40734e-07
7.72057e-07
7.99472e-07
8.21523e-07
8.36113e-07
8.40333e-07
8.39928e-07
8.27791e-07
8.02557e-07
7.66176e-07
7.19257e-07
6.6284e-07
5.98598e-07
5.28745e-07
4.55882e-07
3.82774e-07
3.12074e-07
2.46023e-07
1.86198e-07
1.33368e-07
8.75919e-08
4.88942e-08
1.91216e-08
3.1837e-09
2.0278e-11
1.7475e-12
2.84397e-10
1.92542e-09
5.69738e-09
1.13806e-08
1.82714e-08
2.57288e-08
3.33332e-08
4.08504e-08
4.81731e-08
5.52761e-08
6.21883e-08
6.89744e-08
7.57224e-08
8.25348e-08
8.95211e-08
9.6793e-08
1.0446e-07
1.12626e-07
1.21386e-07
1.30825e-07
1.41017e-07
1.52024e-07
1.63895e-07
1.76668e-07
1.9037e-07
2.05022e-07
2.20638e-07
2.37228e-07
2.54806e-07
2.73385e-07
2.92986e-07
3.13635e-07
3.35375e-07
3.58258e-07
3.82354e-07
4.07744e-07
4.34524e-07
4.62803e-07
4.92696e-07
5.24315e-07
5.57757e-07
5.93086e-07
6.30305e-07
6.69325e-07
7.09927e-07
7.51721e-07
7.94109e-07
8.36259e-07
8.77108e-07
9.15371e-07
9.49591e-07
9.78197e-07
9.99564e-07
1.01185e-06
1.01087e-06
1.00482e-06
9.86622e-07
9.52146e-07
9.05553e-07
8.47684e-07
7.79714e-07
7.03482e-07
6.21378e-07
5.36187e-07
4.50885e-07
3.68352e-07
2.91053e-07
2.20754e-07
1.58347e-07
1.03965e-07
5.7813e-08
2.23952e-08
3.68735e-09
2.33862e-11
2.02606e-12
3.31936e-10
2.2858e-09
6.91959e-09
1.41266e-08
2.30798e-08
3.29025e-08
4.29698e-08
5.29086e-08
6.25355e-08
7.1795e-08
8.07155e-08
8.93796e-08
9.79042e-08
1.06425e-07
1.15088e-07
1.24039e-07
1.33421e-07
1.43367e-07
1.53997e-07
1.65418e-07
1.77723e-07
1.90988e-07
2.05275e-07
2.20631e-07
2.37091e-07
2.54682e-07
2.73425e-07
2.93337e-07
3.14435e-07
3.3674e-07
3.6028e-07
3.8509e-07
4.11221e-07
4.38735e-07
4.67713e-07
4.9825e-07
5.30456e-07
5.64453e-07
6.00365e-07
6.38307e-07
6.78363e-07
7.20556e-07
7.64815e-07
8.10929e-07
8.58501e-07
9.06911e-07
9.55286e-07
1.0025e-06
1.0472e-06
1.08785e-06
1.1228e-06
1.15039e-06
1.16899e-06
1.17704e-06
1.16978e-06
1.15585e-06
1.13144e-06
1.08801e-06
1.03133e-06
9.6313e-07
8.84587e-07
7.9761e-07
7.0466e-07
6.08608e-07
5.12547e-07
4.19514e-07
3.32162e-07
2.52435e-07
1.8136e-07
1.1916e-07
6.61991e-08
2.55422e-08
4.18722e-09
2.65397e-11
2.32069e-12
3.82005e-10
2.66287e-09
8.19917e-09
1.70257e-08
2.82129e-08
4.06353e-08
5.34297e-08
6.60508e-08
7.82165e-08
8.98294e-08
1.00914e-07
1.11574e-07
1.2196e-07
1.32248e-07
1.42625e-07
1.5328e-07
1.64393e-07
1.76131e-07
1.88646e-07
2.02069e-07
2.16514e-07
2.32075e-07
2.48828e-07
2.66831e-07
2.8613e-07
3.06757e-07
3.2874e-07
3.521e-07
3.76859e-07
4.0304e-07
4.30673e-07
4.59799e-07
4.9047e-07
5.22755e-07
5.5674e-07
5.9253e-07
6.30243e-07
6.70012e-07
7.11964e-07
7.56203e-07
8.02781e-07
8.51652e-07
9.02629e-07
9.55332e-07
1.00914e-06
1.06316e-06
1.11624e-06
1.16696e-06
1.21375e-06
1.2549e-06
1.28871e-06
1.31353e-06
1.32785e-06
1.33032e-06
1.31613e-06
1.29421e-06
1.2615e-06
1.21111e-06
1.1447e-06
1.06688e-06
9.78739e-07
8.82168e-07
7.79631e-07
6.74007e-07
5.68434e-07
4.66056e-07
3.69681e-07
2.81433e-07
2.02497e-07
1.33208e-07
7.40699e-08
2.85688e-08
4.68401e-09
2.97364e-11
2.63204e-12
4.34754e-10
3.05778e-09
9.53615e-09
2.00649e-08
3.36263e-08
4.88392e-08
6.45752e-08
8.00886e-08
9.49783e-08
1.09095e-07
1.22458e-07
1.35194e-07
1.47492e-07
1.59577e-07
1.71686e-07
1.84052e-07
1.96901e-07
2.10438e-07
2.24849e-07
2.40295e-07
2.56912e-07
2.74814e-07
2.94093e-07
3.14818e-07
3.37043e-07
3.60809e-07
3.86145e-07
4.13075e-07
4.41619e-07
4.71799e-07
5.03644e-07
5.37189e-07
5.72486e-07
6.09604e-07
6.48633e-07
6.89685e-07
7.32887e-07
7.78378e-07
8.26282e-07
8.76682e-07
9.29573e-07
9.84809e-07
1.04205e-06
1.1007e-06
1.15989e-06
1.21845e-06
1.27494e-06
1.32773e-06
1.3751e-06
1.41529e-06
1.4466e-06
1.46751e-06
1.47669e-06
1.47283e-06
1.45148e-06
1.42204e-06
1.38016e-06
1.32326e-06
1.24839e-06
1.1615e-06
1.0645e-06
9.592e-07
8.48025e-07
7.33807e-07
6.19681e-07
5.08851e-07
4.04254e-07
3.08193e-07
2.22038e-07
1.46258e-07
8.14885e-08
3.14901e-08
5.179e-09
3.29798e-11
2.96093e-12
4.90352e-10
3.47192e-09
1.09332e-08
2.32415e-08
3.92966e-08
5.74579e-08
7.63085e-08
9.48797e-08
1.12635e-07
1.29366e-07
1.45086e-07
1.59948e-07
1.74189e-07
1.88085e-07
2.01929e-07
2.16009e-07
2.30597e-07
2.45944e-07
2.62271e-07
2.79769e-07
2.98601e-07
3.189e-07
3.40773e-07
3.64302e-07
3.89547e-07
4.16552e-07
4.45346e-07
4.7595e-07
5.08377e-07
5.42643e-07
5.78765e-07
6.16773e-07
6.56712e-07
6.9865e-07
7.4268e-07
7.88923e-07
8.37519e-07
8.88611e-07
9.42316e-07
9.9868e-07
1.05762e-06
1.11886e-06
1.18187e-06
1.24582e-06
1.30957e-06
1.37168e-06
1.43051e-06
1.48428e-06
1.53118e-06
1.56948e-06
1.59758e-06
1.61409e-06
1.61784e-06
1.60742e-06
1.57913e-06
1.54273e-06
1.49204e-06
1.42684e-06
1.34592e-06
1.25016e-06
1.14466e-06
1.03108e-06
9.11815e-07
7.89609e-07
6.67556e-07
5.48881e-07
4.36619e-07
3.33245e-07
2.4033e-07
1.58511e-07
8.85362e-08
3.4325e-08
5.67384e-09
3.62773e-11
3.30827e-12
5.48983e-10
3.90686e-09
1.23948e-08
2.65589e-08
4.52171e-08
6.64618e-08
8.85689e-08
1.10328e-07
1.31056e-07
1.50479e-07
1.68608e-07
1.85626e-07
2.01821e-07
2.17533e-07
2.33113e-07
2.4891e-07
2.65247e-07
2.8242e-07
3.0069e-07
3.20281e-07
3.4138e-07
3.64141e-07
3.88684e-07
4.151e-07
4.43453e-07
4.73788e-07
5.06126e-07
5.4048e-07
5.76852e-07
6.15241e-07
6.55653e-07
6.98104e-07
7.42634e-07
7.89312e-07
8.38238e-07
8.89548e-07
9.43399e-07
9.99942e-07
1.05928e-06
1.12141e-06
1.18615e-06
1.25306e-06
1.3214e-06
1.39009e-06
1.45773e-06
1.52269e-06
1.58316e-06
1.63726e-06
1.6832e-06
1.7193e-06
1.74407e-06
1.75623e-06
1.75473e-06
1.7379e-06
1.70307e-06
1.66005e-06
1.60121e-06
1.52688e-06
1.44008e-06
1.33621e-06
1.2221e-06
1.10024e-06
9.72985e-07
8.42995e-07
7.13295e-07
5.87096e-07
4.67493e-07
3.5711e-07
2.57727e-07
1.70171e-07
9.52997e-08
3.70938e-08
6.17039e-09
3.96384e-11
3.67511e-12
6.10846e-10
4.36428e-09
1.39261e-08
3.00252e-08
5.13925e-08
7.58425e-08
1.01326e-07
1.26377e-07
1.50157e-07
1.72327e-07
1.92895e-07
2.12083e-07
2.30238e-07
2.47764e-07
2.65082e-07
2.82601e-07
3.00701e-07
3.19726e-07
3.39975e-07
3.61705e-07
3.85129e-07
4.10418e-07
4.37705e-07
4.67086e-07
4.98625e-07
5.32358e-07
5.683e-07
6.06445e-07
6.46778e-07
6.89279e-07
7.33936e-07
7.80754e-07
8.2977e-07
8.81057e-07
9.34737e-07
9.90968e-07
1.04993e-06
1.11179e-06
1.17663e-06
1.24438e-06
1.31474e-06
1.38709e-06
1.46046e-06
1.53353e-06
1.60468e-06
1.67213e-06
1.73399e-06
1.78833e-06
1.83337e-06
1.8675e-06
1.88931e-06
1.8976e-06
1.89141e-06
1.86862e-06
1.8278e-06
1.7787e-06
1.71193e-06
1.62838e-06
1.5334e-06
1.42298e-06
1.29967e-06
1.16903e-06
1.03343e-06
8.95449e-07
7.58035e-07
6.24358e-07
4.97521e-07
3.80259e-07
2.74549e-07
1.81428e-07
1.01863e-07
3.98162e-08
6.6705e-09
4.30741e-11
4.0626e-12
6.76154e-10
4.84594e-09
1.55332e-08
3.36516e-08
5.78357e-08
8.56067e-08
1.14574e-07
1.43003e-07
1.69896e-07
1.94848e-07
2.17871e-07
2.39233e-07
2.59345e-07
2.78683e-07
2.9774e-07
3.16991e-07
3.36873e-07
3.57778e-07
3.80047e-07
4.03967e-07
4.29774e-07
4.57656e-07
4.87752e-07
5.20162e-07
5.54942e-07
5.9212e-07
6.3169e-07
6.73627e-07
7.17892e-07
7.64443e-07
8.13251e-07
8.64314e-07
9.1767e-07
9.73413e-07
1.03169e-06
1.09271e-06
1.15668e-06
1.22377e-06
1.29405e-06
1.36738e-06
1.44329e-06
1.52101e-06
1.59926e-06
1.6765e-06
1.75119e-06
1.8213e-06
1.88479e-06
1.93976e-06
1.98446e-06
2.0173e-06
2.0369e-06
2.04208e-06
2.03189e-06
2.00357e-06
1.95716e-06
1.90235e-06
1.82752e-06
1.73541e-06
1.63017e-06
1.51282e-06
1.38006e-06
1.23965e-06
1.09491e-06
9.48344e-07
8.02808e-07
6.61424e-07
5.27258e-07
4.03094e-07
2.91075e-07
1.92448e-07
1.08302e-07
4.25102e-08
7.17588e-09
4.65951e-11
4.47198e-12
7.45132e-10
5.35371e-09
1.72226e-08
3.74512e-08
6.4565e-08
9.57716e-08
1.28322e-07
1.60204e-07
1.90256e-07
2.18014e-07
2.43499e-07
2.67031e-07
2.89093e-07
3.10239e-07
3.31037e-07
3.5203e-07
3.73715e-07
3.96533e-07
4.20862e-07
4.47021e-07
4.75265e-07
5.05793e-07
5.38752e-07
5.74234e-07
6.12289e-07
6.52924e-07
6.96111e-07
7.41799e-07
7.89924e-07
8.4042e-07
8.93246e-07
9.48398e-07
1.00593e-06
1.06598e-06
1.12873e-06
1.19445e-06
1.26338e-06
1.33571e-06
1.41149e-06
1.49046e-06
1.57204e-06
1.65489e-06
1.73819e-06
1.82018e-06
1.89877e-06
1.97195e-06
2.0378e-06
2.09422e-06
2.13951e-06
2.17207e-06
2.19044e-06
2.1934e-06
2.17995e-06
2.14648e-06
2.09467e-06
2.0343e-06
1.95124e-06
1.85054e-06
1.7345e-06
1.6075e-06
1.46582e-06
1.31418e-06
1.1591e-06
1.00296e-06
8.48552e-07
6.98965e-07
5.57179e-07
4.25951e-07
3.07535e-07
2.03372e-07
1.1468e-07
4.51915e-08
7.68801e-09
5.02118e-11
4.90455e-12
8.18018e-10
5.88951e-09
1.90009e-08
4.14383e-08
7.1602e-08
1.06362e-07
1.42594e-07
1.77996e-07
2.11246e-07
2.41823e-07
2.69768e-07
2.9546e-07
3.19461e-07
3.4241e-07
3.64951e-07
3.87698e-07
4.11207e-07
4.35968e-07
4.62395e-07
4.90833e-07
5.21558e-07
5.54775e-07
5.90629e-07
6.29206e-07
6.70538e-07
7.14609e-07
7.61366e-07
8.10727e-07
8.626e-07
9.16903e-07
9.73588e-07
1.03266e-06
1.09422e-06
1.15844e-06
1.22558e-06
1.29598e-06
1.36992e-06
1.44763e-06
1.52909e-06
1.61391e-06
1.70094e-06
1.78994e-06
1.87887e-06
1.96592e-06
2.04905e-06
2.12625e-06
2.19541e-06
2.25443e-06
2.30152e-06
2.33496e-06
2.35321e-06
2.35491e-06
2.33895e-06
2.30082e-06
2.2438e-06
2.17789e-06
2.08631e-06
1.97629e-06
1.84948e-06
1.71012e-06
1.55869e-06
1.39457e-06
1.22755e-06
1.0605e-06
8.96152e-07
7.37593e-07
5.87694e-07
4.49109e-07
3.24116e-07
2.14314e-07
1.21047e-07
4.7874e-08
8.20808e-09
5.3933e-11
5.36172e-12
8.95062e-10
6.45533e-09
2.08752e-08
4.56279e-08
7.89702e-08
1.17407e-07
1.57418e-07
1.96405e-07
2.32883e-07
2.66288e-07
2.96685e-07
3.24523e-07
3.5045e-07
3.75192e-07
3.99476e-07
4.23986e-07
4.49338e-07
4.76066e-07
5.04622e-07
5.35373e-07
5.68608e-07
6.04537e-07
6.43299e-07
6.84967e-07
7.2955e-07
7.77006e-07
8.27249e-07
8.8017e-07
9.35652e-07
9.93602e-07
1.05398e-06
1.11682e-06
1.18227e-06
1.25058e-06
1.32211e-06
1.39726e-06
1.47639e-06
1.55971e-06
1.64712e-06
1.73775e-06
1.83168e-06
1.92704e-06
2.02217e-06
2.11514e-06
2.20391e-06
2.28641e-06
2.36003e-06
2.42296e-06
2.47317e-06
2.50876e-06
2.52799e-06
2.52933e-06
2.51151e-06
2.46917e-06
2.4072e-06
2.33537e-06
2.23504e-06
2.11504e-06
1.97684e-06
1.82365e-06
1.65999e-06
1.48263e-06
1.30174e-06
1.12215e-06
9.46468e-07
7.7789e-07
6.19178e-07
4.72805e-07
3.40971e-07
2.25362e-07
1.27444e-07
5.05698e-08
8.73695e-09
5.7766e-11
5.84496e-12
9.76521e-10
7.05327e-09
2.28527e-08
5.00357e-08
8.66951e-08
1.2894e-07
1.72829e-07
2.15462e-07
2.55198e-07
2.91431e-07
3.24268e-07
3.54233e-07
3.82068e-07
4.08592e-07
4.34615e-07
4.60893e-07
4.881e-07
5.16815e-07
5.4752e-07
5.80603e-07
6.16363e-07
6.55008e-07
6.96667e-07
7.41394e-07
7.89174e-07
8.39931e-07
8.9355e-07
9.49893e-07
1.00883e-06
1.07026e-06
1.13416e-06
1.20063e-06
1.26989e-06
1.34229e-06
1.41828e-06
1.49837e-06
1.58298e-06
1.67231e-06
1.76567e-06
1.86363e-06
1.96461e-06
2.06713e-06
2.16939e-06
2.2695e-06
2.3654e-06
2.45413e-06
2.53371e-06
2.60201e-06
2.65671e-06
2.69567e-06
2.7169e-06
2.71867e-06
2.6995e-06
2.65332e-06
2.58662e-06
2.50827e-06
2.39898e-06
2.26833e-06
2.11785e-06
1.95023e-06
1.77138e-06
1.57983e-06
1.38305e-06
1.18904e-06
1.00036e-06
8.20439e-07
6.51992e-07
4.97252e-07
3.58226e-07
2.36589e-07
1.33898e-07
5.32918e-08
9.27513e-09
6.1716e-11
6.35584e-12
1.06266e-09
7.68544e-09
2.49408e-08
5.46779e-08
9.48025e-08
1.40992e-07
1.88863e-07
2.35204e-07
2.7822e-07
3.1728e-07
3.52538e-07
3.84607e-07
4.14328e-07
4.42617e-07
4.70371e-07
4.98416e-07
5.27484e-07
5.58193e-07
5.91056e-07
6.26477e-07
6.64758e-07
7.06102e-07
7.50625e-07
7.98355e-07
8.49248e-07
9.03199e-07
9.6006e-07
1.01967e-06
1.08189e-06
1.14664e-06
1.21394e-06
1.28395e-06
1.357e-06
1.43355e-06
1.51419e-06
1.59951e-06
1.68999e-06
1.7853e-06
1.88628e-06
1.99178e-06
2.10065e-06
2.21128e-06
2.32196e-06
2.4308e-06
2.53452e-06
2.63109e-06
2.7182e-06
2.79329e-06
2.85376e-06
2.89719e-06
2.92133e-06
2.92418e-06
2.9041e-06
2.85435e-06
2.78268e-06
2.69753e-06
2.57899e-06
2.43705e-06
2.27338e-06
2.09072e-06
1.89513e-06
1.68714e-06
1.47274e-06
1.26227e-06
1.05868e-06
8.65839e-07
6.86505e-07
5.22657e-07
3.75993e-07
2.48054e-07
1.40421e-07
5.60562e-08
9.82272e-09
6.57862e-11
6.89614e-12
1.15373e-09
8.35406e-09
2.71473e-08
5.95715e-08
1.03319e-07
1.53598e-07
2.05557e-07
2.55666e-07
3.01984e-07
3.43863e-07
3.81519e-07
4.15663e-07
4.47242e-07
4.77275e-07
5.06744e-07
5.36549e-07
5.67472e-07
6.00175e-07
6.35192e-07
6.72939e-07
7.13718e-07
7.57724e-07
8.05053e-07
8.55706e-07
9.09609e-07
9.66625e-07
1.02658e-06
1.0893e-06
1.15465e-06
1.22258e-06
1.29317e-06
1.36669e-06
1.44359e-06
1.52446e-06
1.61002e-06
1.70096e-06
1.79743e-06
1.90029e-06
2.00908e-06
2.12296e-06
2.24068e-06
2.36069e-06
2.48143e-06
2.59941e-06
2.71266e-06
2.81868e-06
2.91472e-06
2.99788e-06
3.06527e-06
3.11411e-06
3.14188e-06
3.14635e-06
3.12568e-06
3.07251e-06
2.99545e-06
2.90334e-06
2.77528e-06
2.62152e-06
2.44399e-06
2.24558e-06
2.03235e-06
1.80559e-06
1.57192e-06
1.34288e-06
1.1223e-06
9.14717e-07
7.23106e-07
5.49232e-07
3.9438e-07
2.59811e-07
1.47041e-07
5.88668e-08
1.03796e-08
6.99781e-11
7.46758e-12
1.25003e-09
9.06145e-09
2.94801e-08
6.47334e-08
1.12271e-07
1.66792e-07
2.22948e-07
2.76885e-07
3.26522e-07
3.71207e-07
4.11232e-07
4.47416e-07
4.80821e-07
5.12567e-07
5.4373e-07
5.75277e-07
6.08043e-07
6.42724e-07
6.79875e-07
7.19921e-07
7.63159e-07
8.09769e-07
8.59826e-07
9.13303e-07
9.70094e-07
1.03003e-06
1.09293e-06
1.1586e-06
1.22694e-06
1.29794e-06
1.37178e-06
1.44885e-06
1.52972e-06
1.61516e-06
1.70601e-06
1.80295e-06
1.90654e-06
2.01729e-06
2.13469e-06
2.25788e-06
2.38559e-06
2.51673e-06
2.64768e-06
2.77655e-06
2.90086e-06
3.01769e-06
3.12391e-06
3.21626e-06
3.2915e-06
3.34651e-06
3.37847e-06
3.38492e-06
3.36389e-06
3.30745e-06
3.22447e-06
3.12525e-06
2.98745e-06
2.82146e-06
2.62958e-06
2.41492e-06
2.18352e-06
1.93597e-06
1.68146e-06
1.43179e-06
1.19205e-06
9.67717e-07
7.62216e-07
5.77203e-07
4.13496e-07
2.71912e-07
1.53783e-07
6.1724e-08
1.09457e-08
7.42912e-11
8.07187e-12
1.35188e-09
9.81007e-09
3.19475e-08
7.0181e-08
1.21687e-07
1.80607e-07
2.41072e-07
2.98894e-07
3.51862e-07
3.99337e-07
4.41696e-07
4.79878e-07
5.15066e-07
5.48492e-07
5.81317e-07
6.14579e-07
6.49163e-07
6.85795e-07
7.25047e-07
7.67348e-07
8.12986e-07
8.62126e-07
9.14816e-07
9.71001e-07
1.03055e-06
1.09327e-06
1.15895e-06
1.22744e-06
1.29865e-06
1.37266e-06
1.44976e-06
1.53047e-06
1.61554e-06
1.70589e-06
1.80254e-06
1.90594e-06
2.01743e-06
2.1368e-06
2.26369e-06
2.39716e-06
2.53676e-06
2.67887e-06
2.82171e-06
2.96292e-06
3.09957e-06
3.22838e-06
3.34583e-06
3.44828e-06
3.53208e-06
3.59379e-06
3.63031e-06
3.63898e-06
3.61774e-06
3.55824e-06
3.46881e-06
3.36224e-06
3.21462e-06
3.03612e-06
2.82951e-06
2.59839e-06
2.34857e-06
2.07879e-06
1.802e-06
1.52976e-06
1.2687e-06
1.02548e-06
8.04278e-07
6.0682e-07
4.33456e-07
2.84406e-07
1.60669e-07
6.46303e-08
1.15203e-08
7.87235e-11
8.71086e-12
1.45963e-09
1.06025e-08
3.45579e-08
7.59321e-08
1.31592e-07
1.95076e-07
2.59962e-07
3.21725e-07
3.78032e-07
4.2827e-07
4.72921e-07
5.13052e-07
5.49977e-07
5.85037e-07
6.19485e-07
6.54427e-07
6.90792e-07
7.29335e-07
7.70641e-07
8.15137e-07
8.63103e-07
9.14681e-07
9.69895e-07
1.02866e-06
1.09083e-06
1.15618e-06
1.22452e-06
1.2957e-06
1.36971e-06
1.44673e-06
1.52716e-06
1.61169e-06
1.70124e-06
1.79688e-06
1.89956e-06
2.01062e-06
2.1305e-06
2.2593e-06
2.39657e-06
2.54223e-06
2.69332e-06
2.84791e-06
3.00398e-06
3.15869e-06
3.30874e-06
3.45048e-06
3.57999e-06
3.69319e-06
3.78606e-06
3.85481e-06
3.89609e-06
3.90709e-06
3.88569e-06
3.82351e-06
3.72725e-06
3.61286e-06
3.45547e-06
3.26433e-06
3.0426e-06
2.79526e-06
2.52691e-06
2.2342e-06
1.93385e-06
1.63734e-06
1.35291e-06
1.08863e-06
8.49755e-07
6.38356e-07
4.54388e-07
2.97346e-07
1.67717e-07
6.75891e-08
1.21031e-08
8.32716e-11
9.38654e-12
1.57362e-09
1.14413e-08
3.73202e-08
8.20047e-08
1.42013e-07
2.10231e-07
2.79651e-07
3.45405e-07
4.05053e-07
4.58023e-07
5.04914e-07
5.46938e-07
5.85542e-07
6.22184e-07
6.58208e-07
6.94782e-07
7.32881e-07
7.73284e-07
8.16583e-07
8.63203e-07
9.13408e-07
9.67323e-07
1.02494e-06
1.08617e-06
1.15081e-06
1.21866e-06
1.28954e-06
1.36334e-06
1.44012e-06
1.52018e-06
1.60407e-06
1.69266e-06
1.78705e-06
1.88853e-06
1.99805e-06
2.11711e-06
2.24612e-06
2.38515e-06
2.53447e-06
2.69203e-06
2.85578e-06
3.02413e-06
3.19445e-06
3.36358e-06
3.52787e-06
3.68327e-06
3.8254e-06
3.94976e-06
4.05196e-06
4.12792e-06
4.17402e-06
4.18735e-06
4.16571e-06
4.10137e-06
3.99847e-06
3.87524e-06
3.7084e-06
3.50466e-06
3.26776e-06
3.00397e-06
2.71742e-06
2.40193e-06
2.07701e-06
1.75484e-06
1.44518e-06
1.15772e-06
8.99107e-07
6.72101e-07
4.76433e-07
3.10785e-07
1.74944e-07
7.06041e-08
1.26933e-08
8.79308e-11
1.0101e-11
1.69421e-09
1.23294e-08
4.02435e-08
8.84172e-08
1.52979e-07
2.26103e-07
3.00168e-07
3.6996e-07
4.32941e-07
4.88602e-07
5.37676e-07
5.81527e-07
6.21746e-07
6.59909e-07
6.9745e-07
7.35602e-07
7.75377e-07
8.17576e-07
8.62797e-07
9.11457e-07
9.63806e-07
1.01995e-06
1.07985e-06
1.1434e-06
1.2104e-06
1.28064e-06
1.35396e-06
1.43033e-06
1.5099e-06
1.5931e-06
1.68065e-06
1.7736e-06
1.8732e-06
1.98081e-06
2.09801e-06
2.22572e-06
2.36459e-06
2.51523e-06
2.67659e-06
2.8467e-06
3.02437e-06
3.20733e-06
3.39268e-06
3.57693e-06
3.75605e-06
3.92554e-06
4.08059e-06
4.21631e-06
4.32794e-06
4.41112e-06
4.46202e-06
4.47759e-06
4.45558e-06
4.38963e-06
4.28056e-06
4.14744e-06
3.97153e-06
3.75544e-06
3.50366e-06
3.22276e-06
2.91856e-06
2.58129e-06
2.23115e-06
1.88229e-06
1.54583e-06
1.2332e-06
9.52768e-07
7.08358e-07
4.99742e-07
3.24783e-07
1.82369e-07
7.36791e-08
1.32906e-08
9.26952e-11
1.08563e-11
1.82177e-09
1.32696e-08
4.33373e-08
9.51885e-08
1.64515e-07
2.42722e-07
3.2154e-07
3.95409e-07
4.61709e-07
5.20011e-07
5.71199e-07
6.16802e-07
6.58564e-07
6.98179e-07
7.37173e-07
7.76837e-07
8.18223e-07
8.62145e-07
9.09206e-07
9.59814e-07
1.0142e-06
1.07246e-06
1.13453e-06
1.20028e-06
1.26952e-06
1.34205e-06
1.41777e-06
1.49671e-06
1.57913e-06
1.66562e-06
1.75708e-06
1.85473e-06
1.96e-06
2.07447e-06
2.1997e-06
2.33671e-06
2.48657e-06
2.64909e-06
2.82266e-06
3.00652e-06
3.1988e-06
3.39699e-06
3.59792e-06
3.79773e-06
3.99198e-06
4.17573e-06
4.34378e-06
4.49083e-06
4.61182e-06
4.70213e-06
4.75774e-06
4.77548e-06
4.75301e-06
4.68592e-06
4.57103e-06
4.42751e-06
4.24276e-06
4.0147e-06
3.74857e-06
3.44994e-06
3.12849e-06
2.77113e-06
2.39558e-06
2.01945e-06
1.65496e-06
1.3154e-06
1.01112e-06
7.47426e-07
5.24481e-07
3.39403e-07
1.9001e-07
7.68174e-08
1.38941e-08
9.75577e-11
1.16549e-11
1.95672e-09
1.42651e-08
4.66115e-08
1.02337e-07
1.76647e-07
2.60115e-07
3.43792e-07
4.21769e-07
4.91363e-07
5.52245e-07
6.05469e-07
6.52743e-07
6.95965e-07
7.36957e-07
7.7733e-07
8.18436e-07
8.61357e-07
9.06923e-07
9.55737e-07
1.0082e-06
1.06452e-06
1.12477e-06
1.1889e-06
1.25675e-06
1.32813e-06
1.4029e-06
1.48099e-06
1.56253e-06
1.64793e-06
1.73792e-06
1.83357e-06
1.93629e-06
2.0477e-06
2.16952e-06
2.30334e-06
2.45063e-06
2.6119e-06
2.7861e-06
2.97298e-06
3.17114e-06
3.3785e-06
3.59232e-06
3.8091e-06
4.02462e-06
4.23402e-06
4.43197e-06
4.61285e-06
4.77104e-06
4.9012e-06
4.99847e-06
5.0587e-06
5.07857e-06
5.05564e-06
4.98757e-06
4.86743e-06
4.71333e-06
4.51987e-06
4.28027e-06
4.00033e-06
3.68409e-06
3.34518e-06
2.96987e-06
2.56932e-06
2.16576e-06
1.77244e-06
1.40448e-06
1.07448e-06
7.89589e-07
5.50819e-07
3.54715e-07
1.97887e-07
8.00217e-08
1.45033e-08
1.0251e-10
1.2499e-11
2.09945e-09
1.53189e-08
5.00762e-08
1.09884e-07
1.89403e-07
2.78309e-07
3.66943e-07
4.4905e-07
5.21902e-07
5.85293e-07
6.40466e-07
6.89319e-07
7.33915e-07
7.762e-07
8.17874e-07
8.60343e-07
9.0472e-07
9.51846e-07
1.00232e-06
1.05653e-06
1.11469e-06
1.17684e-06
1.24291e-06
1.31277e-06
1.38624e-06
1.4632e-06
1.54369e-06
1.62792e-06
1.71645e-06
1.81017e-06
1.91035e-06
2.01855e-06
2.13651e-06
2.26614e-06
2.4095e-06
2.56745e-06
2.73973e-06
2.92661e-06
3.12721e-06
3.33999e-06
3.56267e-06
3.79225e-06
4.02489e-06
4.25599e-06
4.48031e-06
4.69213e-06
4.8855e-06
5.05449e-06
5.19353e-06
5.29756e-06
5.3623e-06
5.38435e-06
5.36127e-06
5.29157e-06
5.16724e-06
5.00275e-06
4.80059e-06
4.54988e-06
4.25647e-06
3.92396e-06
3.56656e-06
3.1755e-06
2.75109e-06
2.32042e-06
1.89789e-06
1.50043e-06
1.14303e-06
8.35095e-07
5.78924e-07
3.7079e-07
2.06021e-07
8.3294e-08
1.51173e-08
1.07541e-10
1.33912e-11
2.25041e-09
1.64345e-08
5.37421e-08
1.17847e-07
2.02807e-07
2.97329e-07
3.91012e-07
4.77259e-07
5.53321e-07
6.19139e-07
6.76162e-07
7.26496e-07
7.72371e-07
8.15862e-07
8.58755e-07
9.02506e-07
9.48257e-07
9.96856e-07
1.0489e-06
1.10477e-06
1.16466e-06
1.22861e-06
1.29655e-06
1.36834e-06
1.44385e-06
1.52303e-06
1.60596e-06
1.69301e-06
1.78487e-06
1.8826e-06
1.98765e-06
2.10177e-06
2.22688e-06
2.36506e-06
2.51804e-06
2.68628e-06
2.87046e-06
3.07029e-06
3.28481e-06
3.51232e-06
3.75032e-06
3.99551e-06
4.24373e-06
4.49003e-06
4.72879e-06
4.95395e-06
5.15928e-06
5.33862e-06
5.48617e-06
5.59672e-06
5.66587e-06
5.69014e-06
5.6671e-06
5.59546e-06
5.46798e-06
5.29365e-06
5.08266e-06
4.82137e-06
4.51522e-06
4.16758e-06
3.79068e-06
3.38558e-06
2.93937e-06
2.48231e-06
2.03069e-06
1.60305e-06
1.21686e-06
8.84136e-07
6.08958e-07
3.87703e-07
2.14433e-07
8.66346e-08
1.57354e-08
1.1264e-10
1.4334e-11
2.41006e-09
1.76154e-08
5.76203e-08
1.26248e-07
2.16885e-07
3.17198e-07
4.1601e-07
5.06396e-07
5.85606e-07
6.53756e-07
7.12524e-07
7.64233e-07
8.11289e-07
8.55896e-07
8.99922e-07
9.44874e-07
9.91916e-07
1.0419e-06
1.09543e-06
1.15287e-06
1.2144e-06
1.28007e-06
1.34981e-06
1.4235e-06
1.50105e-06
1.58247e-06
1.66795e-06
1.75798e-06
1.85339e-06
1.95542e-06
2.06569e-06
2.18612e-06
2.31884e-06
2.46574e-06
2.62829e-06
2.80753e-06
3.00377e-06
3.21667e-06
3.44511e-06
3.68722e-06
3.94027e-06
4.20067e-06
4.46393e-06
4.72477e-06
4.97726e-06
5.21507e-06
5.4317e-06
5.62081e-06
5.77644e-06
5.89325e-06
5.96671e-06
5.99326e-06
5.97038e-06
5.89678e-06
5.76707e-06
5.58399e-06
5.36377e-06
5.09256e-06
4.77449e-06
4.41309e-06
4.0162e-06
3.5972e-06
3.13247e-06
2.65013e-06
2.16999e-06