/*--------------------------------*- C++ -*----------------------------------*\
  =========                 |
  \\      /  F ield         | OpenFOAM: The Open Source CFD Toolbox
   \\    /   O peration     | Website:  https://openfoam.org
    \\  /    A nd           | Version:  12
     \\/     M anipulation  |
\*---------------------------------------------------------------------------*/
FoamFile
{
    format      ascii;
    class       surfaceScalarField;
    location    "10";
    object      phi;
}
// * * * * * * * * * * * * * * * * * * * * * * * * * * * * * * * * * * * * * //

dimensions      [0 3 -1 0 0 0 0];

internalField   nonuniform List<scalar> 
11100
(
-2.77117e-11
2.76776e-11
4.4698e-10
-4.74725e-10
1.35243e-09
-9.05489e-10
2.52155e-09
-1.16913e-09
3.81948e-09
-1.29793e-09
5.14603e-09
-1.32654e-09
6.43097e-09
-1.28494e-09
7.62714e-09
-1.19617e-09
8.70452e-09
-1.07738e-09
9.64548e-09
-9.40963e-10
1.0441e-08
-7.95544e-10
1.10877e-08
-6.46659e-10
1.15851e-08
-4.97442e-10
1.19342e-08
-3.49055e-10
1.2135e-08
-2.00836e-10
1.21865e-08
-5.15298e-11
1.20843e-08
1.02245e-10
1.18198e-08
2.64455e-10
1.13803e-08
4.39571e-10
1.07471e-08
6.3319e-10
9.89555e-09
8.51519e-10
8.79386e-09
1.10169e-09
7.40285e-09
1.39101e-09
5.67491e-09
1.72794e-09
3.55388e-09
2.12103e-09
9.74266e-10
2.57962e-09
-2.13889e-09
3.11315e-09
-5.87036e-09
3.73147e-09
-1.03146e-08
4.44425e-09
-1.55751e-08
5.26052e-09
-2.17637e-08
6.18855e-09
-2.8999e-08
7.23529e-09
-3.74045e-08
8.40549e-09
-4.71054e-08
9.7009e-09
-5.82247e-08
1.11193e-08
-7.08783e-08
1.26536e-08
-8.51686e-08
1.42903e-08
-1.01178e-07
1.6009e-08
-1.18958e-07
1.77808e-08
-1.38526e-07
1.95679e-08
-1.59849e-07
2.13228e-08
-1.82838e-07
2.29884e-08
-2.07335e-07
2.44979e-08
-2.33111e-07
2.57757e-08
-2.5985e-07
2.6739e-08
-2.87149e-07
2.72991e-08
-3.14514e-07
2.73646e-08
-3.41358e-07
2.6844e-08
-3.67008e-07
2.56501e-08
-3.90712e-07
2.37045e-08
-4.11651e-07
2.09381e-08
-4.28917e-07
1.72663e-08
-4.41639e-07
1.27226e-08
-4.49107e-07
7.46766e-09
-4.50478e-07
1.37132e-09
-4.45032e-07
-5.4463e-09
-4.32402e-07
-1.26299e-08
-4.12414e-07
-1.99884e-08
-3.85246e-07
-2.71675e-08
-3.51475e-07
-3.37714e-08
-3.12101e-07
-3.93739e-08
-2.68544e-07
-4.35572e-08
-2.22583e-07
-4.59605e-08
-1.76249e-07
-4.63338e-08
-1.31664e-07
-4.45854e-08
-9.08502e-08
-4.08139e-08
-5.55394e-08
-3.53109e-08
-2.70073e-08
-2.85321e-08
-5.96826e-09
-2.1039e-08
7.46697e-09
-1.34352e-08
1.37544e-08
-6.28745e-09
1.39214e-08
-1.66999e-10
9.6181e-09
4.30331e-09
3.57984e-09
6.03826e-09
3.57984e-09
2.82358e-10
-2.54739e-10
1.7066e-09
-1.89904e-09
4.13545e-09
-3.33438e-09
7.21892e-09
-4.25263e-09
1.06369e-08
-4.71589e-09
1.41354e-08
-4.82508e-09
1.75272e-08
-4.67673e-09
2.06808e-08
-4.34971e-09
2.35082e-08
-3.90484e-09
2.59543e-08
-3.38704e-09
2.79868e-08
-2.82802e-09
2.95885e-08
-2.24839e-09
3.07509e-08
-1.65983e-09
3.14684e-08
-1.06663e-09
3.17341e-08
-4.66485e-10
3.15365e-08
1.46018e-10
3.08548e-08
7.84041e-10
2.96568e-08
1.4624e-09
2.78976e-08
2.19878e-09
2.55157e-08
3.01504e-09
2.2432e-08
3.9353e-09
1.85469e-08
4.98678e-09
1.37395e-08
6.19838e-09
7.86574e-09
7.6017e-09
7.57175e-10
9.22959e-09
-7.78064e-09
1.11174e-08
-1.79688e-08
1.33013e-08
-3.00536e-08
1.58162e-08
-4.4305e-08
1.86957e-08
-6.10163e-08
2.19718e-08
-8.04996e-08
2.56719e-08
-1.0308e-07
2.98161e-08
-1.2909e-07
3.4415e-08
-1.58855e-07
3.94661e-08
-1.92686e-07
4.49502e-08
-2.3086e-07
5.08273e-08
-2.73602e-07
5.70329e-08
-3.21068e-07
6.34745e-08
-3.73315e-07
7.00278e-08
-4.30283e-07
7.65355e-08
-4.91765e-07
8.28056e-08
-5.5739e-07
8.86126e-08
-6.26591e-07
9.36999e-08
-6.986e-07
9.77842e-08
-7.72423e-07
1.00562e-07
-8.46843e-07
1.01719e-07
-9.20417e-07
1.00938e-07
-9.91488e-07
9.7915e-08
-1.05821e-06
9.23709e-08
-1.11857e-06
8.40692e-08
-1.17046e-06
7.28277e-08
-1.2117e-06
5.85059e-08
-1.23999e-06
4.10125e-08
-1.25362e-06
2.10963e-08
-1.25083e-06
-1.41868e-09
-1.23022e-06
-2.60565e-08
-1.19091e-06
-5.19456e-08
-1.13282e-06
-7.80775e-08
-1.05668e-06
-1.033e-07
-9.64174e-07
-1.26281e-07
-8.5794e-07
-1.45608e-07
-7.41589e-07
-1.59908e-07
-6.19544e-07
-1.68005e-07
-4.96796e-07
-1.69082e-07
-3.78544e-07
-1.62837e-07
-2.69774e-07
-1.49584e-07
-1.74811e-07
-1.30274e-07
-9.69293e-08
-1.06413e-07
-3.80707e-08
-7.98976e-08
1.29129e-09
-5.27973e-08
2.22157e-08
-2.72119e-08
2.72e-08
-5.15124e-09
2.04423e-08
1.1061e-08
8.30168e-09
1.81789e-08
1.18815e-08
7.24001e-10
-9.78695e-10
3.08205e-09
-4.25709e-09
6.81825e-09
-7.07061e-09
1.14745e-08
-8.90885e-09
1.66081e-08
-9.84953e-09
2.18529e-08
-1.00699e-08
2.69288e-08
-9.75256e-09
3.16324e-08
-9.05338e-09
3.58233e-08
-8.09575e-09
3.94088e-08
-6.97246e-09
4.23304e-08
-5.74963e-09
4.45525e-08
-4.47055e-09
4.60524e-08
-3.15976e-09
4.68118e-08
-1.82602e-09
4.68099e-08
-4.64591e-10
4.60177e-08
9.38216e-10
4.43915e-08
2.41028e-09
4.187e-08
3.98391e-09
3.83699e-08
5.69884e-09
3.37819e-08
7.60303e-09
2.79676e-08
9.74969e-09
2.07568e-08
1.21975e-08
1.19447e-08
1.50104e-08
1.28934e-09
1.82571e-08
-1.14916e-08
2.20105e-08
-2.6719e-08
2.63448e-08
-4.47523e-08
3.13347e-08
-6.59901e-08
3.7054e-08
-9.08673e-08
4.35729e-08
-1.1985e-07
5.09541e-08
-1.53426e-07
5.92481e-08
-1.92098e-07
6.84881e-08
-2.36366e-07
7.86833e-08
-2.86712e-07
8.98117e-08
-3.43573e-07
1.01812e-07
-4.07322e-07
1.14576e-07
-4.78228e-07
1.27939e-07
-5.5643e-07
1.41676e-07
-6.41895e-07
1.55493e-07
-7.34386e-07
1.69027e-07
-8.33424e-07
1.81843e-07
-9.38255e-07
1.93444e-07
-1.04783e-06
2.03271e-07
-1.16077e-06
2.10724e-07
-1.27538e-06
2.15173e-07
-1.38964e-06
2.1598e-07
-1.50122e-06
2.12523e-07
-1.60753e-06
2.04221e-07
-1.70573e-06
1.90567e-07
-1.79281e-06
1.71158e-07
-1.86572e-06
1.45731e-07
-1.92139e-06
1.14178e-07
-1.95665e-06
7.62768e-08
-1.96921e-06
3.36512e-08
-1.95686e-06
-1.37681e-08
-1.91782e-06
-6.50966e-08
-1.85132e-06
-1.18445e-07
-1.75757e-06
-1.71827e-07
-1.63792e-06
-2.22951e-07
-1.49499e-06
-2.69215e-07
-1.33271e-06
-3.07887e-07
-1.15628e-06
-3.36333e-07
-9.71995e-07
-3.52292e-07
-7.86886e-07
-3.54191e-07
-6.08296e-07
-3.41428e-07
-4.4331e-07
-3.1457e-07
-2.98164e-07
-2.75419e-07
-1.77695e-07
-2.26883e-07
-8.49053e-08
-1.72687e-07
-2.07076e-08
-1.16995e-07
1.61756e-08
-6.40951e-08
2.92672e-08
-1.82429e-08
2.45126e-08
1.58156e-08
1.06246e-08
3.20668e-08
2.25062e-08
1.16863e-09
-2.14736e-09
4.39989e-09
-7.48838e-09
9.26178e-09
-1.19325e-08
1.52084e-08
-1.48555e-08
2.17129e-08
-1.6354e-08
2.83288e-08
-1.66858e-08
3.4705e-08
-1.61288e-08
4.05803e-08
-1.49287e-08
4.57682e-08
-1.32837e-08
5.01409e-08
-1.13451e-08
5.3613e-08
-9.22178e-09
5.61275e-08
-6.98506e-09
5.76431e-08
-4.67535e-09
5.81236e-08
-2.30647e-09
5.75289e-08
1.30099e-10
5.58062e-08
2.66085e-09
5.28843e-08
5.33222e-09
4.8667e-08
8.20122e-09
4.30276e-08
1.13382e-08
3.58048e-08
1.48258e-08
2.67979e-08
1.87567e-08
1.57625e-08
2.32329e-08
2.40624e-09
2.83667e-08
-1.36117e-08
3.42751e-08
-3.26825e-08
4.10813e-08
-5.52491e-08
4.89115e-08
-8.18062e-08
5.78917e-08
-1.12896e-07
6.8144e-08
-1.49104e-07
7.97812e-08
-1.91051e-07
9.29003e-08
-2.39376e-07
1.07574e-07
-2.94728e-07
1.2384e-07
-3.57737e-07
1.41692e-07
-4.28989e-07
1.61064e-07
-5.08995e-07
1.81818e-07
-5.9815e-07
2.03731e-07
-6.96693e-07
2.26482e-07
-8.04661e-07
2.49644e-07
-9.2184e-07
2.72672e-07
-1.04772e-06
2.9491e-07
-1.18147e-06
3.15588e-07
-1.32186e-06
3.33838e-07
-1.4673e-06
3.48712e-07
-1.61579e-06
3.59206e-07
-1.76491e-06
3.64294e-07
-1.91189e-06
3.62964e-07
-2.05363e-06
3.54258e-07
-2.18672e-06
3.37317e-07
-2.30759e-06
3.1143e-07
-2.4125e-06
2.76078e-07
-2.49776e-06
2.30988e-07
-2.55975e-06
1.76163e-07
-2.59525e-06
1.11784e-07
-2.60125e-06
3.96489e-08
-2.57548e-06
-3.95353e-08
-2.51642e-06
-1.24157e-07
-2.42351e-06
-2.11357e-07
-2.29735e-06
-2.97994e-07
-2.13985e-06
-3.80446e-07
-1.95439e-06
-4.54675e-07
-1.74581e-06
-5.16467e-07
-1.52038e-06
-5.61764e-07
-1.28559e-06
-5.87076e-07
-1.04984e-06
-5.89943e-07
-8.21903e-07
-5.69368e-07
-6.10331e-07
-5.26142e-07
-4.22779e-07
-4.62972e-07
-2.65327e-07
-3.84335e-07
-1.41931e-07
-2.96083e-07
-5.4037e-08
-2.04889e-07
-3.92489e-10
-1.1774e-07
2.31285e-08
-4.17639e-08
2.35137e-08
1.54305e-08
1.10037e-08
4.45768e-08
3.35099e-08
1.56933e-09
-3.71665e-09
5.57421e-09
-1.14933e-08
1.13861e-08
-1.77444e-08
1.83726e-08
-2.1842e-08
2.59428e-08
-2.39243e-08
3.35923e-08
-2.43352e-08
4.09175e-08
-2.34541e-08
4.76114e-08
-2.16226e-08
5.34493e-08
-1.91215e-08
5.82716e-08
-1.61674e-08
6.19667e-08
-1.29169e-08
6.44544e-08
-9.47277e-09
6.56719e-08
-5.89286e-09
6.55612e-08
-2.19574e-09
6.4058e-08
1.63325e-09
6.10819e-08
5.637e-09
5.65287e-08
9.8854e-09
5.02629e-08
1.4467e-08
4.2111e-08
1.94902e-08
3.18553e-08
2.50815e-08
1.92282e-08
3.13837e-08
3.90866e-09
3.85524e-08
-1.44809e-08
4.67563e-08
-3.63789e-08
5.61731e-08
-6.22858e-08
6.69881e-08
-9.27634e-08
7.93891e-08
-1.28433e-07
9.35616e-08
-1.69971e-07
1.09682e-07
-2.18098e-07
1.27908e-07
-2.73568e-07
1.4837e-07
-3.37148e-07
1.71154e-07
-4.09599e-07
1.9629e-07
-4.91637e-07
2.23731e-07
-5.83907e-07
2.53333e-07
-6.8693e-07
2.8484e-07
-8.01058e-07
3.17859e-07
-9.26424e-07
3.51848e-07
-1.06288e-06
3.86099e-07
-1.20995e-06
4.19739e-07
-1.36676e-06
4.5173e-07
-1.53206e-06
4.80881e-07
-1.7041e-06
5.05877e-07
-1.88069e-06
5.2531e-07
-2.05921e-06
5.37722e-07
-2.23658e-06
5.41663e-07
-2.40935e-06
5.3574e-07
-2.57378e-06
5.18685e-07
-2.72588e-06
4.89411e-07
-2.86152e-06
4.47074e-07
-2.97658e-06
3.9114e-07
-3.06703e-06
3.21441e-07
-3.1291e-06
2.38232e-07
-3.15953e-06
1.42207e-07
-3.15528e-06
3.54018e-08
-3.11423e-06
-8.05812e-08
-3.03517e-06
-2.03216e-07
-2.91788e-06
-3.28655e-07
-2.76332e-06
-4.52546e-07
-2.57388e-06
-5.69887e-07
-2.35341e-06
-6.75151e-07
-2.10729e-06
-7.62588e-07
-1.8424e-06
-8.26648e-07
-1.56696e-06
-8.62518e-07
-1.29016e-06
-8.6674e-07
-1.02173e-06
-8.37803e-07
-7.71244e-07
-7.76627e-07
-5.47443e-07
-6.86773e-07
-3.57448e-07
-5.7433e-07
-2.06103e-07
-4.47428e-07
-9.54657e-08
-3.15526e-07
-2.45018e-08
-1.88703e-07
1.10592e-08
-7.73249e-08
1.88562e-08
7.63346e-09
1.00228e-08
5.34102e-08
4.35327e-08
1.90766e-09
-5.62433e-09
6.56427e-09
-1.61499e-08
1.31494e-08
-2.43296e-08
2.0943e-08
-2.96356e-08
2.93006e-08
-3.22819e-08
3.76748e-08
-3.27095e-08
4.56238e-08
-3.1403e-08
5.28056e-08
-2.88044e-08
5.89646e-08
-2.52805e-08
6.39138e-08
-2.11166e-08
6.75164e-08
-1.65195e-08
6.96685e-08
-1.16249e-08
7.02841e-08
-6.50849e-09
6.92805e-08
-1.19214e-09
6.65656e-08
4.34816e-09
6.20274e-08
1.01752e-08
5.55253e-08
1.63875e-08
4.68802e-08
2.31121e-08
3.5867e-08
3.05034e-08
2.22089e-08
3.87397e-08
5.57124e-09
4.80214e-08
-1.4444e-08
5.85676e-08
-3.8302e-08
7.06143e-08
-6.65381e-08
8.44092e-08
-9.97581e-08
1.00208e-07
-1.38637e-07
1.18268e-07
-1.83915e-07
1.38839e-07
-2.36388e-07
1.62155e-07
-2.96897e-07
1.88417e-07
-3.66307e-07
2.1778e-07
-4.45484e-07
2.50332e-07
-5.35265e-07
2.8607e-07
-6.36411e-07
3.24877e-07
-7.4957e-07
3.66492e-07
-8.75214e-07
4.10485e-07
-1.01359e-06
4.56232e-07
-1.16464e-06
5.02897e-07
-1.32796e-06
5.49418e-07
-1.50273e-06
5.94511e-07
-1.68767e-06
6.36677e-07
-1.88103e-06
6.74236e-07
-2.08052e-06
7.05366e-07
-2.28337e-06
7.28161e-07
-2.48635e-06
7.40699e-07
-2.6858e-06
7.41115e-07
-2.87774e-06
7.27684e-07
-3.05795e-06
6.98892e-07
-3.22205e-06
6.53517e-07
-3.36568e-06
5.90699e-07
-3.48454e-06
5.10005e-07
-3.5746e-06
4.11499e-07
-3.63218e-06
2.95809e-07
-3.65416e-06
1.64182e-07
-3.6378e-06
1.90437e-08
-3.58126e-06
-1.37123e-07
-3.48365e-06
-3.00823e-07
-3.34506e-06
-4.67241e-07
-3.16676e-06
-6.30844e-07
-2.95137e-06
-7.85285e-07
-2.70294e-06
-9.23582e-07
-2.42707e-06
-1.03845e-06
-2.13089e-06
-1.12283e-06
-1.82292e-06
-1.17049e-06
-1.51279e-06
-1.17687e-06
-1.21081e-06
-1.13978e-06
-9.27334e-07
-1.06011e-06
-6.71963e-07
-9.42144e-07
-4.52753e-07
-7.9354e-07
-2.75423e-07
-6.24758e-07
-1.42731e-07
-4.48218e-07
-5.40589e-08
-2.77375e-07
-5.21761e-09
-1.26166e-07
1.16533e-08
-9.23748e-09
8.13413e-09
5.69294e-08
5.16668e-08
2.1778e-09
-7.80211e-09
7.35383e-09
-2.13259e-08
1.45342e-08
-3.15099e-08
2.29129e-08
-3.80143e-08
3.17983e-08
-4.11672e-08
4.06102e-08
-4.15214e-08
4.88792e-08
-3.9672e-08
5.62378e-08
-3.61629e-08
6.2406e-08
-3.14487e-08
6.71736e-08
-2.58842e-08
7.03805e-08
-1.97265e-08
7.19006e-08
-1.3145e-08
7.1623e-08
-6.23083e-09
6.94373e-08
9.93562e-10
6.52215e-08
8.56396e-09
5.88289e-08
1.65678e-08
5.00782e-08
2.51383e-08
3.87439e-08
3.44464e-08
2.45483e-08
4.46989e-08
7.1536e-09
5.61344e-08
-1.38446e-08
6.90195e-08
-3.89222e-08
8.36453e-08
-6.86311e-08
1.00323e-07
-1.036e-07
1.19379e-07
-1.44537e-07
1.41145e-07
-1.92223e-07
1.65953e-07
-2.47505e-07
1.94121e-07
-3.11287e-07
2.25937e-07
-3.84508e-07
2.61639e-07
-4.68124e-07
3.01395e-07
-5.63065e-07
3.45274e-07
-6.70206e-07
3.93211e-07
-7.90309e-07
4.4498e-07
-9.23969e-07
5.00152e-07
-1.07155e-06
5.58067e-07
-1.23312e-06
6.17801e-07
-1.40837e-06
6.78151e-07
-1.59658e-06
7.37624e-07
-1.79652e-06
7.9445e-07
-2.00645e-06
8.46607e-07
-2.22409e-06
8.91874e-07
-2.44661e-06
9.27893e-07
-2.67071e-06
9.52259e-07
-2.89262e-06
9.62609e-07
-3.10823e-06
9.56725e-07
-3.31317e-06
9.32627e-07
-3.50295e-06
8.88668e-07
-3.67305e-06
8.23613e-07
-3.81906e-06
7.36711e-07
-3.93681e-06
6.27757e-07
-4.02247e-06
4.97159e-07
-4.07266e-06
3.45993e-07
-4.08456e-06
1.76083e-07
-4.05584e-06
-9.67284e-09
-3.985e-06
-2.07966e-07
-3.87143e-06
-4.14393e-07
-3.71542e-06
-6.23243e-07
-3.51838e-06
-8.27891e-07
-3.28292e-06
-1.02074e-06
-3.01306e-06
-1.19344e-06
-2.71432e-06
-1.33719e-06
-2.39375e-06
-1.4434e-06
-2.05988e-06
-1.50436e-06
-1.72252e-06
-1.51423e-06
-1.39235e-06
-1.46995e-06
-1.0803e-06
-1.37216e-06
-7.96754e-07
-1.22569e-06
-5.50663e-07
-1.03963e-06
-3.48653e-07
-8.26769e-07
-1.94274e-07
-6.02597e-07
-8.74889e-08
-3.8416e-07
-2.44126e-08
-1.89242e-07
2.74738e-09
-3.63975e-08
5.67508e-09
5.40017e-08
5.73419e-08
2.38029e-09
-1.01824e-08
7.94055e-09
-2.68862e-08
1.55383e-08
-3.91077e-08
2.42877e-08
-4.67637e-08
3.34548e-08
-5.03343e-08
4.24342e-08
-5.05009e-08
5.07373e-08
-4.7975e-08
5.79785e-08
-4.34042e-08
6.386e-08
-3.73302e-08
6.81522e-08
-3.01763e-08
7.06749e-08
-2.22492e-08
7.12791e-08
-1.37493e-08
6.98286e-08
-4.78033e-09
6.61851e-08
4.63706e-09
6.01939e-08
1.45552e-08
5.1671e-08
2.50906e-08
4.03931e-08
3.64161e-08
2.60862e-08
4.87532e-08
8.41712e-09
6.2368e-08
-1.30147e-08
7.75662e-08
-3.86834e-08
9.46883e-08
-6.91426e-08
1.14105e-07
-1.05029e-07
1.36209e-07
-1.47061e-07
1.61411e-07
-1.96042e-07
1.90126e-07
-2.5285e-07
2.22762e-07
-3.18429e-07
2.597e-07
-3.93773e-07
3.0128e-07
-4.799e-07
3.47766e-07
-5.77823e-07
3.99319e-07
-6.8851e-07
4.5596e-07
-8.12829e-07
5.17531e-07
-9.51495e-07
5.83646e-07
-1.105e-06
6.53656e-07
-1.27354e-06
7.26604e-07
-1.45693e-06
8.01197e-07
-1.65457e-06
8.75793e-07
-1.86535e-06
9.48397e-07
-2.08759e-06
1.01669e-06
-2.31906e-06
1.07809e-06
-2.55698e-06
1.12979e-06
-2.79802e-06
1.16892e-06
-3.03837e-06
1.19261e-06
-3.27387e-06
1.19811e-06
-3.5001e-06
1.18295e-06
-3.71248e-06
1.14501e-06
-3.90646e-06
1.08265e-06
-4.07759e-06
9.9474e-07
-4.22166e-06
8.80778e-07
-4.33479e-06
7.40892e-07
-4.41354e-06
5.75909e-07
-4.45495e-06
3.87398e-07
-4.4566e-06
1.77737e-07
-4.41658e-06
-4.96909e-08
-4.3337e-06
-2.90852e-07
-4.20752e-06
-5.40567e-07
-4.03842e-06
-7.92343e-07
-3.82771e-06
-1.0386e-06
-3.57784e-06
-1.27062e-06
-3.29251e-06
-1.47877e-06
-2.9769e-06
-1.6528e-06
-2.63775e-06
-1.78255e-06
-2.2834e-06
-1.85872e-06
-1.92362e-06
-1.874e-06
-1.56932e-06
-1.82425e-06
-1.23192e-06
-1.70956e-06
-9.22546e-07
-1.53506e-06
-6.51072e-07
-1.3111e-06
-4.25098e-07
-1.05274e-06
-2.49085e-07
-7.78611e-07
-1.2372e-07
-5.09525e-07
-4.56107e-08
-2.67352e-07
-7.25238e-09
-7.47558e-08
2.88492e-09
4.38644e-08
6.02268e-08
2.51875e-09
-1.27012e-08
8.32977e-09
-3.26972e-08
1.61693e-08
-4.69472e-08
2.50807e-08
-5.56751e-08
3.42937e-08
-5.95472e-08
4.31837e-08
-5.9391e-08
5.12496e-08
-5.60408e-08
5.80945e-08
-5.02491e-08
6.34078e-08
-4.26435e-08
6.69449e-08
-3.37135e-08
6.85077e-08
-2.38121e-08
6.79255e-08
-1.3167e-08
6.5037e-08
-1.89184e-09
5.96748e-08
9.99924e-09
5.16505e-08
2.25796e-08
4.07417e-08
3.59994e-08
2.66806e-08
5.04772e-08
9.14313e-09
6.62907e-08
-1.22605e-08
8.37717e-08
-3.79939e-08
1.033e-07
-6.8601e-08
1.25295e-07
-1.04711e-07
1.50215e-07
-1.47042e-07
1.7854e-07
-1.96399e-07
2.10768e-07
-2.53673e-07
2.47399e-07
-3.19827e-07
2.88915e-07
-3.95887e-07
3.35761e-07
-4.82919e-07
3.88312e-07
-5.81997e-07
4.46843e-07
-6.94163e-07
5.11485e-07
-8.20382e-07
5.82179e-07
-9.61478e-07
6.58626e-07
-1.11807e-06
7.40235e-07
-1.29048e-06
8.26071e-07
-1.47869e-06
9.14816e-07
-1.68224e-06
1.00474e-06
-1.90013e-06
1.09369e-06
-2.13084e-06
1.17911e-06
-2.37224e-06
1.25809e-06
-2.62162e-06
1.32746e-06
-2.87569e-06
1.38386e-06
-3.13069e-06
1.42392e-06
-3.38245e-06
1.44437e-06
-3.62653e-06
1.44219e-06
-3.85836e-06
1.41478e-06
-4.07336e-06
1.36001e-06
-4.2671e-06
1.27639e-06
-4.43539e-06
1.16303e-06
-4.57441e-06
1.01979e-06
-4.68071e-06
8.47199e-07
-4.75135e-06
6.46545e-07
-4.78383e-06
4.1988e-07
-4.77618e-06
1.70083e-07
-4.72684e-06
-9.90296e-08
-4.63485e-06
-3.82844e-07
-4.49984e-06
-6.75574e-07
-4.32209e-06
-9.70089e-07
-4.10268e-06
-1.25801e-06
-3.84364e-06
-1.52966e-06
-3.5482e-06
-1.77421e-06
-3.22098e-06
-1.98002e-06
-2.86822e-06
-2.13531e-06
-2.49786e-06
-2.22908e-06
-2.11952e-06
-2.25234e-06
-1.74421e-06
-2.19956e-06
-1.3838e-06
-2.06997e-06
-1.05016e-06
-1.8687e-06
-7.54152e-07
-1.60711e-06
-5.04453e-07
-1.30244e-06
-3.06566e-07
-9.76497e-07
-1.6206e-07
-6.54031e-07
-6.81972e-08
-3.61215e-07
-1.79313e-08
-1.25022e-07
-9.75311e-11
2.60307e-08
6.01292e-08
2.59798e-09
-1.52992e-08
8.53063e-09
-3.86299e-08
1.64399e-08
-5.48565e-08
2.53101e-08
-6.45453e-08
3.43413e-08
-6.85784e-08
4.28958e-08
-6.79455e-08
5.04656e-08
-6.36106e-08
5.66484e-08
-5.64319e-08
6.11257e-08
-4.71208e-08
6.36417e-08
-3.62294e-08
6.39825e-08
-2.4153e-08
6.19575e-08
-1.11419e-08
5.73808e-08
2.68488e-09
5.00555e-08
1.73245e-08
3.97587e-08
3.28763e-08
2.62284e-08
4.95297e-08
9.1516e-09
6.75541e-08
-1.1847e-08
8.72893e-08
-3.72141e-08
1.09139e-07
-6.7476e-08
1.33561e-07
-1.03245e-07
1.61064e-07
-1.45224e-07
1.92194e-07
-1.94208e-07
2.27524e-07
-2.5108e-07
2.67641e-07
-3.1681e-07
3.13129e-07
-3.92436e-07
3.64542e-07
-4.7905e-07
4.22375e-07
-5.77767e-07
4.87029e-07
-6.89689e-07
5.58765e-07
-8.15859e-07
6.37655e-07
-9.57199e-07
7.2352e-07
-1.11445e-06
8.15873e-07
-1.28807e-06
9.13859e-07
-1.4782e-06
1.0162e-06
-1.68452e-06
1.12114e-06
-1.90624e-06
1.22645e-06
-2.14197e-06
1.32942e-06
-2.38974e-06
1.42688e-06
-2.64696e-06
1.51532e-06
-2.91046e-06
1.59096e-06
-3.17654e-06
1.64995e-06
-3.44109e-06
1.68847e-06
-3.69969e-06
1.70297e-06
-3.94778e-06
1.69029e-06
-4.18083e-06
1.64782e-06
-4.39441e-06
1.5736e-06
-4.5844e-06
1.46638e-06
-4.74705e-06
1.32567e-06
-4.87899e-06
1.15174e-06
-4.97736e-06
9.45567e-07
-5.03971e-06
7.08896e-07
-5.06404e-06
4.44211e-07
-5.04877e-06
1.54806e-07
-4.99263e-06
-1.55171e-07
-4.89477e-06
-4.80696e-07
-4.75479e-06
-8.15558e-07
-4.57272e-06
-1.15216e-06
-4.34925e-06
-1.48149e-06
-4.08585e-06
-1.79306e-06
-3.7851e-06
-2.07496e-06
-3.45092e-06
-2.3142e-06
-3.08887e-06
-2.49736e-06
-2.70634e-06
-2.6116e-06
-2.31266e-06
-2.64603e-06
-1.91885e-06
-2.59336e-06
-1.5372e-06
-2.45163e-06
-1.18034e-06
-2.22555e-06
-8.60193e-07
-1.92726e-06
-5.86653e-07
-1.57598e-06
-3.66421e-07
-1.19673e-06
-2.02112e-07
-8.1834e-07
-9.17969e-08
-4.7153e-07
-2.90277e-08
-1.87791e-07
-3.12211e-09
1.25068e-10
5.70071e-08
2.6229e-09
-1.79221e-08
8.55364e-09
-4.45606e-08
1.6365e-08
-6.26679e-08
2.4996e-08
-7.31762e-08
3.36249e-08
-7.72072e-08
4.16068e-08
-7.59274e-08
4.84326e-08
-7.04364e-08
5.36995e-08
-6.16988e-08
5.70857e-08
-5.0507e-08
5.83275e-08
-3.74712e-08
5.71983e-08
-2.30237e-08
5.34887e-08
-7.43237e-09
4.69892e-08
9.1844e-09
3.74734e-08
2.68403e-08
2.46839e-08
4.56658e-08
8.3184e-09
6.58952e-08
-1.19819e-08
8.78544e-08
-3.66434e-08
1.11951e-07
-6.61693e-08
1.38665e-07
-1.01147e-07
1.6854e-07
-1.42256e-07
2.02173e-07
-1.90268e-07
2.40205e-07
-2.46048e-07
2.83304e-07
-3.10553e-07
3.32146e-07
-3.84818e-07
3.87394e-07
-4.69943e-07
4.49666e-07
-5.67065e-07
5.19497e-07
-6.77328e-07
5.97291e-07
-8.01833e-07
6.83271e-07
-9.4159e-07
7.77412e-07
-1.09744e-06
8.79371e-07
-1.26999e-06
9.88425e-07
-1.45953e-06
1.10339e-06
-1.66591e-06
1.22258e-06
-1.88852e-06
1.34375e-06
-2.12619e-06
1.46412e-06
-2.37711e-06
1.58034e-06
-2.63888e-06
1.68865e-06
-2.90846e-06
1.7849e-06
-3.18229e-06
1.86479e-06
-3.45632e-06
1.92398e-06
-3.72623e-06
1.95837e-06
-3.98748e-06
1.96422e-06
-4.23556e-06
1.93838e-06
-4.46611e-06
1.87837e-06
-4.67505e-06
1.78254e-06
-4.8587e-06
1.65002e-06
-5.0138e-06
1.48078e-06
-5.13759e-06
1.27553e-06
-5.22776e-06
1.03573e-06
-5.28239e-06
7.63525e-07
-5.29992e-06
4.61742e-07
-5.27909e-06
1.3398e-07
-5.21885e-06
-2.15408e-07
-5.11839e-06
-5.81166e-07
-4.9771e-06
-9.56843e-07
-4.79472e-06
-1.33454e-06
-4.5714e-06
-1.70481e-06
-4.30798e-06
-2.05648e-06
-4.00624e-06
-2.3767e-06
-3.66926e-06
-2.65118e-06
-3.30179e-06
-2.86483e-06
-2.91055e-06
-3.00284e-06
-2.50442e-06
-3.05216e-06
-2.09434e-06
-3.00344e-06
-1.69293e-06
-2.85303e-06
-1.31363e-06
-2.60485e-06
-9.6949e-07
-2.2714e-06
-6.7177e-07
-1.8737e-06
-4.28555e-07
-1.43994e-06
-2.43688e-07
-1.00321e-06
-1.16216e-07
-5.99002e-07
-4.04094e-08
-2.63598e-07
-6.18552e-09
-3.40988e-08
5.08216e-08
2.59807e-09
-2.05202e-08
8.40925e-09
-5.03718e-08
1.59603e-08
-7.0219e-08
2.41592e-08
-8.13751e-08
3.21713e-08
-8.52193e-08
3.93515e-08
-8.31075e-08
4.51948e-08
-7.62798e-08
4.93029e-08
-6.58069e-08
5.13549e-08
-5.2559e-08
5.10827e-08
-3.7199e-08
4.82492e-08
-2.01902e-08
4.26284e-08
-1.81155e-09
3.39878e-08
1.7825e-08
2.20723e-08
3.87557e-08
6.58983e-09
6.11483e-08
-1.2802e-08
8.5287e-08
-3.65073e-08
1.1156e-07
-6.50032e-08
1.40447e-07
-9.8848e-08
1.72509e-07
-1.38689e-07
2.0838e-07
-1.85267e-07
2.48751e-07
-2.39419e-07
2.94358e-07
-3.02076e-07
3.45961e-07
-3.74254e-07
4.04324e-07
-4.57045e-07
4.70185e-07
-5.51591e-07
5.44212e-07
-6.59057e-07
6.26963e-07
-7.80589e-07
7.18823e-07
-9.17261e-07
8.19944e-07
-1.07001e-06
9.30163e-07
-1.23957e-06
1.04893e-06
-1.42637e-06
1.17522e-06
-1.63045e-06
1.30748e-06
-1.85141e-06
1.44353e-06
-2.08826e-06
1.58061e-06
-2.33944e-06
1.7153e-06
-2.60275e-06
1.84364e-06
-2.87533e-06
1.96123e-06
-3.15379e-06
2.06336e-06
-3.43421e-06
2.14521e-06
-3.71235e-06
2.20212e-06
-3.98375e-06
2.22977e-06
-4.24393e-06
2.2244e-06
-4.48856e-06
2.18301e-06
-4.71361e-06
2.10342e-06
-4.91544e-06
1.98437e-06
-5.0909e-06
1.82548e-06
-5.23734e-06
1.62722e-06
-5.35259e-06
1.39078e-06
-5.43488e-06
1.11802e-06
-5.48279e-06
8.11434e-07
-5.49513e-06
4.74084e-07
-5.47091e-06
1.09759e-07
-5.40919e-06
-2.77129e-07
-5.3091e-06
-6.81257e-07
-5.16982e-06
-1.09612e-06
-4.99067e-06
-1.51368e-06
-4.77126e-06
-1.92422e-06
-4.51167e-06
-2.31607e-06
-4.21282e-06
-2.67554e-06
-3.87687e-06
-2.98713e-06
-3.50762e-06
-3.23409e-06
-3.11096e-06
-3.3995e-06
-2.69517e-06
-3.46795e-06
-2.271e-06
-3.42761e-06
-1.85131e-06
-3.27272e-06
-1.4503e-06
-3.00586e-06
-1.08225e-06
-2.63945e-06
-7.59925e-07
-2.19602e-06
-4.92999e-07
-1.70687e-06
-2.86754e-07
-1.20945e-06
-1.41394e-07
-7.44362e-07
-5.20302e-08
-3.52962e-07
-9.25272e-09
-7.68763e-08
4.15689e-08
2.52745e-09
-2.30477e-08
8.10712e-09
-5.59515e-08
1.52407e-08
-7.73525e-08
2.28195e-08
-8.89539e-08
3.00063e-08
-9.24061e-08
3.61626e-08
-8.92637e-08
4.07936e-08
-8.09108e-08
4.35102e-08
-6.85236e-08
4.39965e-08
-5.30453e-08
4.19832e-08
-3.51858e-08
3.72253e-08
-1.54323e-08
2.94819e-08
5.93188e-09
1.84988e-08
2.88081e-08
3.99297e-09
5.32616e-08
-1.43616e-08
7.95029e-08
-3.69468e-08
1.07872e-07
-6.42114e-08
1.38824e-07
-9.66815e-08
1.72917e-07
-1.34969e-07
2.10797e-07
-1.79777e-07
2.53189e-07
-2.31905e-07
3.00879e-07
-2.92248e-07
3.54701e-07
-3.61793e-07
4.15505e-07
-4.41607e-07
4.84138e-07
-5.32822e-07
5.614e-07
-6.36606e-07
6.47997e-07
-7.54131e-07
7.44488e-07
-8.8652e-07
8.51212e-07
-1.03479e-06
9.68211e-07
-1.19977e-06
1.09515e-06
-1.38204e-06
1.2312e-06
-1.58183e-06
1.37501e-06
-1.79891e-06
1.52456e-06
-2.03255e-06
1.67717e-06
-2.28141e-06
1.82947e-06
-2.54352e-06
1.97741e-06
-2.81629e-06
2.11641e-06
-3.09648e-06
2.24143e-06
-3.38038e-06
2.34725e-06
-3.66384e-06
2.42867e-06
-3.9425e-06
2.48078e-06
-4.21192e-06
2.4992e-06
-4.46781e-06
2.48029e-06
-4.70615e-06
2.42134e-06
-4.92333e-06
2.3206e-06
-5.11625e-06
2.1773e-06
-5.28236e-06
1.99159e-06
-5.4196e-06
1.76446e-06
-5.52638e-06
1.49755e-06
-5.60144e-06
1.19309e-06
-5.6438e-06
8.53794e-07
-5.65257e-06
4.82856e-07
-5.62696e-06
8.4141e-08
-5.56607e-06
-3.3802e-07
-5.46894e-06
-7.78385e-07
-5.3345e-06
-1.23056e-06
-5.16163e-06
-1.68654e-06
-4.94936e-06
-2.1365e-06
-4.697e-06
-2.56843e-06
-4.40458e-06
-2.96796e-06
-4.07323e-06
-3.31848e-06
-3.70571e-06
-3.60161e-06
-3.30692e-06
-3.79829e-06
-2.88439e-06
-3.89048e-06
-2.44847e-06
-3.86353e-06
-2.01214e-06
-3.70905e-06
-1.59032e-06
-3.42769e-06
-1.19853e-06
-3.03124e-06
-8.51219e-07
-2.54334e-06
-5.59843e-07
-1.99825e-06
-3.31368e-07
-1.43793e-06
-1.6736e-07
-9.0837e-07
-6.39071e-08
-4.56415e-07
-1.23288e-08
-1.28455e-07
2.92401e-08
2.41432e-09
-2.5462e-08
7.65563e-09
-6.11928e-08
1.42193e-08
-8.39162e-08
2.09951e-08
-9.57297e-08
2.71533e-08
-9.85643e-08
3.20701e-08
-9.41805e-08
3.5267e-08
-8.41077e-08
3.63691e-08
-6.96256e-08
3.50693e-08
-5.17455e-08
3.11006e-08
-3.1217e-08
2.42123e-08
-8.54406e-09
1.41505e-08
1.59936e-08
6.41004e-10
4.23177e-08
-1.66262e-08
7.05288e-08
-3.80101e-08
1.00887e-07
-6.39308e-08
1.33793e-07
-9.48803e-08
1.69774e-07
-1.31432e-07
2.09468e-07
-1.74247e-07
2.53612e-07
-2.24083e-07
3.03024e-07
-2.8179e-07
3.58587e-07
-3.48315e-07
4.21225e-07
-4.2469e-07
4.91881e-07
-5.12022e-07
5.7147e-07
-6.11468e-07
6.60846e-07
-7.24204e-07
7.60733e-07
-8.51382e-07
8.71666e-07
-9.94077e-07
9.93907e-07
-1.15322e-06
1.12735e-06
-1.3295e-06
1.27143e-06
-1.52332e-06
1.42502e-06
-1.73465e-06
1.58634e-06
-1.963e-06
1.7529e-06
-2.20727e-06
1.92144e-06
-2.46577e-06
2.08797e-06
-2.73614e-06
2.24779e-06
-3.01541e-06
2.39568e-06
-3.30005e-06
2.52607e-06
-3.58609e-06
2.63329e-06
-3.86926e-06
2.71184e-06
-4.1452e-06
2.75672e-06
-4.40962e-06
2.76362e-06
-4.6585e-06
2.72918e-06
-4.88826e-06
2.65109e-06
-5.09579e-06
2.52813e-06
-5.27858e-06
2.36008e-06
-5.43465e-06
2.14766e-06
-5.56254e-06
1.89235e-06
-5.66118e-06
1.59619e-06
-5.72979e-06
1.2617e-06
-5.76774e-06
8.91742e-07
-5.77437e-06
4.89494e-07
-5.74904e-06
5.88096e-08
-5.69087e-06
-3.96189e-07
-5.5988e-06
-8.70459e-07
-5.47149e-06
-1.35787e-06
-5.30742e-06
-1.85061e-06
-5.10503e-06
-2.33889e-06
-4.8629e-06
-2.81056e-06
-4.58012e-06
-3.25074e-06
-4.25676e-06
-3.64184e-06
-3.89442e-06
-3.96395e-06
-3.49689e-06
-4.19582e-06
-3.07074e-06
-4.31663e-06
-2.62572e-06
-4.30856e-06
-2.17474e-06
-4.16003e-06
-1.73331e-06
-3.86912e-06
-1.31822e-06
-3.44632e-06
-9.45689e-07
-2.91587e-06
-6.29194e-07
-2.31474e-06
-3.77641e-07
-1.68948e-06
-1.942e-07
-1.09181e-06
-7.60998e-08
-5.74516e-07
-1.54332e-08
-1.89121e-07
1.38069e-08
2.26129e-09
-2.77233e-08
7.06175e-09
-6.59933e-08
1.29077e-08
-8.97622e-08
1.87018e-08
-1.01524e-07
2.36332e-08
-1.03496e-07
2.71012e-08
-9.76486e-08
2.86498e-08
-8.56563e-08
2.79235e-08
-6.88993e-08
2.46282e-08
-4.84503e-08
1.85022e-08
-2.5091e-08
9.29182e-09
6.66314e-10
-3.26786e-09
2.85533e-08
-1.94698e-08
5.85196e-08
-3.96494e-08
9.07084e-08
-6.41971e-08
1.25434e-07
-9.35696e-08
1.63165e-07
-1.283e-07
2.04504e-07
-1.69006e-07
2.50174e-07
-2.16397e-07
3.01003e-07
-2.71274e-07
3.57902e-07
-3.34537e-07
4.21849e-07
-4.07174e-07
4.93862e-07
-4.90252e-07
5.74959e-07
-5.84904e-07
6.66122e-07
-6.92294e-07
7.68236e-07
-8.13587e-07
8.82026e-07
-9.49895e-07
1.00797e-06
-1.10222e-06
1.14623e-06
-1.27136e-06
1.29649e-06
-1.45786e-06
1.45793e-06
-1.6619e-06
1.62906e-06
-1.88319e-06
1.80764e-06
-2.12092e-06
1.99063e-06
-2.37365e-06
2.17418e-06
-2.63933e-06
2.35364e-06
-2.91524e-06
2.5237e-06
-3.1981e-06
2.67854e-06
-3.48413e-06
2.8121e-06
-3.76921e-06
2.91837e-06
-4.04905e-06
2.99168e-06
-4.3194e-06
3.02706e-06
-4.57623e-06
3.02044e-06
-4.8159e-06
2.96886e-06
-5.03531e-06
2.8705e-06
-5.2319e-06
2.72473e-06
-5.40375e-06
2.53193e-06
-5.54944e-06
2.29336e-06
-5.66805e-06
2.01096e-06
-5.75898e-06
1.68712e-06
-5.82185e-06
1.32457e-06
-5.85634e-06
9.26235e-07
-5.86198e-06
4.95134e-07
-5.83822e-06
3.5054e-08
-5.7842e-06
-4.50211e-07
-5.69874e-06
-9.55918e-07
-5.58031e-06
-1.4763e-06
-5.42703e-06
-2.00389e-06
-5.2368e-06
-2.52913e-06
-5.00748e-06
-3.03988e-06
-4.73726e-06
-3.52095e-06
-4.42512e-06
-3.95399e-06
-4.07142e-06
-4.31765e-06
-3.67867e-06
-4.58856e-06
-3.2523e-06
-4.743e-06
-2.8012e-06
-4.75966e-06
-2.33799e-06
-4.62324e-06
-1.8786e-06
-4.32851e-06
-1.441e-06
-3.88392e-06
-1.04327e-06
-3.3136e-06
-7.01129e-07
-2.65688e-06
-4.257e-07
-1.96491e-06
-2.22029e-07
-1.29548e-06
-8.86885e-08
-7.07856e-07
-1.85966e-08
-2.59213e-07
-4.78967e-09
2.07032e-09
-2.97937e-08
6.33101e-09
-7.0254e-08
1.13154e-08
-9.47465e-08
1.59533e-08
-1.06162e-07
1.94642e-08
-1.07006e-07
2.12797e-08
-9.94641e-08
2.09731e-08
-8.53496e-08
1.82136e-08
-6.61397e-08
1.27243e-08
-4.2961e-08
4.25175e-09
-1.66185e-08
-7.45798e-09
1.2376e-08
-2.26789e-08
4.37742e-08
-4.17209e-08
7.75616e-08
-6.4943e-08
1.1393e-07
-9.27653e-08
1.53257e-07
-1.25679e-07
1.96079e-07
-1.64257e-07
2.43082e-07
-2.09156e-07
2.95073e-07
-2.61127e-07
3.52974e-07
-3.21015e-07
4.1779e-07
-3.89757e-07
4.90591e-07
-4.68373e-07
5.72479e-07
-5.57957e-07
6.64543e-07
-6.59648e-07
7.67813e-07
-7.74605e-07
8.83193e-07
-9.03958e-07
1.01138e-06
-1.04876e-06
1.15277e-06
-1.2099e-06
1.30737e-06
-1.38804e-06
1.47464e-06
-1.58355e-06
1.65344e-06
-1.79635e-06
1.84186e-06
-2.02587e-06
2.03716e-06
-2.27099e-06
2.23574e-06
-2.52992e-06
2.43311e-06
-2.80028e-06
2.624e-06
-3.07904e-06
2.80246e-06
-3.36266e-06
2.96216e-06
-3.64719e-06
3.09663e-06
-3.92846e-06
3.19964e-06
-4.20226e-06
3.26548e-06
-4.46454e-06
3.28935e-06
-4.71163e-06
3.26753e-06
-4.94034e-06
3.19756e-06
-5.14806e-06
3.07822e-06
-5.33282e-06
2.90949e-06
-5.49323e-06
2.69234e-06
-5.62842e-06
2.42855e-06
-5.73793e-06
2.12046e-06
-5.82154e-06
1.77073e-06
-5.87921e-06
1.38223e-06
-5.91092e-06
9.57943e-07
-5.91636e-06
5.00573e-07
-5.89506e-06
1.37563e-08
-5.84615e-06
-4.9912e-07
-5.76835e-06
-1.03372e-06
-5.66005e-06
-1.5846e-06
-5.51906e-06
-2.14489e-06
-5.3428e-06
-2.70539e-06
-5.12849e-06
-3.25418e-06