/*--------------------------------*- C++ -*----------------------------------*\
  =========                 |
  \\      /  F ield         | OpenFOAM: The Open Source CFD Toolbox
   \\    /   O peration     | Website:  https://openfoam.org
    \\  /    A nd           | Version:  12
     \\/     M anipulation  |
\*---------------------------------------------------------------------------*/
FoamFile
{
    format      ascii;
    class       volVectorField;
    location    "10";
    object      U;
}
// * * * * * * * * * * * * * * * * * * * * * * * * * * * * * * * * * * * * * //

dimensions      [0 1 -1 0 0 0 0];

internalField   nonuniform List<vector> 
5625
(
(-6.41727e-06 2.59302e-06 0)
(8.03215e-06 -2.57472e-06 0)
(6.19937e-05 -6.07391e-06 0)
(0.00014212 -7.97567e-06 0)
(0.000236509 -8.82987e-06 0)
(0.000336341 -8.97328e-06 0)
(0.000435278 -8.66269e-06 0)
(0.000529002 -8.07185e-06 0)
(0.000614699 -7.3216e-06 0)
(0.000690649 -6.49494e-06 0)
(0.00075591 -5.6478e-06 0)
(0.000810061 -4.81475e-06 0)
(0.000852997 -4.01521e-06 0)
(0.000884769 -3.25704e-06 0)
(0.000905437 -2.53372e-06 0)
(0.000914989 -1.84188e-06 0)
(0.000913248 -1.16127e-06 0)
(0.000899727 -4.68497e-07 0)
(0.000873651 2.61371e-07 0)
(0.000833855 1.05905e-06 0)
(0.000778731 1.95916e-06 0)
(0.000706169 3.00277e-06 0)
(0.000613519 4.23353e-06 0)
(0.000497533 5.70063e-06 0)
(0.000354333 7.45714e-06 0)
(0.000179358 9.55639e-06 0)
(-3.26583e-05 1.20593e-05 0)
(-0.000287703 1.50272e-05 0)
(-0.00059251 1.85356e-05 0)
(-0.000954526 2.26545e-05 0)
(-0.00138184 2.74515e-05 0)
(-0.00188314 3.29963e-05 0)
(-0.00246756 3.93525e-05 0)
(-0.0031445 4.65735e-05 0)
(-0.00392334 5.46971e-05 0)
(-0.00481317 6.37385e-05 0)
(-0.00582227 7.36821e-05 0)
(-0.00695772 8.44728e-05 0)
(-0.00822473 9.60064e-05 0)
(-0.00962602 0.00010812 0)
(-0.0111611 0.000120584 0)
(-0.0128256 0.000133094 0)
(-0.0146104 0.000145263 0)
(-0.0165012 0.000156622 0)
(-0.0184773 0.000166623 0)
(-0.0205121 0.000174636 0)
(-0.0225718 0.00017997 0)
(-0.0246157 0.000181884 0)
(-0.0265965 0.000179611 0)
(-0.0284606 0.000172411 0)
(-0.0301488 0.000159661 0)
(-0.031594 0.000139809 0)
(-0.0327357 0.000114103 0)
(-0.033501 8.19352e-05 0)
(-0.0338427 4.16863e-05 0)
(-0.0337 -3.03443e-06 0)
(-0.0330241 -5.23335e-05 0)
(-0.0317993 -0.000104812 0)
(-0.0300236 -0.000157335 0)
(-0.0277247 -0.000206844 0)
(-0.0249616 -0.000249848 0)
(-0.0218258 -0.000282828 0)
(-0.0184384 -0.000302684 0)
(-0.0149442 -0.00030722 0)
(-0.0115017 -0.000295602 0)
(-0.00826891 -0.000268624 0)
(-0.00538956 -0.000228721 0)
(-0.00297857 -0.000179645 0)
(-0.00111188 -0.000125873 0)
(0.000179098 -7.20322e-05 0)
(0.000907271 -2.20422e-05 0)
(0.00112772 2.04128e-05 0)
(0.0009371 5.20935e-05 0)
(0.000505718 6.34458e-05 0)
(9.10879e-05 4.20644e-05 0)
(-4.542e-06 -1.08759e-06 0)
(5.50291e-05 -3.70834e-05 0)
(0.000204536 -6.88885e-05 0)
(0.000417313 -8.87663e-05 0)
(0.000666138 -9.86094e-05 0)
(0.000929399 -0.000100882 0)
(0.00119062 -9.77888e-05 0)
(0.00143804 -9.10592e-05 0)
(0.00166363 -8.19937e-05 0)
(0.00186219 -7.15377e-05 0)
(0.00203062 -6.03511e-05 0)
(0.00216716 -4.88596e-05 0)
(0.00227099 -3.73045e-05 0)
(0.00234164 -2.57752e-05 0)
(0.00237873 -1.4226e-05 0)
(0.00238161 -2.54713e-06 0)
(0.0023492 9.5027e-06 0)
(0.00227945 2.22454e-05 0)
(0.0021696 3.60177e-05 0)
(0.00201566 5.12533e-05 0)
(0.0018124 6.84355e-05 0)
(0.00155315 8.8104e-05 0)
(0.00122968 0.000110844 0)
(0.000832071 0.00013731 0)
(0.000348615 0.000168118 0)
(-0.000234249 0.000203992 0)
(-0.000932115 0.000245696 0)
(-0.00176259 0.000293978 0)
(-0.00274501 0.00034954 0)
(-0.00390056 0.000413076 0)
(-0.00525204 0.000485215 0)
(-0.0068235 0.000566465 0)
(-0.00863974 0.000657161 0)
(-0.0107256 0.000757403 0)
(-0.0131054 0.000866982 0)
(-0.0158013 0.000985293 0)
(-0.0188326 0.00111126 0)
(-0.0222141 0.00124324 0)
(-0.025954 0.00137897 0)
(-0.0300527 0.00151547 0)
(-0.0345008 0.00164905 0)
(-0.0392767 0.00177526 0)
(-0.0443458 0.00188896 0)
(-0.0496582 0.00198434 0)
(-0.0551479 0.00205505 0)
(-0.0607319 0.00209437 0)
(-0.0663103 0.00209536 0)
(-0.0717665 0.00205117 0)
(-0.0769685 0.00195533 0)
(-0.0817711 0.00180205 0)
(-0.0860187 0.00158646 0)
(-0.089543 0.00130393 0)
(-0.0922031 0.000952672 0)
(-0.0937839 0.000543452 0)
(-0.0942236 8.65467e-05 0)
(-0.0933679 -0.000431913 0)
(-0.0911229 -0.00097793 0)
(-0.0874626 -0.00153417 0)
(-0.0824066 -0.0020754 0)
(-0.0760435 -0.00257216 0)
(-0.0685352 -0.00299285 0)
(-0.0601181 -0.00330657 0)
(-0.0510966 -0.00348668 0)
(-0.0418285 -0.00351471 0)
(-0.0327024 -0.00338384 0)
(-0.0241075 -0.00310123 0)
(-0.0164001 -0.00268832 0)
(-0.0098713 -0.00217877 0)
(-0.00472059 -0.00161435 0)
(-0.00103975 -0.00104001 0)
(0.0011915 -0.000499887 0)
(0.00210509 -3.60913e-05 0)
(0.00194462 0.00030192 0)
(0.00112063 0.00043901 0)
(0.000201326 0.000275504 0)
(2.44058e-06 -1.96186e-05 0)
(0.000114842 -0.000107181 0)
(0.000350226 -0.000183785 0)
(0.000673655 -0.000233433 0)
(0.00104812 -0.000258702 0)
(0.00144317 -0.000264731 0)
(0.00183456 -0.000256615 0)
(0.00220441 -0.000238599 0)
(0.00254007 -0.00021399 0)
(0.00283306 -0.000185248 0)
(0.00307795 -0.000154117 0)
(0.00327139 -0.000121733 0)
(0.00341137 -8.87421e-05 0)
(0.00349649 -5.53779e-05 0)
(0.00352537 -2.1516e-05 0)
(0.00349632 1.31453e-05 0)
(0.00340665 4.93588e-05 0)
(0.00325248 8.79284e-05 0)
(0.00302851 0.000129855 0)
(0.00272755 0.000176354 0)
(0.00234038 0.000228785 0)
(0.00185546 0.000288687 0)
(0.00125879 0.000357594 0)
(0.00053368 0.000437266 0)
(-0.00033951 0.000529629 0)
(-0.00138348 0.000636633 0)
(-0.00262369 0.000760201 0)
(-0.00408858 0.000902258 0)
(-0.00580953 0.00106468 0)
(-0.0078204 0.00124918 0)
(-0.0101572 0.00145723 0)
(-0.0128573 0.00168985 0)
(-0.0159585 0.00194753 0)
(-0.0194982 0.00223001 0)
(-0.0235112 0.00253605 0)
(-0.0280284 0.00286327 0)
(-0.0330746 0.0032079 0)
(-0.0386657 0.00356456 0)
(-0.0448063 0.00392618 0)
(-0.051487 0.00428379 0)
(-0.0586816 0.00462657 0)
(-0.0663443 0.00494187 0)
(-0.0744077 0.00521541 0)
(-0.0827811 0.00543149 0)
(-0.0913495 0.00557343 0)
(-0.099973 0.00562404 0)
(-0.108488 0.00556625 0)
(-0.116709 0.00538374 0)
(-0.124432 0.00506181 0)
(-0.131435 0.00458827 0)
(-0.137491 0.00395416 0)
(-0.142359 0.00315366 0)
(-0.145845 0.00217651 0)
(-0.147639 0.00108417 0)
(-0.147706 -0.000162515 0)
(-0.145793 -0.00151217 0)
(-0.141837 -0.00292627 0)
(-0.135812 -0.00434921 0)
(-0.127772 -0.00571871 0)
(-0.117865 -0.00696343 0)
(-0.106337 -0.00800799 0)
(-0.0935325 -0.00877941 0)
(-0.0798868 -0.00921515 0)
(-0.065906 -0.00927181 0)
(-0.052138 -0.00893312 0)
(-0.0391337 -0.00821545 0)
(-0.0274029 -0.00716903 0)
(-0.0173697 -0.0058741 0)
(-0.00933466 -0.00443225 0)
(-0.00344834 -0.00295554 0)
(0.000301375 -0.00155802 0)
(0.00209254 -0.000351248 0)
(0.00226976 0.00053831 0)
(0.00140506 0.000941796 0)
(0.000257544 0.000634345 0)
(1.01045e-05 -5.51298e-05 0)
(0.000175123 -0.000212629 0)
(0.000487002 -0.000346438 0)
(0.000902941 -0.000434395 0)
(0.00137884 -0.000479578 0)
(0.00187818 -0.000490062 0)
(0.00237097 -0.000474402 0)
(0.00283449 -0.000440024 0)
(0.00325222 -0.000392862 0)
(0.00361269 -0.000337408 0)
(0.00390817 -0.000276875 0)
(0.00413358 -0.000213372 0)
(0.00428544 -0.000148094 0)
(0.00436102 -8.14619e-05 0)
(0.0043576 -1.32435e-05 0)
(0.00427191 5.72706e-05 0)
(0.00409932 0.000131444 0)
(0.0038337 0.000210871 0)
(0.0034668 0.000297551 0)
(0.00298788 0.000393873 0)
(0.00238344 0.000502416 0)
(0.0016369 0.000626059 0)
(0.000728169 0.000768098 0)
(-0.000366511 0.000931906 0)
(-0.00167453 0.00112101 0)
(-0.00322714 0.00133904 0)
(-0.00505958 0.00158969 0)
(-0.0072108 0.00187656 0)
(-0.00972323 0.00220303 0)
(-0.0126423 0.00257209 0)
(-0.0160155 0.00298609 0)
(-0.0198915 0.00344649 0)
(-0.0243188 0.0039535 0)
(-0.0293435 0.00450575 0)
(-0.0350074 0.00509988 0)
(-0.0413452 0.00573017 0)
(-0.0483817 0.00638811 0)
(-0.056128 0.00706212 0)
(-0.0645783 0.00773729 0)
(-0.0737064 0.0083953 0)
(-0.0834624 0.00901445 0)
(-0.0937697 0.00956994 0)
(-0.104523 0.0100343 0)
(-0.115587 0.0103781 0)
(-0.126796 0.0105708 0)
(-0.137956 0.0105816 0)
(-0.148843 0.010381 0)
(-0.159215 0.00994188 0)
(-0.168806 0.00924084 0)
(-0.177341 0.00825995 0)
(-0.184539 0.00698821 0)
(-0.190119 0.00542257 0)
(-0.193841 0.00356268 0)
(-0.195428 0.00146522 0)
(-0.19473 -0.000850229 0)
(-0.191562 -0.00334301 0)
(-0.18586 -0.00592532 0)
(-0.177619 -0.00850162 0)
(-0.166932 -0.0109622 0)
(-0.153995 -0.0131838 0)
(-0.139117 -0.0150373 0)
(-0.122717 -0.0163984 0)
(-0.105316 -0.0171606 0)
(-0.0875163 -0.0172494 0)
(-0.0699709 -0.0166355 0)
(-0.0533414 -0.0153451 0)
(-0.0382477 -0.0134622 0)
(-0.0252161 -0.0111241 0)
(-0.0146318 -0.00850795 0)
(-0.00670337 -0.00581356 0)
(-0.00144041 -0.00324802 0)
(0.00135473 -0.00101996 0)
(0.00208902 0.000643471 0)
(0.00143592 0.00145941 0)
(0.000275054 0.00105194 0)
(1.69721e-05 -0.000106838 0)
(0.00022986 -0.000349409 0)
(0.000608008 -0.0005484 0)
(0.00110012 -0.000679385 0)
(0.00165617 -0.000746467 0)
(0.0022353 -0.000760824 0)
(0.00280339 -0.000734728 0)
(0.00333397 -0.000679136 0)
(0.00380743 -0.000602977 0)
(0.00420966 -0.000513097 0)
(0.00453082 -0.000414435 0)
(0.00476399 -0.000310238 0)
(0.00490406 -0.000202338 0)
(0.00494671 -9.13475e-05 0)
(0.00488754 2.31382e-05 0)
(0.00472132 0.000142397 0)
(0.00444123 0.000268549 0)
(0.00403843 0.000404291 0)
(0.00350143 0.000552858 0)
(0.00281571 0.000718062 0)
(0.00196314 0.000904309 0)
(0.000921696 0.00111635 0)
(-0.00033474 0.00135931 0)
(-0.00183671 0.0016386 0)
(-0.00361944 0.00195994 0)
(-0.00572275 0.00232914 0)
(-0.00819113 0.00275196 0)
(-0.0110733 0.00323398 0)
(-0.0144219 0.00378026 0)
(-0.0182926 0.0043951 0)
(-0.0227426 0.0050816 0)
(-0.02783 0.0058412 0)
(-0.0336106 0.00667314 0)
(-0.0401364 0.00757387 0)
(-0.0474518 0.00853643 0)
(-0.0555907 0.00954986 0)
(-0.0645722 0.0105986 0)
(-0.0743967 0.0116621 0)
(-0.0850419 0.0127146 0)
(-0.0964583 0.0137249 0)
(-0.108566 0.0146573 0)
(-0.121254 0.0154712 0)
(-0.134374 0.016123 0)
(-0.147745 0.0165669 0)
(-0.161152 0.0167565 0)
(-0.174351 0.0166465 0)
(-0.187068 0.0161947 0)
(-0.199014 0.015364 0)
(-0.20988 0.0141244 0)
(-0.219357 0.0124549 0)
(-0.227135 0.0103464 0)
(-0.232917 0.00780244 0)
(-0.236445 0.00483877 0)
(-0.237466 0.00152501 0)
(-0.235799 -0.00209341 0)
(-0.231304 -0.0059422 0)
(-0.223931 -0.00989499 0)
(-0.213703 -0.0138115 0)
(-0.200745 -0.0175301 0)
(-0.185287 -0.0208718 0)
(-0.167678 -0.0236498 0)
(-0.148378 -0.0256848 0)
(-0.127958 -0.0268217 0)
(-0.107078 -0.0269507 0)
(-0.0864566 -0.026026 0)
(-0.0668293 -0.0240807 0)
(-0.0488967 -0.0212329 0)
(-0.0332666 -0.0176807 0)
(-0.020399 -0.0136852 0)
(-0.010561 -0.00954636 0)
(-0.00379579 -0.00558133 0)
(9.26544e-05 -0.00211442 0)
(0.00154239 0.000509161 0)
(0.00128455 0.00187861 0)
(0.000268653 0.00145684 0)
(2.26479e-05 -0.000172562 0)
(0.000276386 -0.000513004 0)
(0.000709726 -0.000782565 0)
(0.00126249 -0.000958724 0)
(0.00187923 -0.00104773 0)
(0.00251585 -0.00106415 0)
(0.00313521 -0.00102416 0)
(0.00370811 -0.000942399 0)
(0.00421244 -0.000830999 0)
(0.00463196 -0.000699342 0)
(0.00495486 -0.000554232 0)
(0.00517241 -0.000400133 0)
(0.00527776 -0.000239543 0)
(0.00526484 -7.32553e-05 0)
(0.00512731 9.94348e-05 0)
(0.00485769 0.000280479 0)
(0.00444667 0.000472959 0)
(0.00388245 0.000680836 0)
(0.00314998 0.000909035 0)
(0.00223053 0.0011632 0)
(0.00110132 0.00144964 0)
(-0.000265052 0.0017753 0)
(-0.00190091 0.0021477 0)
(-0.00384373 0.00257472 0)
(-0.00613631 0.00306457 0)
(-0.00882674 0.00362554 0)
(-0.0119682 0.00426576 0)
(-0.0156185 0.0049929 0)
(-0.0198393 0.00581377 0)
(-0.0246949 0.00673378 0)
(-0.030251 0.00775639 0)
(-0.0365719 0.00888234 0)
(-0.0437184 0.0101089 0)
(-0.0517444 0.0114288 0)
(-0.0606929 0.0128299 0)
(-0.0705919 0.0142936 0)
(-0.0814498 0.0157949 0)
(-0.0932505 0.0173011 0)
(-0.105949 0.0187727 0)
(-0.119468 0.0201627 0)
(-0.133693 0.0214178 0)
(-0.148473 0.0224796 0)
(-0.163618 0.0232861 0)
(-0.178902 0.023774 0)
(-0.194066 0.0238806 0)
(-0.208821 0.0235469 0)
(-0.222857 0.0227198 0)
(-0.235851 0.0213552 0)
(-0.247471 0.0194198 0)
(-0.257391 0.0168945 0)
(-0.265296 0.0137761 0)
(-0.270893 0.0100804 0)
(-0.27393 0.00584316 0)
(-0.274178 0.0011475 0)
(-0.271467 -0.0039299 0)
(-0.26569 -0.00927637 0)
(-0.256817 -0.0147288 0)
(-0.244895 -0.0201014 0)
(-0.230068 -0.0251808 0)
(-0.212585 -0.029732 0)
(-0.192808 -0.0335105 0)
(-0.171214 -0.0362799 0)
(-0.148394 -0.0378344 0)
(-0.125035 -0.0380245 0)
(-0.101893 -0.0367826 0)
(-0.0797552 -0.0341441 0)
(-0.0593842 -0.0302579 0)
(-0.0414572 -0.0253819 0)
(-0.0265042 -0.0198646 0)
(-0.0148536 -0.0141146 0)
(-0.00659215 -0.00857106 0)
(-0.00154304 -0.00368681 0)
(0.000738406 6.02621e-05 0)
(0.00100879 0.00212334 0)
(0.000247829 0.00180414 0)
(2.70936e-05 -0.000249735 0)
(0.000313731 -0.000698588 0)
(0.000790644 -0.00104233 0)
(0.00138894 -0.001264 0)
(0.00204814 -0.0013734 0)
(0.00272153 -0.001389 0)
(0.00336981 -0.001331 0)
(0.00396181 -0.00121786 0)
(0.00447357 -0.00106498 0)
(0.00488706 -0.000884353 0)
(0.00518873 -0.000684692 0)
(0.00536817 -0.000471696 0)
(0.00541681 -0.000248558 0)
(0.0053266 -1.61083e-05 0)
(0.00508904 0.000226736 0)
(0.00469431 0.00048273 0)
(0.00413025 0.0007562 0)
(0.00338177 0.00105268 0)
(0.00243018 0.00137886 0)
(0.00125251 0.00174247 0)
(-0.000178966 0.00215221 0)
(-0.00189716 0.00261757 0)
(-0.00394057 0.00314875 0)
(-0.00635345 0.00375642 0)
(-0.00918596 0.00445159 0)
(-0.012494 0.00524524 0)
(-0.0163388 0.00614803 0)
(-0.0207863 0.00716975 0)
(-0.0259061 0.00831878 0)
(-0.0317697 0.0096013 0)
(-0.0384486 0.0110205 0)
(-0.0460112 0.0125754 0)
(-0.05452 0.0142599 0)
(-0.0640271 0.0160617 0)
(-0.0745697 0.0179608 0)
(-0.0861652 0.019929 0)
(-0.0988061 0.0219287 0)
(-0.112455 0.0239126 0)
(-0.127038 0.025824 0)
(-0.142447 0.0275976 0)
(-0.15853 0.0291605 0)
(-0.175095 0.0304343 0)
(-0.191911 0.0313382 0)
(-0.208711 0.0317913 0)
(-0.225198 0.0317163 0)
(-0.241053 0.0310427 0)
(-0.25594 0.0297103 0)
(-0.269519 0.0276717 0)
(-0.281452 0.0248955 0)
(-0.291417 0.0213687 0)
(-0.299111 0.0170993 0)
(-0.30426 0.0121187 0)
(-0.306634 0.00648431 0)
(-0.306035 0.000295913 0)
(-0.302317 -0.00633739 0)
(-0.295401 -0.0132666 0)
(-0.285273 -0.0202935 0)
(-0.271994 -0.027189 0)
(-0.255712 -0.0336908 0)
(-0.236674 -0.0395104 0)
(-0.215237 -0.0443464 0)
(-0.191871 -0.0479051 0)
(-0.167164 -0.0499265 0)
(-0.141807 -0.0502166 0)
(-0.116578 -0.0486797 0)
(-0.0922994 -0.0453463 0)
(-0.0697847 -0.0403895 0)
(-0.0497758 -0.0341241 0)
(-0.0328727 -0.0269865 0)
(-0.0194698 -0.0194991 0)
(-0.00970721 -0.0122317 0)
(-0.00344171 -0.00577702 0)
(-0.000240693 -0.000755503 0)
(0.00065262 0.00214324 0)
(0.000219375 0.0020672 0)
(3.04058e-05 -0.000335761 0)
(0.000341808 -0.000901121 0)
(0.000850466 -0.00132106 0)
(0.00147947 -0.00158712 0)
(0.00216371 -0.00171413 0)
(0.00285436 -0.00172505 0)
(0.00351055 -0.00164433 0)
(0.00409977 -0.00149429 0)
(0.00459673 -0.00129362 0)
(0.00498201 -0.00105691 0)
(0.00524058 -0.000794747 0)
(0.00536048 -0.000514134 0)
(0.00533128 -0.000218709 0)
(0.00514298 9.06714e-05 0)
(0.00478484 0.000415615 0)
(0.00424436 0.000759915 0)
(0.00350649 0.00112925 0)
(0.00255275 0.00153091 0)
(0.00136053 0.00197372 0)
(-9.75477e-05 0.0024678 0)
(-0.00185417 0.00302449 0)
(-0.0039478 0.00365612 0)
(-0.006423 0.00437585 0)
(-0.00933064 0.00519742 0)
(-0.0127278 0.00613484 0)
(-0.0166778 0.00720196 0)
(-0.021249 0.00841193 0)
(-0.0265146 0.00977656 0)
(-0.0325506 0.0113055 0)
(-0.0394338 0.013005 0)
(-0.0472392 0.0148771 0)
(-0.0560369 0.016918 0)
(-0.0658875 0.0191167 0)
(-0.0768373 0.0214535 0)
(-0.0889136 0.0238987 0)
(-0.102119 0.0264115 0)
(-0.116424 0.028939 0)
(-0.131766 0.0314166 0)
(-0.148041 0.033768 0)
(-0.165104 0.0359071 0)
(-0.182765 0.03774 0)
(-0.200794 0.0391682 0)
(-0.218922 0.0400922 0)
(-0.236848 0.0404156 0)
(-0.254249 0.0400492 0)
(-0.270783 0.0389151 0)
(-0.286107 0.0369501 0)
(-0.299879 0.0341091 0)
(-0.311774 0.0303672 0)
(-0.321486 0.0257222 0)
(-0.32874 0.0201968 0)
(-0.333293 0.0138403 0)
(-0.334945 0.00673203 0)
(-0.333531 -0.00101005 0)
(-0.328933 -0.00924708 0)
(-0.32109 -0.017798 0)
(-0.309998 -0.0264329 0)
(-0.295718 -0.0348839 0)
(-0.278387 -0.0428441 0)
(-0.258235 -0.0499748 0)
(-0.235591 -0.0559196 0)
(-0.210901 -0.0603263 0)
(-0.184731 -0.0628777 0)
(-0.157765 -0.0633287 0)
(-0.130784 -0.0615472 0)
(-0.104638 -0.0575494 0)
(-0.0801885 -0.0515247 0)
(-0.0582413 -0.0438391 0)
(-0.0394695 -0.0350154 0)
(-0.0243407 -0.0256928 0)
(-0.0130583 -0.0165796 0)
(-0.00552523 -0.00841706 0)
(-0.00133554 -0.00197634 0)
(0.000247748 0.00190415 0)
(0.000187955 0.00223009 0)
(3.27289e-05 -0.000428151 0)
(0.000360978 -0.00111554 0)
(0.00088961 -0.00161213 0)
(0.00153476 -0.00192019 0)
(0.00222727 -0.00206092 0)
(0.00291657 -0.00206247 0)
(0.00356073 -0.00195373 0)
(0.00412642 -0.00176096 0)
(0.00458746 -0.00150609 0)
(0.00492343 -0.00120627 0)
(0.00511807 -0.000873891 0)
(0.00515791 -0.000517018 0)
(0.0050308 -0.000139772 0)
(0.00472471 0.000257156 0)
(0.00422655 0.000676081 0)
(0.00352113 0.00112195 0)
(0.0025903 0.00160206 0)
(0.00141204 0.0021257 0)
(-4.02474e-05 0.00270403 0)
(-0.00179843 0.00334984 0)
(-0.00390019 0.00407736 0)
(-0.00638943 0.00490201 0)
(-0.00931666 0.00584018 0)
(-0.012739 0.00690886 0)
(-0.0167202 0.00812517 0)
(-0.0213299 0.00950586 0)
(-0.0266432 0.0110665 0)
(-0.032739 0.0128205 0)
(-0.039698 0.0147783 0)
(-0.0476006 0.0169456 0)
(-0.0565231 0.019322 0)
(-0.0665336 0.0218994 0)
(-0.0776877 0.0246599 0)
(-0.0900224 0.0275745 0)
(-0.103551 0.0306011 0)
(-0.118255 0.0336837 0)
(-0.134083 0.0367517 0)
(-0.15094 0.0397202 0)
(-0.168691 0.0424916 0)
(-0.187153 0.0449578 0)
(-0.2061 0.0470033 0)
(-0.225266 0.0485103 0)
(-0.244352 0.0493627 0)
(-0.263032 0.0494518 0)
(-0.280966 0.0486806 0)
(-0.297807 0.0469686 0)
(-0.313216 0.0442553 0)
(-0.326867 0.0405026 0)
(-0.338458 0.0356967 0)
(-0.347716 0.0298499 0)
(-0.3544 0.0230016 0)
(-0.358305 0.01522 0)
(-0.359266 0.00660441 0)
(-0.357148 -0.0027094 0)
(-0.351856 -0.0125578 0)
(-0.343341 -0.0227336 0)
(-0.331596 -0.0329799 0)
(-0.316671 -0.0429959 0)
(-0.298679 -0.0524355 0)
(-0.277813 -0.0609137 0)
(-0.254364 -0.0680204 0)
(-0.228737 -0.073344 0)
(-0.201463 -0.0765056 0)
(-0.1732 -0.0772019 0)
(-0.144731 -0.0752538 0)
(-0.116923 -0.0706525 0)
(-0.0906846 -0.0635931 0)
(-0.0668878 -0.054485 0)
(-0.0462859 -0.0439346 0)
(-0.0294287 -0.0326999 0)
(-0.0165935 -0.0216337 0)
(-0.00774178 -0.0116348 0)
(-0.00250593 -0.00363182 0)
(-0.000184139 0.00138367 0)
(0.000156406 0.00228368 0)
(3.42112e-05 -0.000524587 0)
(0.000371794 -0.00133689 0)
(0.000908873 -0.001909 0)
(0.00155592 -0.00225547 0)
(0.00224043 -0.0024051 0)
(0.0029105 -0.00239182 0)
(0.00352358 -0.00224928 0)
(0.00404596 -0.00200767 0)
(0.00445101 -0.00169212 0)
(0.00471758 -0.0013222 0)
(0.00482844 -0.000911978 0)
(0.00476876 -0.000470469 0)
(0.00452474 -2.07639e-06 0)
(0.00408232 0.000492831 0)
(0.00342602 0.00101744 0)
(0.00253788 0.00157807 0)
(0.00139656 0.00218382 0)
(-2.35741e-05 0.00284622 0)
(-0.00175317 0.00357899 0)
(-0.00382857 0.0043978 0)
(-0.00629238 0.00532002 0)
(-0.00919386 0.00636439 0)
(-0.0125891 0.00755068 0)
(-0.0165413 0.00889922 0)
(-0.02112 0.0104303 0)
(-0.0264007 0.0121635 0)
(-0.0324638 0.0141165 0)
(-0.0393927 0.016304 0)
(-0.0472713 0.0187363 0)
(-0.056181 0.0214175 0)
(-0.0661967 0.0243436 0)
(-0.0773821 0.0275002 0)
(-0.0897839 0.0308609 0)
(-0.103426 0.0343846 0)
(-0.118303 0.0380146 0)
(-0.134376 0.0416769 0)
(-0.151562 0.0452808 0)
(-0.169737 0.0487195 0)
(-0.188729 0.0518725 0)
(-0.208322 0.0546093 0)
(-0.228256 0.0567941 0)
(-0.248237 0.0582914 0)
(-0.267941 0.0589721 0)
(-0.287029 0.0587192 0)
(-0.305157 0.0574334 0)
(-0.321986 0.0550369 0)
(-0.337195 0.0514771 0)
(-0.350485 0.0467275 0)
(-0.361589 0.0407894 0)
(-0.370274 0.0336915 0)
(-0.37634 0.0254907 0)
(-0.37962 0.0162727 0)
(-0.379983 0.00615419 0)
(-0.377321 -0.00471427 0)
(-0.371553 -0.0161504 0)
(-0.362634 -0.0279275 0)
(-0.350547 -0.0397677 0)
(-0.335316 -0.0513438 0)
(-0.317019 -0.0622759 0)
(-0.295803 -0.0721366 0)
(-0.271908 -0.0804641 0)
(-0.245682 -0.0867862 0)
(-0.217611 -0.090657 0)
(-0.18832 -0.0917063 0)
(-0.158578 -0.0896969 0)
(-0.129269 -0.0845814 0)
(-0.101347 -0.076548 0)
(-0.0757526 -0.0660402 0)
(-0.0533285 -0.0537429 0)
(-0.0347179 -0.0405341 0)
(-0.0202843 -0.0274172 0)
(-0.0100601 -0.0154564 0)
(-0.00372688 -0.00574582 0)
(-0.000629492 0.000566527 0)
(0.000126089 0.00222406 0)
(3.49852e-05 -0.000622939 0)
(0.000374864 -0.00156044 0)
(0.000909215 -0.00220529 0)
(0.00154424 -0.00258544 0)
(0.00220493 -0.00273826 0)
(0.00283849 -0.00270406 0)
(0.0034022 -0.00252148 0)
(0.00386236 -0.00222468 0)
(0.00419225 -0.0018419 0)
(0.00437032 -0.00139497 0)
(0.00437857 -0.000899459 0)
(0.00420099 -0.000365143 0)
(0.0038222 0.000203477 0)
(0.00322613 0.00080655 0)
(0.00239491 0.00144833 0)
(0.00130777 0.00213672 0)
(-5.98501e-05 0.00288282 0)
(-0.00173721 0.00370059 0)
(-0.003759 0.00460656 0)
(-0.00616601 0.00561948 0)
(-0.00900563 0.00676003 0)
(-0.0123322 0.00805043 0)
(-0.0162073 0.00951395 0)
(-0.0206992 0.0111743 0)
(-0.0258829 0.0130549 0)
(-0.0318389 0.0151778 0)
(-0.0386515 0.0175625 0)
(-0.0464071 0.0202243 0)
(-0.0551907 0.0231725 0)
(-0.0650828 0.0264084 0)
(-0.0761542 0.0299226 0)
(-0.0884606 0.0336929 0)
(-0.102037 0.0376817 0)
(-0.116891 0.0418339 0)
(-0.132995 0.0460753 0)
(-0.150284 0.050312 0)
(-0.168646 0.0544311 0)
(-0.187924 0.0583024 0)
(-0.207913 0.0617824 0)
(-0.228364 0.0647189 0)
(-0.248989 0.0669578 0)
(-0.269472 0.0683492 0)
(-0.289477 0.0687553 0)
(-0.308662 0.0680562 0)
(-0.326692 0.0661556 0)
(-0.343246 0.0629841 0)
(-0.358033 0.0585015 0)
(-0.370791 0.0526971 0)
(-0.381296 0.0455892 0)
(-0.389357 0.0372239 0)
(-0.394817 0.0276743 0)
(-0.397546 0.0170413 0)
(-0.39744 0.00545501 0)
(-0.394414 -0.00692374 0)
(-0.388396 -0.0199005 0)
(-0.379334 -0.0332363 0)
(-0.367194 -0.0466388 0)
(-0.351968 -0.0597605 0)
(-0.33369 -0.0721939 0)
(-0.312451 -0.0834734 0)
(-0.288428 -0.0930871 0)
(-0.261909 -0.100501 0)
(-0.233319 -0.105197 0)
(-0.203239 -0.10673 0)
(-0.172418 -0.10479 0)
(-0.141749 -0.0992774 0)
(-0.112226 -0.0903576 0)
(-0.0848666 -0.0784962 0)
(-0.0606101 -0.06445 0)
(-0.040206 -0.0492171 0)
(-0.0241187 -0.0339566 0)
(-0.0124645 -0.019908 0)
(-0.00498538 -0.00833904 0)
(-0.00108092 -0.000558416 0)
(9.78205e-05 0.0020499 0)
(3.51606e-05 -0.000721259 0)
(0.000370768 -0.00178166 0)
(0.000891616 -0.00249483 0)
(0.00150106 -0.00290278 0)
(0.00212252 -0.00305226 0)
(0.00270282 -0.00299046 0)
(0.00319953 -0.00276122 0)
(0.00357934 -0.00240269 0)
(0.00381578 -0.00194609 0)
(0.00388718 -0.00141534 0)
(0.003775 -0.000827289 0)
(0.00346221 -0.000192254 0)
(0.00293193 0.000485386 0)
(0.00216618 0.00120651 0)
(0.00114468 0.00197665 0)
(-0.000156124 0.00280549 0)
(-0.00176402 0.00370634 0)
(-0.00371186 0.00469583 0)
(-0.00603832 0.00579342 0)
(-0.00878849 0.00702116 0)
(-0.0120144 0.00840317 0)
(-0.0157751 0.00996525 0)
(-0.0201371 0.0117342 0)
(-0.0251735 0.0137371 0)
(-0.0309637 0.0160002 0)
(-0.0375919 0.0185479 0)
(-0.0451454 0.0214006 0)
(-0.0537116 0.0245737 0)
(-0.063375 0.0280742 0)
(-0.0742123 0.0318992 0)
(-0.0862876 0.0360324 0)
(-0.099646 0.0404415 0)
(-0.114307 0.0450756 0)
(-0.130259 0.0498631 0)
(-0.147451 0.0547103 0)
(-0.165788 0.0595012 0)
(-0.18513 0.0640994 0)
(-0.205285 0.068351 0)
(-0.22602 0.0720901 0)
(-0.247056 0.0751446 0)
(-0.268086 0.0773451 0)
(-0.28878 0.0785319 0)
(-0.308799 0.0785634 0)
(-0.327809 0.0773227 0)
(-0.345495 0.0747216 0)
(-0.361567 0.0707042 0)
(-0.37577 0.0652468 0)
(-0.387886 0.0583568 0)
(-0.397734 0.0500705 0)
(-0.405169 0.0404507 0)
(-0.410073 0.0295845 0)
(-0.41235 0.017584 0)
(-0.411919 0.0045887 0)
(-0.408709 -0.00923578 0)
(-0.402652 -0.0236894 0)
(-0.393686 -0.0385278 0)
(-0.381752 -0.0534505 0)
(-0.366805 -0.0680966 0)
(-0.348832 -0.0820364 0)
(-0.327862 -0.0947709 0)
(-0.304004 -0.105741 0)
(-0.277472 -0.114349 0)
(-0.248625 -0.120002 0)
(-0.217989 -0.122168 0)
(-0.186277 -0.120454 0)
(-0.154385 -0.114687 0)
(-0.123344 -0.104996 0)
(-0.0942483 -0.0918506 0)
(-0.0681432 -0.0760716 0)
(-0.0458985 -0.058775 0)
(-0.0280957 -0.0412819 0)
(-0.0149504 -0.0250164 0)
(-0.00627698 -0.0114309 0)
(-0.0015358 -0.00199987 0)
(7.1849e-05 0.00176071 0)
(3.4825e-05 -0.00081776 0)
(0.000360023 -0.00199624 0)
(0.000857001 -0.0027716 0)
(0.00142769 -0.00320034 0)
(0.00199488 -0.00333916 0)
(0.00250567 -0.00324257 0)
(0.00291833 -0.00295973 0)
(0.00320035 -0.00253279 0)
(0.00332585 -0.0019958 0)
(0.00327333 -0.00137456 0)
(0.00302391 -0.000686948 0)
(0.0025597 5.64169e-05 0)
(0.00186246 0.000851523 0)
(0.000912302 0.00170021 0)
(-0.00031335 0.00260952 0)
(-0.00184082 0.0035911 0)
(-0.00370105 0.00466072 0)
(-0.00593043 0.00583777 0)
(-0.00857149 0.00714491 0)
(-0.0116734 0.00860755 0)
(-0.0152926 0.0102534 0)
(-0.0194925 0.0121118 0)
(-0.0243439 0.0142132 0)
(-0.0299241 0.0165877 0)
(-0.0363158 0.0192642 0)
(-0.0436061 0.0222687 0)
(-0.0518833 0.0256224 0)
(-0.0612346 0.0293392 0)
(-0.0717413 0.0334229 0)
(-0.0834744 0.0378647 0)
(-0.0964884 0.0426393 0)
(-0.110815 0.0477025 0)
(-0.126456 0.0529879 0)
(-0.143378 0.0584051 0)
(-0.161503 0.0638388 0)
(-0.180708 0.0691499 0)
(-0.200822 0.0741777 0)
(-0.221624 0.0787451 0)
(-0.242854 0.0826651 0)
(-0.264212 0.085749 0)
(-0.285376 0.087816 0)
(-0.306013 0.0887016 0)
(-0.325793 0.0882662 0)
(-0.344399 0.0864008 0)
(-0.361544 0.0830311 0)
(-0.376977 0.0781184 0)
(-0.390483 0.0716582 0)
(-0.401892 0.0636772 0)
(-0.411067 0.0542296 0)
(-0.417905 0.0433926 0)
(-0.422323 0.0312643 0)
(-0.424253 0.0179636 0)
(-0.423633 0.00363495 0)
(-0.420403 -0.0115564 0)
(-0.414492 -0.0274113 0)
(-0.405824 -0.0436862 0)
(-0.394316 -0.0600788 0)
(-0.379886 -0.0762211 0)
(-0.362467 -0.0916675 0)
(-0.342027 -0.105891 0)
(-0.318601 -0.118287 0)
(-0.292326 -0.128198 0)
(-0.26348 -0.134949 0)
(-0.232522 -0.137915 0)
(-0.20012 -0.136604 0)
(-0.167156 -0.130755 0)
(-0.134693 -0.120433 0)
(-0.1039 -0.1061 0)
(-0.075935 -0.088624 0)
(-0.0518033 -0.0692362 0)
(-0.0322212 -0.0494247 0)
(-0.0175208 -0.0308097 0)
(-0.0076033 -0.015041 0)
(-0.00199489 -0.00376646 0)
(4.79701e-05 0.00135646 0)
(3.4045e-05 -0.000910791 0)
(0.000343062 -0.0022001 0)
(0.000806188 -0.00302982 0)
(0.00132529 -0.00347118 0)
(0.00182357 -0.00359126 0)
(0.002249 -0.00345217 0)
(0.0025611 -0.00310854 0)
(0.00272858 -0.00260644 0)
(0.00272645 -0.00198256 0)
(0.00253366 -0.00126434 0)
(0.00213119 -0.000470446 0)
(0.00150047 0.000388505 0)
(0.000621987 0.00130912 0)
(-0.000525899 0.00229445 0)
(-0.00196803 0.00335325 0)
(-0.00373342 0.00449937 0)
(-0.00585606 0.00575119 0)
(-0.00837576 0.00713108 0)
(-0.0113387 0.00866496 0)
(-0.014798 0.0103818 0)
(-0.0188139 0.0123128 0)
(-0.0234539 0.014491 0)
(-0.0287925 0.01695 0)
(-0.03491 0.0197231 0)
(-0.041892 0.0228413 0)
(-0.0498266 0.0263317 0)
(-0.0588021 0.030215 0)
(-0.0689031 0.0345027 0)
(-0.080206 0.0391942 0)
(-0.0927735 0.0442728 0)
(-0.106648 0.0497026 0)
(-0.121846 0.0554252 0)
(-0.138349 0.0613565 0)
(-0.156098 0.0673855 0)
(-0.17499 0.0733742 0)
(-0.194874 0.079159 0)
(-0.215548 0.0845555 0)
(-0.236767 0.0893645 0)
(-0.258247 0.0933806 0)
(-0.279676 0.0964023 0)
(-0.300726 0.0982422 0)
(-0.321069 0.0987363 0)
(-0.340391 0.0977524 0)
(-0.358405 0.095195 0)
(-0.374856 0.0910073 0)
(-0.389535 0.085171 0)
(-0.402274 0.0777022 0)
(-0.412945 0.068647 0)
(-0.421455 0.0580758 0)
(-0.427738 0.046078 0)
(-0.431743 0.0327586 0)
(-0.433424 0.0182387 0)
(-0.432733 0.00266396 0)
(-0.429617 -0.0138059 0)
(-0.424001 -0.0309779 0)
(-0.415797 -0.0486152 0)
(-0.404895 -0.0664195 0)
(-0.391177 -0.0840219 0)
(-0.374527 -0.100967 0)
(-0.354851 -0.116706 0)
(-0.332107 -0.130596 0)
(-0.306347 -0.141917 0)
(-0.277762 -0.149914 0)
(-0.24673 -0.153859 0)
(-0.213858 -0.153149 0)
(-0.179999 -0.147412 0)
(-0.146234 -0.136632 0)
(-0.113804 -0.121234 0)
(-0.0839843 -0.10212 0)
(-0.0579272 -0.0806278 0)
(-0.036504 -0.0584172 0)
(-0.0201834 -0.0373168 0)
(-0.00896978 -0.0191898 0)
(-0.00246121 -0.00586788 0)
(2.58058e-05 0.000836509 0)
(3.28702e-05 -0.000998813 0)
(0.000320239 -0.00238932 0)
(0.000739871 -0.00326386 0)
(0.00119489 -0.00370851 0)
(0.00160994 -0.00380102 0)
(0.00193459 -0.00361132 0)
(0.00213015 -0.00319949 0)
(0.00216694 -0.00261544 0)
(0.00202124 -0.00189831 0)
(0.0016727 -0.0010769 0)
(0.00110239 -0.000170324 0)
(0.000291199 0.000811051 0)
(-0.000781505 0.00186474 0)
(-0.00213903 0.00299526 0)
(-0.00380838 0.00421331 0)
(-0.00582111 0.00553515 0)
(-0.00821419 0.00698193 0)
(-0.0110306 0.00857914 0)
(-0.01432 0.0103561 0)
(-0.018139 0.0123452 0)
(-0.0225515 0.0145814 0)
(-0.0276283 0.0171012 0)
(-0.0334468 0.0199413 0)
(-0.0400899 0.0231375 0)
(-0.0476442 0.0267226 0)
(-0.0561981 0.0307239 0)
(-0.0658378 0.0351608 0)
(-0.0766438 0.0400412 0)
(-0.0886854 0.0453582 0)
(-0.102015 0.0510858 0)
(-0.116661 0.0571754 0)
(-0.132621 0.0635524 0)
(-0.149855 0.0701133 0)
(-0.16828 0.0767249 0)
(-0.187765 0.0832253 0)
(-0.208132 0.0894269 0)
(-0.229154 0.095122 0)
(-0.250564 0.100092 0)
(-0.272062 0.104116 0)
(-0.293329 0.106985 0)
(-0.314041 0.108509 0)
(-0.333885 0.108531 0)
(-0.352569 0.10693 0)
(-0.369838 0.10363 0)
(-0.385481 0.0985936 0)
(-0.399328 0.091825 0)
(-0.411257 0.0833612 0)
(-0.421182 0.0732663 0)
(-0.429046 0.061625 0)
(-0.434818 0.0485356 0)
(-0.438473 0.0341069 0)
(-0.439985 0.0184582 0)
(-0.439315 0.00173199 0)
(-0.436415 -0.0159221 0)
(-0.431204 -0.034321 0)
(-0.423587 -0.0532389 0)
(-0.413431 -0.0723883 0)
(-0.400585 -0.0914053 0)
(-0.384886 -0.109832 0)
(-0.36618 -0.127103 0)
(-0.344348 -0.142543 0)
(-0.319356 -0.155377 0)
(-0.291297 -0.164767 0)
(-0.260455 -0.169879 0)
(-0.227358 -0.169982 0)
(-0.192812 -0.164579 0)
(-0.157902 -0.153541 0)
(-0.123926 -0.137231 0)
(-0.0922787 -0.116564 0)
(-0.0642727 -0.0929731 0)
(-0.0409534 -0.0682909 0)
(-0.0229481 -0.0445676 0)
(-0.0103836 -0.0238986 0)
(-0.00293937 -0.00831592 0)
(4.84333e-06 0.000199155 0)
(3.13348e-05 -0.00108037 0)
(0.000291825 -0.00256012 0)
(0.000658606 -0.00346825 0)
(0.00103734 -0.00390572 0)
(0.00135518 -0.0039611 0)
(0.001564 -0.00371225 0)
(0.0016275 -0.00322468 0)
(0.00151807 -0.00255195 0)
(0.00121361 -0.00173541 0)