/*--------------------------------*- C++ -*----------------------------------*\
  =========                 |
  \\      /  F ield         | OpenFOAM: The Open Source CFD Toolbox
   \\    /   O peration     | Website:  https://openfoam.org
    \\  /    A nd           | Version:  12
     \\/     M anipulation  |
\*---------------------------------------------------------------------------*/
FoamFile
{
    format      ascii;
    class       volScalarField;
    location    "2";
    object      epsilon;
}
// * * * * * * * * * * * * * * * * * * * * * * * * * * * * * * * * * * * * * //

dimensions      [0 2 -3 0 0 0 0];

internalField   nonuniform List<scalar> 
5625
(
2.48373e-07
4.69e-07
9.93877e-07
1.62007e-06
2.32503e-06
3.0917e-06
3.90761e-06
4.76311e-06
5.65025e-06
6.56218e-06
7.49271e-06
8.43619e-06
9.38731e-06
1.03411e-05
1.12927e-05
1.22376e-05
1.31715e-05
1.40901e-05
1.49894e-05
1.58657e-05
1.67151e-05
1.75343e-05
1.83198e-05
1.90685e-05
1.97775e-05
2.0444e-05
2.10654e-05
2.16392e-05
2.21634e-05
2.2636e-05
2.30552e-05
2.34195e-05
2.37275e-05
2.39782e-05
2.41707e-05
2.43043e-05
2.43786e-05
2.43935e-05
2.4349e-05
2.42453e-05
2.40828e-05
2.38624e-05
2.35848e-05
2.32513e-05
2.28632e-05
2.24219e-05
2.19293e-05
2.13872e-05
2.07978e-05
2.01634e-05
1.94865e-05
1.87697e-05
1.80158e-05
1.72278e-05
1.64089e-05
1.55623e-05
1.46914e-05
1.37998e-05
1.28912e-05
1.19695e-05
1.10387e-05
1.01029e-05
9.16653e-06
8.23402e-06
7.31015e-06
6.39995e-06
5.50881e-06
4.64258e-06
3.80783e-06
3.01217e-06
2.26486e-06
1.57794e-06
9.67943e-07
4.56731e-07
2.41864e-07
1.68e-06
9.11337e-07
8.85717e-07
1.05726e-06
1.32151e-06
1.64114e-06
1.9982e-06
2.38232e-06
2.78668e-06
3.20626e-06
3.63707e-06
4.07575e-06
4.51935e-06
4.96519e-06
5.41079e-06
5.85385e-06
6.29219e-06
6.72374e-06
7.14652e-06
7.55868e-06
7.95842e-06
8.34406e-06
8.714e-06
9.06672e-06
9.40081e-06
9.71493e-06
1.00079e-05
1.02785e-05
1.05257e-05
1.07486e-05
1.09463e-05
1.11182e-05
1.12636e-05
1.13819e-05
1.14728e-05
1.1536e-05
1.15711e-05
1.15783e-05
1.15574e-05
1.15086e-05
1.1432e-05
1.13281e-05
1.11973e-05
1.10401e-05
1.0857e-05
1.0649e-05
1.04167e-05
1.01611e-05
9.88323e-06
9.58416e-06
9.26506e-06
8.92722e-06
8.57198e-06
8.20075e-06
7.81505e-06
7.41644e-06
7.0066e-06
6.58724e-06
6.16017e-06
5.7273e-06
5.29059e-06
4.85214e-06
4.41414e-06
3.97897e-06
3.54915e-06
3.12752e-06
2.71729e-06
2.32227e-06
1.94728e-06
1.59894e-06
1.28727e-06
1.0297e-06
8.62535e-07
8.8745e-07
1.63598e-06
3.73539e-06
1.82629e-06
1.40595e-06
1.32549e-06
1.38794e-06
1.52901e-06
1.71977e-06
1.94446e-06
2.19341e-06
2.46007e-06
2.73969e-06
3.02859e-06
3.3238e-06
3.6228e-06
3.92341e-06
4.22365e-06
4.52175e-06
4.81607e-06
5.10508e-06
5.38735e-06
5.66156e-06
5.92644e-06
6.18082e-06
6.42359e-06
6.65373e-06
6.87026e-06
7.07231e-06
7.25906e-06
7.42976e-06
7.58374e-06
7.7204e-06
7.83923e-06
7.93976e-06
8.02163e-06
8.08454e-06
8.12827e-06
8.15266e-06
8.15766e-06
8.14326e-06
8.10955e-06
8.05668e-06
7.98488e-06
7.89444e-06
7.78576e-06
7.65926e-06
7.51548e-06
7.35498e-06
7.17843e-06
6.98654e-06
6.7801e-06
6.55995e-06
6.327e-06
6.08223e-06
5.82667e-06
5.56142e-06
5.28765e-06
5.00659e-06
4.71954e-06
4.42788e-06
4.1331e-06
3.83677e-06
3.54061e-06
3.24649e-06
2.95653e-06
2.67314e-06
2.39918e-06
2.13819e-06
1.89476e-06
1.67523e-06
1.48899e-06
1.35133e-06
1.2904e-06
1.36874e-06
1.77808e-06
3.63697e-06
6.17989e-06
2.95755e-06
2.14091e-06
1.84272e-06
1.74974e-06
1.76472e-06
1.84589e-06
1.97144e-06
2.12833e-06
2.30805e-06
2.50458e-06
2.71347e-06
2.93123e-06
3.15505e-06
3.38258e-06
3.61178e-06
3.84088e-06
4.06829e-06
4.29258e-06
4.51241e-06
4.72659e-06
4.93399e-06
5.13358e-06
5.32439e-06
5.50554e-06
5.6762e-06
5.83562e-06
5.98309e-06
6.118e-06
6.23978e-06
6.34792e-06
6.44198e-06
6.5216e-06
6.58644e-06
6.63628e-06
6.6709e-06
6.6902e-06
6.69411e-06
6.68263e-06
6.65582e-06
6.61381e-06
6.55678e-06
6.48498e-06
6.39873e-06
6.29838e-06
6.18437e-06
6.05718e-06
5.91735e-06
5.7655e-06
5.60227e-06
5.42838e-06
5.24462e-06
5.05181e-06
4.85085e-06
4.6427e-06
4.42839e-06
4.20902e-06
3.98578e-06
3.75995e-06
3.53294e-06
3.30628e-06
3.0817e-06
2.86114e-06
2.6469e-06
2.44169e-06
2.24886e-06
2.07273e-06
1.91913e-06
1.79633e-06
1.71697e-06
1.70229e-06
1.79286e-06
2.08333e-06
2.87848e-06
6.01519e-06
8.90477e-06
4.23104e-06
2.99637e-06
2.48536e-06
2.25167e-06
2.15947e-06
2.15208e-06
2.20073e-06
2.28871e-06
2.40532e-06
2.54321e-06
2.69701e-06
2.86262e-06
3.0368e-06
3.21689e-06
3.40068e-06
3.58623e-06
3.77189e-06
3.95618e-06
4.13776e-06
4.31543e-06
4.4881e-06
4.65476e-06
4.8145e-06
4.96647e-06
5.10989e-06
5.24406e-06
5.36834e-06
5.48214e-06
5.58494e-06
5.67629e-06
5.75578e-06
5.82307e-06
5.87786e-06
5.91994e-06
5.94912e-06
5.96529e-06
5.96839e-06
5.95843e-06
5.93544e-06
5.89955e-06
5.85092e-06
5.78977e-06
5.71638e-06
5.63108e-06
5.53426e-06
5.42635e-06
5.30787e-06
5.17934e-06
5.0414e-06
4.89469e-06
4.73995e-06
4.57795e-06
4.40956e-06
4.23568e-06
4.05732e-06
3.87556e-06
3.69159e-06
3.50671e-06
3.32237e-06
3.14018e-06
2.96202e-06
2.79004e-06
2.6268e-06
2.47544e-06
2.33992e-06
2.22546e-06
2.1392e-06
2.09152e-06
2.09864e-06
2.18854e-06
2.41629e-06
2.91397e-06
4.11569e-06
8.66298e-06
1.18418e-05
5.60873e-06
3.93351e-06
3.2067e-06
2.83698e-06
2.64593e-06
2.56014e-06
2.54301e-06
2.5737e-06
2.63916e-06
2.73053e-06
2.84148e-06
2.96726e-06
3.10414e-06
3.24914e-06
3.39977e-06
3.55395e-06
3.70987e-06
3.86595e-06
4.02079e-06
4.17315e-06
4.3219e-06
4.46602e-06
4.60459e-06
4.73677e-06
4.86179e-06
4.97895e-06
5.08764e-06
5.18727e-06
5.27736e-06
5.35745e-06
5.42715e-06
5.48614e-06
5.53413e-06
5.5709e-06
5.5963e-06
5.6102e-06
5.61255e-06
5.60335e-06
5.58264e-06
5.55053e-06
5.50717e-06
5.45277e-06
5.38761e-06
5.31199e-06
5.22628e-06
5.13091e-06
5.02636e-06
4.91316e-06
4.7919e-06
4.66324e-06
4.52788e-06
4.38661e-06
4.24027e-06
4.08979e-06
3.93618e-06
3.78057e-06
3.62418e-06
3.46839e-06
3.31474e-06
3.16498e-06
3.02115e-06
2.88567e-06
2.76143e-06
2.65204e-06
2.56209e-06
2.49774e-06
2.46755e-06
2.48421e-06
2.56795e-06
2.75431e-06
3.11457e-06
3.82211e-06
5.45158e-06
1.15115e-05
1.49409e-05
7.06502e-06
4.92999e-06
3.98254e-06
3.47779e-06
3.19182e-06
3.03315e-06
2.95665e-06
2.93697e-06
2.95841e-06
3.01054e-06
3.08597e-06
3.17922e-06
3.28608e-06
3.40319e-06
3.5278e-06
3.6576e-06
3.79065e-06
3.92523e-06
4.05987e-06
4.19325e-06
4.32418e-06
4.45161e-06
4.57459e-06
4.69225e-06
4.80382e-06
4.9086e-06
5.00594e-06
5.09528e-06
5.17611e-06
5.248e-06
5.31055e-06
5.36344e-06
5.40639e-06
5.43918e-06
5.46166e-06
5.4737e-06
5.47525e-06
5.46633e-06
5.44695e-06
5.41723e-06
5.37732e-06
5.32742e-06
5.26781e-06
5.19879e-06
5.12072e-06
5.03404e-06
4.93921e-06
4.83677e-06
4.72732e-06
4.61151e-06
4.49007e-06
4.36379e-06
4.23354e-06
4.10027e-06
3.96505e-06
3.82904e-06
3.69355e-06
3.56004e-06
3.43018e-06
3.30589e-06
3.18939e-06
3.08336e-06
2.99104e-06
2.91652e-06
2.8651e-06
2.84393e-06
2.86313e-06
2.93792e-06
3.09288e-06
3.37179e-06
3.8634e-06
4.78502e-06
6.85984e-06
1.45093e-05
1.81625e-05
8.5803e-06
5.97017e-06
4.79746e-06
4.1574e-06
3.77848e-06
3.5502e-06
3.41837e-06
3.3528e-06
3.33499e-06
3.35275e-06
3.39757e-06
3.46321e-06
3.54491e-06
3.63893e-06
3.74221e-06
3.85225e-06
3.96691e-06
4.08437e-06
4.20303e-06
4.32148e-06
4.43849e-06
4.55295e-06
4.66387e-06
4.77034e-06
4.87157e-06
4.96682e-06
5.05546e-06
5.1369e-06
5.21062e-06
5.27619e-06
5.3332e-06
5.38133e-06
5.4203e-06
5.44989e-06
5.46993e-06
5.48032e-06
5.481e-06
5.47197e-06
5.45327e-06
5.425e-06
5.38733e-06
5.34046e-06
5.28466e-06
5.22024e-06
5.14757e-06
5.06708e-06
4.97927e-06
4.88466e-06
4.78388e-06
4.6776e-06
4.56656e-06
4.45158e-06
4.33358e-06
4.21356e-06
4.09262e-06
3.972e-06
3.85308e-06
3.73744e-06
3.62685e-06
3.52341e-06
3.42956e-06
3.34824e-06
3.28308e-06
3.23868e-06
3.22107e-06
3.23848e-06
3.30271e-06
3.43166e-06
3.65458e-06
4.02395e-06
4.64682e-06
5.78632e-06
8.31968e-06
1.7614e-05
2.14732e-05
1.01384e-05
7.04183e-06
5.64022e-06
4.86432e-06
4.39358e-06
4.09782e-06
3.91341e-06
3.80509e-06
3.75139e-06
3.73829e-06
3.75605e-06
3.79764e-06
3.85771e-06
3.9321e-06
4.01746e-06
4.11105e-06
4.21054e-06
4.31396e-06
4.41962e-06
4.52601e-06
4.63184e-06
4.73591e-06
4.8372e-06
4.93477e-06
5.02778e-06
5.11548e-06
5.19721e-06
5.27236e-06
5.34041e-06
5.4009e-06
5.45344e-06
5.49767e-06
5.53333e-06
5.56019e-06
5.57808e-06
5.5869e-06
5.58658e-06
5.57714e-06
5.55861e-06
5.53111e-06
5.4948e-06
5.44988e-06
5.39665e-06
5.33541e-06
5.26655e-06
5.19052e-06
5.10781e-06
5.01899e-06
4.92469e-06
4.8256e-06
4.7225e-06
4.61626e-06
4.5078e-06
4.3982e-06
4.28861e-06
4.18035e-06
4.07489e-06
3.9739e-06
3.87932e-06
3.7934e-06
3.7188e-06
3.65876e-06
3.6173e-06
3.59957e-06
3.61236e-06
3.66506e-06
3.77122e-06
3.95158e-06
4.24023e-06
4.69867e-06
5.4528e-06
6.81274e-06
9.8134e-06
2.0789e-05
2.48443e-05
1.17256e-05
8.13485e-06
6.50189e-06
5.58984e-06
5.02813e-06
4.66645e-06
4.4315e-06
4.28276e-06
4.19571e-06
4.15438e-06
4.14779e-06
4.16803e-06
4.20917e-06
4.26659e-06
4.33662e-06
4.41626e-06
4.50302e-06
4.59476e-06
4.68966e-06
4.78614e-06
4.8828e-06
4.97842e-06
5.07188e-06
5.16222e-06
5.24857e-06
5.33014e-06
5.40625e-06
5.47627e-06
5.53967e-06
5.59596e-06
5.64475e-06
5.68568e-06
5.71847e-06
5.7429e-06
5.7588e-06
5.76606e-06
5.76462e-06
5.7545e-06
5.73573e-06
5.70843e-06
5.67279e-06
5.62901e-06
5.57738e-06
5.51824e-06
5.45199e-06
5.37908e-06
5.30003e-06
5.21544e-06
5.12594e-06
5.03228e-06
4.93526e-06
4.83577e-06
4.73481e-06
4.63348e-06
4.53302e-06
4.43482e-06
4.34044e-06
4.25167e-06
4.17058e-06
4.0996e-06
4.04164e-06
4.00024e-06
3.97982e-06
3.98609e-06
4.02668e-06
4.11215e-06
4.25788e-06
4.48751e-06
4.84011e-06
5.38638e-06
6.27138e-06
7.85282e-06
1.13252e-05
2.40014e-05
2.82504e-05
1.33297e-05
9.24055e-06
7.37504e-06
6.32694e-06
5.67511e-06
5.24882e-06
4.96496e-06
4.77766e-06
4.65924e-06
4.59177e-06
4.56296e-06
4.56401e-06
4.58833e-06
4.63088e-06
4.68764e-06
4.75533e-06
4.83127e-06
4.91318e-06
4.99909e-06
5.08733e-06
5.17641e-06
5.26505e-06
5.35208e-06
5.43648e-06
5.51735e-06
5.59387e-06
5.66533e-06
5.73108e-06
5.79056e-06
5.8433e-06
5.88886e-06
5.9269e-06
5.95713e-06
5.97932e-06
5.99329e-06
5.99895e-06
5.99624e-06
5.98517e-06
5.96579e-06
5.93823e-06
5.90268e-06
5.85935e-06
5.80855e-06
5.75063e-06
5.68601e-06
5.61516e-06
5.53862e-06
5.457e-06
5.37098e-06
5.28133e-06
5.18889e-06
5.0946e-06
4.99949e-06
4.90473e-06
4.81163e-06
4.72164e-06
4.63643e-06
4.55791e-06
4.4883e-06
4.43021e-06
4.38679e-06
4.36189e-06
4.36037e-06
4.38851e-06
4.45479e-06
4.57098e-06
4.75431e-06
5.03138e-06
5.4463e-06
6.07902e-06
7.09383e-06
8.89622e-06
1.28407e-05
2.72208e-05
3.16691e-05
1.49401e-05
1.03513e-05
8.2533e-06
7.06977e-06
6.32879e-06
5.83914e-06
5.50778e-06
5.28347e-06
5.13534e-06
5.04343e-06
4.99414e-06
4.97773e-06
4.98698e-06
5.01636e-06
5.0615e-06
5.11886e-06
5.18554e-06
5.25909e-06
5.33744e-06
5.41877e-06
5.50155e-06
5.58439e-06
5.66608e-06
5.74556e-06
5.82188e-06
5.89418e-06
5.96173e-06
6.02386e-06
6.08e-06
6.12964e-06
6.17236e-06
6.20779e-06
6.23565e-06
6.25569e-06
6.26776e-06
6.27174e-06
6.26758e-06
6.25531e-06
6.23498e-06
6.20674e-06
6.17076e-06
6.12729e-06
6.07666e-06
6.01921e-06
5.9554e-06
5.8857e-06
5.8107e-06
5.73102e-06
5.64739e-06
5.56058e-06
5.47148e-06
5.38108e-06
5.29047e-06
5.20086e-06
5.11364e-06
5.03033e-06
4.95272e-06
4.88282e-06
4.82301e-06
4.7761e-06
4.74547e-06
4.7353e-06
4.75088e-06
4.79911e-06
4.88928e-06
5.03441e-06
5.25359e-06
5.5764e-06
6.05194e-06
6.76941e-06
7.91224e-06
9.93339e-06
1.43463e-05
3.04187e-05
3.50805e-05
1.65473e-05
1.14605e-05
9.13111e-06
7.8133e-06
6.98437e-06
6.43261e-06
6.05508e-06
5.79514e-06
5.6187e-06
5.5038e-06
5.43547e-06
5.40306e-06
5.39867e-06
5.41629e-06
5.45118e-06
5.49953e-06
5.55823e-06
5.62465e-06
5.69657e-06
5.77211e-06
5.84959e-06
5.92759e-06
6.00483e-06
6.08019e-06
6.15267e-06
6.22141e-06
6.28562e-06
6.34463e-06
6.39784e-06
6.44474e-06
6.48487e-06
6.51789e-06
6.54348e-06
6.56141e-06
6.57153e-06
6.57371e-06
6.56793e-06
6.5542e-06
6.53259e-06
6.50326e-06
6.46639e-06
6.42226e-06
6.37119e-06
6.31356e-06
6.24983e-06
6.18052e-06
6.10622e-06
6.0276e-06
5.94539e-06
5.86042e-06
5.77361e-06
5.686e-06
5.59873e-06
5.51307e-06
5.43047e-06
5.35255e-06
5.28119e-06
5.21853e-06
5.1671e-06
5.1299e-06
5.11057e-06
5.11362e-06
5.14475e-06
5.21148e-06
5.32395e-06
5.4964e-06
5.74977e-06
6.11658e-06
6.65089e-06
7.45103e-06
8.71927e-06
1.09553e-05
1.58293e-05
3.35683e-05
3.84668e-05
1.81429e-05
1.25621e-05
1.00036e-05
8.5532e-06
7.63774e-06
7.0252e-06
6.60279e-06
6.30849e-06
6.10503e-06
5.96839e-06
5.88227e-06
5.83508e-06
5.81826e-06
5.82529e-06
5.85107e-06
5.89151e-06
5.94327e-06
6.00356e-06
6.07002e-06
6.14063e-06
6.21366e-06
6.28758e-06
6.36106e-06
6.43294e-06
6.50217e-06
6.56785e-06
6.62917e-06
6.68542e-06
6.73601e-06
6.78039e-06
6.81811e-06
6.84881e-06
6.87217e-06
6.88797e-06
6.89604e-06
6.89628e-06
6.88867e-06
6.8732e-06
6.84999e-06
6.81918e-06
6.78099e-06
6.7357e-06
6.68364e-06
6.62524e-06
6.56095e-06
6.49133e-06
6.41699e-06
6.33863e-06
6.25701e-06
6.17301e-06
6.08758e-06
6.00179e-06
5.91685e-06
5.83409e-06
5.75503e-06
5.68138e-06
5.61511e-06
5.55849e-06
5.5142e-06
5.48545e-06
5.47611e-06
5.49101e-06
5.53632e-06
5.62013e-06
5.75341e-06
5.95161e-06
6.23751e-06
6.64651e-06
7.23752e-06
8.11777e-06
9.50797e-06
1.19535e-05
1.72774e-05
3.66435e-05
4.18125e-05
1.97195e-05
1.3651e-05
1.08667e-05
9.28574e-06
8.28541e-06
7.61351e-06
7.14751e-06
6.82007e-06
6.59073e-06
6.43348e-06
6.33067e-06
6.26976e-06
6.24152e-06
6.23896e-06
6.25659e-06
6.29004e-06
6.33573e-06
6.39071e-06
6.45248e-06
6.51889e-06
6.58813e-06
6.65858e-06
6.72887e-06
6.79775e-06
6.86417e-06
6.92716e-06
6.9859e-06
7.03967e-06
7.08783e-06
7.12983e-06
7.16523e-06
7.19364e-06
7.21475e-06
7.22833e-06
7.23423e-06
7.23234e-06
7.22264e-06
7.20516e-06
7.18e-06
7.14733e-06
7.10739e-06
7.06047e-06
7.00692e-06
6.94718e-06
6.88175e-06
6.81118e-06
6.73613e-06
6.65732e-06
6.57555e-06
6.49173e-06
6.40686e-06
6.32205e-06
6.23855e-06
6.15778e-06
6.0813e-06
6.01092e-06
5.94871e-06
5.89708e-06
5.85884e-06
5.83739e-06
5.83686e-06
5.8624e-06
5.92061e-06
6.02015e-06
6.17282e-06
6.39524e-06
6.71196e-06
7.16119e-06
7.80654e-06
8.76387e-06
1.02717e-05
1.29198e-05
1.86788e-05
3.96196e-05
4.51041e-05
2.12709e-05
1.47228e-05
1.17166e-05
1.00077e-05
8.92439e-06
8.19466e-06
7.68638e-06
7.32697e-06
7.07285e-06
6.89601e-06
6.77747e-06
6.70376e-06
6.665e-06
6.65369e-06
6.66397e-06
6.69118e-06
6.73153e-06
6.78187e-06
6.83957e-06
6.90236e-06
6.96833e-06
7.0358e-06
7.10331e-06
7.16958e-06
7.2335e-06
7.29407e-06
7.35045e-06
7.40189e-06
7.44773e-06
7.48742e-06
7.52049e-06
7.54656e-06
7.56533e-06
7.57656e-06
7.58009e-06
7.57584e-06
7.56379e-06
7.54398e-06
7.51653e-06
7.48162e-06
7.4395e-06
7.39048e-06
7.33495e-06
7.27335e-06
7.2062e-06
7.13411e-06
7.05773e-06
6.97782e-06
6.89522e-06
6.81088e-06
6.72582e-06
6.64123e-06
6.55839e-06
6.47877e-06
6.40403e-06
6.33604e-06
6.27698e-06
6.22937e-06
6.19619e-06
6.18101e-06
6.18822e-06
6.22326e-06
6.29316e-06
6.40714e-06
6.57778e-06
6.82285e-06
7.1686e-06
7.65592e-06
8.35295e-06
9.38383e-06
1.10042e-05
1.38462e-05
2.00223e-05
4.24725e-05
4.83301e-05
2.27915e-05
1.57736e-05
1.25503e-05
1.07164e-05
9.55218e-06
8.76622e-06
8.217e-06
7.82678e-06
7.54891e-06
7.35343e-06
7.22003e-06
7.13435e-06
7.08583e-06
7.06649e-06
7.07009e-06
7.09169e-06
7.12728e-06
7.17353e-06
7.22766e-06
7.28728e-06
7.35039e-06
7.41523e-06
7.48027e-06
7.54419e-06
7.60582e-06
7.66414e-06
7.71827e-06
7.76744e-06
7.81098e-06
7.84833e-06
7.87901e-06
7.90264e-06
7.9189e-06
7.92758e-06
7.92852e-06
7.92164e-06
7.90693e-06
7.88445e-06
7.85433e-06
7.81677e-06
7.77204e-06
7.72047e-06
7.66246e-06
7.59849e-06
7.52909e-06
7.4549e-06
7.37661e-06
7.295e-06
7.21095e-06
7.12543e-06
7.03952e-06
6.95444e-06
6.87154e-06
6.79234e-06
6.71855e-06
6.65216e-06
6.59541e-06
6.55096e-06
6.52193e-06
6.51207e-06
6.52599e-06
6.56946e-06
6.64988e-06
6.77702e-06
6.96421e-06
7.2303e-06
7.60316e-06
8.12625e-06
8.87199e-06
9.97239e-06
1.16993e-05
1.47251e-05
2.12968e-05
4.5179e-05
5.14814e-05
2.4277e-05
1.68005e-05
1.33653e-05
1.14096e-05
1.01667e-05
9.32623e-06
8.73743e-06
8.31754e-06
8.01691e-06
7.80366e-06
7.6562e-06
7.55927e-06
7.50166e-06
7.47489e-06
7.47239e-06
7.4889e-06
7.52021e-06
7.56279e-06
7.61372e-06
7.67052e-06
7.73107e-06
7.79352e-06
7.8563e-06
7.91802e-06
7.97747e-06
8.03361e-06
8.08551e-06
8.13239e-06
8.17357e-06
8.20847e-06
8.23662e-06
8.25761e-06
8.27115e-06
8.27702e-06
8.27507e-06
8.26524e-06
8.24752e-06
8.22199e-06
8.1888e-06
8.14817e-06
8.10038e-06
8.04578e-06
7.98481e-06
7.91796e-06
7.84579e-06
7.76896e-06
7.6882e-06
7.60432e-06
7.51822e-06
7.43092e-06
7.34354e-06
7.25733e-06
7.17371e-06
7.09423e-06
7.02071e-06
6.95516e-06
6.89997e-06
6.85787e-06
6.83214e-06
6.8267e-06
6.84637e-06
6.89722e-06
6.987e-06
7.12602e-06
7.32829e-06
7.61369e-06
8.01163e-06
8.56794e-06
9.3591e-06
1.05245e-05
1.23512e-05
1.55491e-05
2.24917e-05
4.77164e-05
5.45505e-05
2.5724e-05
1.78009e-05
1.41597e-05
1.20857e-05
1.07664e-05
9.87314e-06
9.24611e-06
8.79768e-06
8.47524e-06
8.24504e-06
8.08424e-06
7.9767e-06
7.91057e-06
7.87691e-06
7.86877e-06
7.88062e-06
7.90801e-06
7.94726e-06
7.99528e-06
8.04949e-06
8.10766e-06
8.16789e-06
8.2285e-06
8.28809e-06
8.34538e-06
8.39931e-06
8.44892e-06
8.4934e-06
8.53207e-06
8.56434e-06
8.58972e-06
8.60783e-06
8.61836e-06
8.6211e-06
8.61592e-06
8.60275e-06
8.58162e-06
8.55263e-06
8.51593e-06
8.47176e-06
8.42044e-06
8.36233e-06
8.29789e-06
8.22765e-06
8.15219e-06
8.07219e-06
7.98841e-06
7.9017e-06
7.81299e-06
7.72334e-06
7.6339e-06
7.54597e-06
7.461e-06
7.38062e-06
7.30669e-06
7.24132e-06
7.18695e-06
7.14646e-06
7.12322e-06
7.12133e-06
7.14582e-06
7.203e-06
7.30101e-06
7.45059e-06
7.66643e-06
7.96935e-06
8.39017e-06
8.97695e-06
9.80987e-06
1.10351e-05
1.2954e-05
1.63111e-05
2.35966e-05
5.00628e-05
5.75324e-05
2.71299e-05
1.87733e-05
1.4932e-05
1.27433e-05
1.13501e-05
1.04058e-05
9.7419e-06
9.26601e-06
8.92266e-06
8.67628e-06
8.50281e-06
8.38523e-06
8.31109e-06
8.27097e-06
8.25758e-06
8.2651e-06
8.28886e-06
8.32501e-06
8.37033e-06
8.4221e-06
8.478e-06
8.53604e-06
8.59452e-06
8.65194e-06
8.707e-06
8.7586e-06
8.80576e-06
8.84766e-06
8.88358e-06
8.91295e-06
8.93527e-06
8.95015e-06
8.95731e-06
8.95653e-06
8.94771e-06
8.93078e-06
8.90579e-06
8.87286e-06
8.83216e-06
8.78397e-06
8.7286e-06
8.66647e-06
8.59805e-06
8.52388e-06
8.4446e-06
8.3609e-06
8.27357e-06
8.18349e-06
8.09163e-06
7.99906e-06
7.907e-06
7.81677e-06
7.72988e-06
7.648e-06
7.57304e-06
7.5072e-06
7.45298e-06
7.41336e-06
7.39185e-06
7.39267e-06
7.42105e-06
7.48354e-06
7.5886e-06
7.7474e-06
7.97523e-06
8.29377e-06
8.73513e-06
9.34938e-06
1.02201e-05
1.14997e-05
1.35022e-05
1.70041e-05
2.46015e-05
5.21969e-05
6.04239e-05
2.84934e-05
1.97164e-05
1.56815e-05
1.33816e-05
1.1917e-05
1.09234e-05
1.0224e-05
9.72171e-06
9.35831e-06
9.09647e-06
8.91092e-06
8.78382e-06
8.7021e-06
8.6559e-06
8.63755e-06
8.64101e-06
8.66135e-06
8.69457e-06
8.73728e-06
8.78667e-06
8.84032e-06
8.89617e-06
8.95243e-06
9.00757e-06
9.06025e-06
9.10932e-06
9.15379e-06
9.19282e-06
9.22569e-06
9.25181e-06
9.27068e-06
9.28193e-06
9.28528e-06
9.28052e-06
9.26757e-06
9.24638e-06
9.21702e-06
9.17962e-06
9.1344e-06
9.08163e-06
9.02168e-06
8.95498e-06
8.88202e-06
8.80339e-06
8.71973e-06
8.63178e-06
8.54036e-06
8.44637e-06
8.35081e-06
8.2548e-06
8.15957e-06
8.0665e-06
7.97712e-06
7.89317e-06
7.8166e-06
7.74965e-06
7.69494e-06
7.6555e-06
7.63495e-06
7.63766e-06
7.66901e-06
7.73578e-06
7.84669e-06
8.01332e-06
8.25149e-06
8.58365e-06
9.04304e-06
9.68156e-06
1.05858e-05
1.19137e-05
1.39907e-05
1.76215e-05
2.54968e-05
5.40984e-05
6.3224e-05
2.98139e-05
2.06301e-05
1.64076e-05
1.40004e-05
1.24667e-05
1.14256e-05
1.0692e-05
1.01643e-05
9.78168e-06
9.50502e-06
9.30794e-06
9.17176e-06
9.08284e-06
9.03086e-06
9.00781e-06
9.00739e-06
9.02446e-06
9.05482e-06
9.09497e-06
9.14198e-06
9.19333e-06
9.24687e-06
9.30077e-06
9.35343e-06
9.40348e-06
9.44974e-06
9.4912e-06
9.527e-06
9.55641e-06
9.57884e-06
9.59381e-06
9.60093e-06
9.59995e-06
9.59068e-06
9.57304e-06
9.54702e-06
9.5127e-06
9.47026e-06
9.41991e-06
9.36198e-06
9.29686e-06
9.22499e-06
9.14691e-06
9.06324e-06
8.97464e-06
8.88188e-06
8.78581e-06
8.68736e-06
8.58757e-06
8.48757e-06
8.38864e-06
8.29219e-06
8.19978e-06
8.1132e-06
8.03444e-06
7.9658e-06
7.90995e-06
7.87001e-06
7.84968e-06
7.85346e-06
7.88685e-06
7.95685e-06
8.0724e-06
8.24542e-06
8.4922e-06
8.83585e-06
9.31062e-06
9.96996e-06
1.09031e-05
1.22727e-05
1.44142e-05
1.81568e-05
2.62732e-05
5.57474e-05
6.59338e-05
3.10919e-05
2.15144e-05
1.71108e-05
1.45997e-05
1.29994e-05
1.19124e-05
1.11458e-05
1.05937e-05
1.01926e-05
9.90169e-06
9.69356e-06
9.5487e-06
9.45289e-06
9.39537e-06
9.36782e-06
9.36364e-06
9.37751e-06
9.40505e-06
9.44262e-06
9.48716e-06
9.53608e-06
9.58714e-06
9.63845e-06
9.68837e-06
9.73547e-06
9.77856e-06
9.8166e-06
9.84872e-06
9.87419e-06
9.89241e-06
9.90291e-06
9.90534e-06
9.89942e-06
9.88502e-06
9.86205e-06
9.83055e-06
9.79063e-06
9.74247e-06
9.68635e-06
9.6226e-06
9.55165e-06
9.47398e-06
9.39016e-06
9.30082e-06
9.20668e-06
9.10853e-06
9.00723e-06
8.90377e-06
8.79919e-06
8.69467e-06
8.59151e-06
8.49114e-06
8.39517e-06
8.30541e-06
8.2239e-06
8.15299e-06
8.09538e-06
8.05427e-06
8.03343e-06
8.03745e-06
8.07196e-06
8.1441e-06
8.26304e-06
8.44096e-06
8.69454e-06
9.04746e-06
9.53478e-06
1.02113e-05
1.11684e-05
1.25728e-05
1.47681e-05
1.86041e-05
2.69219e-05
5.71255e-05
6.85562e-05
3.23287e-05
2.23705e-05
1.77915e-05
1.51801e-05
1.35154e-05
1.23841e-05
1.15857e-05
1.101e-05
1.05911e-05
1.02865e-05
1.00678e-05
9.91458e-06
9.81214e-06
9.74929e-06
9.71737e-06
9.70952e-06
9.72021e-06
9.7449e-06
9.7798e-06
9.82175e-06
9.86804e-06
9.91639e-06
9.96481e-06
1.00116e-05
1.00554e-05
1.00949e-05
1.0129e-05
1.01569e-05
1.01778e-05
1.01913e-05
1.01967e-05
1.01937e-05
1.01822e-05
1.01619e-05
1.01329e-05
1.00952e-05
1.00489e-05
9.99432e-06
9.93169e-06
9.8614e-06
9.78392e-06
9.69975e-06
9.60951e-06
9.51385e-06
9.41353e-06
9.30936e-06
9.20224e-06
9.09318e-06
8.98325e-06
8.87366e-06
8.76573e-06
8.66092e-06
8.56086e-06
8.46738e-06
8.38258e-06
8.30881e-06
8.24883e-06
8.20588e-06
8.18379e-06
8.18723e-06
8.22192e-06
8.29511e-06
8.41615e-06
8.59742e-06
8.85592e-06
9.21576e-06
9.71267e-06
1.04024e-05
1.13782e-05
1.281e-05
1.50478e-05
1.89575e-05
2.74346e-05
5.8215e-05
7.10961e-05
3.35268e-05
2.31998e-05
1.84511e-05
1.57426e-05
1.40155e-05
1.28414e-05
1.20122e-05
1.14138e-05
1.09776e-05
1.06599e-05
1.04309e-05
1.02697e-05
1.01608e-05
1.00928e-05
1.00566e-05
1.00451e-05
1.00526e-05
1.00744e-05
1.01065e-05
1.01456e-05
1.0189e-05
1.02344e-05
1.02795e-05
1.03228e-05
1.03628e-05
1.03981e-05
1.04278e-05
1.04508e-05
1.04666e-05
1.04745e-05
1.0474e-05
1.0465e-05
1.0447e-05
1.04201e-05
1.03842e-05
1.03395e-05
1.02861e-05
1.02242e-05
1.01542e-05
1.00766e-05
9.99181e-06
9.90039e-06
9.80299e-06
9.7003e-06
9.59312e-06
9.48227e-06
9.36871e-06
9.25345e-06
9.13759e-06
9.02237e-06
8.90912e-06
8.79933e-06
8.69465e-06
8.59693e-06
8.50827e-06
8.43108e-06
8.36812e-06
8.32267e-06
8.2986e-06
8.30063e-06
8.33454e-06
8.40768e-06
8.52948e-06
8.71251e-06
8.97397e-06
9.33828e-06
9.84167e-06
1.05407e-05
1.15297e-05
1.29808e-05
1.52491e-05
1.9212e-05
2.78039e-05
5.89999e-05
7.35602e-05
3.46892e-05
2.40045e-05
1.90911e-05
1.62884e-05
1.45009e-05
1.32852e-05
1.24262e-05
1.18057e-05
1.13529e-05
1.10224e-05
1.07835e-05
1.06144e-05
1.04994e-05
1.04263e-05
1.03859e-05
1.03708e-05
1.0375e-05
1.03937e-05
1.04229e-05
1.0459e-05
1.04993e-05
1.05412e-05
1.05827e-05
1.0622e-05
1.06576e-05
1.06882e-05
1.07126e-05
1.07302e-05
1.074e-05
1.07416e-05
1.07344e-05
1.07184e-05
1.06931e-05
1.06586e-05
1.0615e-05
1.05623e-05
1.05008e-05
1.04307e-05
1.03526e-05
1.02668e-05
1.01738e-05
1.00743e-05
9.96893e-06
9.85845e-06
9.74366e-06
9.62545e-06
9.50478e-06
9.38268e-06
9.26029e-06
9.13886e-06
9.01974e-06
8.90443e-06
8.7946e-06
8.6921e-06
8.59905e-06
8.51787e-06
8.45133e-06
8.40272e-06
8.37595e-06
8.37573e-06
8.4079e-06
8.47984e-06
8.60105e-06
8.78419e-06
9.04659e-06
9.41285e-06
9.91946e-06
1.06234e-05
1.16199e-05
1.30823e-05
1.53684e-05
1.93628e-05
2.80228e-05
5.94656e-05
7.59568e-05
3.58197e-05
2.47872e-05
1.97137e-05
1.68193e-05
1.4973e-05
1.37169e-05
1.28288e-05
1.21869e-05
1.17179e-05
1.1375e-05
1.11264e-05
1.09498e-05
1.08286e-05
1.07505e-05
1.07059e-05
1.06872e-05
1.06881e-05
1.07036e-05
1.07296e-05
1.07624e-05
1.07992e-05
1.08373e-05
1.08747e-05
1.09094e-05
1.094e-05
1.09652e-05
1.09837e-05
1.09949e-05
1.09979e-05
1.09923e-05
1.09775e-05
1.09535e-05
1.09199e-05
1.08769e-05
1.08245e-05
1.07628e-05
1.06922e-05
1.0613e-05
1.05256e-05
1.04306e-05
1.03285e-05
1.02201e-05
1.01059e-05
9.9868e-06
9.86364e-06
9.73732e-06
9.60883e-06
9.47924e-06
9.3497e-06
9.22146e-06
9.09591e-06
8.97453e-06
8.85901e-06
8.75121e-06
8.65324e-06
8.5675e-06
8.49679e-06
8.44437e-06
8.41416e-06
8.41087e-06
8.44033e-06
8.50993e-06
8.62918e-06
8.81075e-06
9.072e-06
9.43759e-06
9.94408e-06
1.06486e-05
1.16465e-05
1.31116e-05
1.54026e-05
1.94059e-05
2.80855e-05
5.95997e-05
7.82955e-05
3.6923e-05
2.55509e-05
2.03211e-05
1.73372e-05
1.54334e-05
1.41378e-05
1.32214e-05
1.25585e-05
1.20737e-05
1.17187e-05
1.14607e-05
1.12766e-05
1.11495e-05
1.10665e-05
1.10178e-05
1.09953e-05
1.09928e-05
1.1005e-05
1.10276e-05
1.10568e-05
1.10897e-05
1.11235e-05
1.11562e-05
1.11858e-05
1.12107e-05
1.12296e-05
1.12414e-05
1.12453e-05
1.12406e-05
1.12267e-05
1.12033e-05
1.11702e-05
1.11273e-05
1.10745e-05
1.10122e-05
1.09404e-05
1.08596e-05
1.07701e-05
1.06724e-05
1.05672e-05
1.0455e-05
1.03366e-05
1.02127e-05
1.00841e-05
9.95174e-06
9.81653e-06
9.6795e-06
9.54173e-06
9.40439e-06
9.26874e-06
9.13618e-06
9.0082e-06
8.88646e-06
8.77283e-06
8.66941e-06
8.57858e-06
8.50311e-06
8.44625e-06
8.4119e-06
8.40471e-06
8.43051e-06
8.49663e-06
8.61254e-06
8.79084e-06
9.04884e-06
9.4111e-06
9.91404e-06
1.06146e-05
1.16077e-05
1.30669e-05
1.53492e-05
1.93381e-05
2.79875e-05
5.93924e-05
8.05871e-05
3.8004e-05
2.62991e-05
2.0916e-05
1.78444e-05
1.58841e-05
1.45498e-05
1.36055e-05
1.2922e-05
1.24217e-05
1.20548e-05
1.17876e-05
1.15962e-05
1.14633e-05
1.13755e-05
1.13226e-05
1.12964e-05
1.12904e-05
1.12991e-05
1.13179e-05
1.13432e-05
1.13718e-05
1.14009e-05
1.14282e-05
1.1452e-05
1.14704e-05
1.14823e-05
1.14864e-05
1.14821e-05
1.14685e-05
1.14453e-05
1.1412e-05
1.13686e-05
1.13151e-05
1.12514e-05
1.11778e-05
1.10947e-05
1.10024e-05
1.09014e-05
1.07924e-05
1.06758e-05
1.05524e-05
1.0423e-05
1.02883e-05
1.01493e-05
1.00069e-05
9.86195e-06
9.7156e-06
9.56895e-06
9.42316e-06
9.27951e-06
9.13937e-06
9.00425e-06
8.87579e-06
8.75584e-06
8.64646e-06
8.55002e-06
8.46924e-06
8.40734e-06
8.36815e-06
8.35628e-06
8.37746e-06
8.43895e-06
8.55011e-06
8.72343e-06
8.97603e-06
9.33223e-06
9.82812e-06
1.05201e-05
1.15022e-05
1.29463e-05
1.52062e-05
1.9157e-05
2.77251e-05
5.8836e-05
8.28432e-05
3.90681e-05
2.70356e-05
2.15014e-05
1.83431e-05
1.63272e-05
1.49545e-05
1.39828e-05
1.3279e-05
1.27634e-05
1.23848e-05
1.21085e-05
1.191e-05
1.17714e-05
1.16788e-05
1.16218e-05
1.15919e-05
1.15823e-05
1.15872e-05
1.16022e-05
1.16232e-05
1.16469e-05
1.16707e-05
1.16921e-05
1.17092e-05
1.17203e-05
1.17241e-05
1.17196e-05
1.17059e-05
1.16823e-05
1.16484e-05
1.16041e-05
1.15491e-05
1.14835e-05
1.14075e-05
1.13214e-05
1.12256e-05
1.11205e-05
1.10067e-05
1.08849e-05
1.07557e-05
1.062e-05
1.04785e-05
1.0332e-05
1.01816e-05
1.00281e-05
9.87268e-06
9.71626e-06
9.56001e-06
9.40512e-06
9.25285e-06
9.10457e-06
8.96178e-06
8.8261e-06
8.69933e-06
8.58351e-06
8.48096e-06
8.39435e-06
8.32681e-06
8.28211e-06
8.26477e-06
8.28041e-06
8.33616e-06
8.44122e-06
8.60786e-06
8.85293e-06
9.20037e-06
9.68569e-06
1.03644e-05
1.13292e-05
1.27491e-05
1.49726e-05
1.88614e-05
2.72964e-05
5.79261e-05
8.50757e-05
4.01211e-05
2.7764e-05
2.20801e-05
1.88359e-05
1.67647e-05
1.5354e-05
1.43549e-05
1.3631e-05
1.31003e-05
1.27102e-05
1.2425e-05
1.22196e-05
1.20753e-05
1.19781e-05
1.1917e-05
1.18834e-05
1.187e-05
1.18711e-05
1.18819e-05
1.18982e-05
1.19167e-05
1.19345e-05
1.19492e-05
1.19588e-05
1.19617e-05
1.19564e-05
1.1942e-05
1.19177e-05
1.18827e-05
1.18369e-05
1.178e-05
1.17119e-05
1.16328e-05
1.1543e-05
1.14428e-05
1.13328e-05
1.12135e-05
1.10855e-05
1.09496e-05
1.08065e-05
1.06572e-05
1.05024e-05
1.03431e-05
1.01802e-05
1.00149e-05
9.84801e-06
9.68073e-06
9.51417e-06
9.34952e-06
9.18806e-06
9.03112e-06
8.88017e-06
8.73681e-06
8.60279e-06
8.48011e-06
8.371e-06
8.27807e-06
8.20437e-06
8.15354e-06
8.13004e-06
8.13927e-06
8.18821e-06
8.28584e-06
8.44416e-06
8.67961e-06
9.0156e-06
9.48687e-06
1.01477e-05
1.10888e-05
1.24755e-05
1.46486e-05
1.84512e-05
2.67015e-05
5.66631e-05
8.72968e-05
4.11684e-05
2.84883e-05
2.26551e-05
1.93252e-05
1.71988e-05
1.57501e-05
1.47238e-05
1.39798e-05
1.34341e-05
1.30327e-05
1.27388e-05
1.25266e-05
1.23769e-05
1.22751e-05
1.22101e-05
1.21726e-05
1.21555e-05
1.21526e-05
1.21588e-05
1.21701e-05
1.21828e-05
1.2194e-05
1.22012e-05
1.22024e-05
1.21959e-05
1.21804e-05
1.21549e-05
1.21185e-05
1.20707e-05
1.20114e-05
1.19403e-05
1.18575e-05
1.17633e-05
1.1658e-05
1.15422e-05
1.14163e-05
1.12812e-05
1.11375e-05
1.0986e-05
1.08277e-05
1.06635e-05
1.04942e-05
1.0321e-05
1.01447e-05
9.96646e-06
9.78734e-06
9.60844e-06
9.43089e-06
9.25589e-06
9.08469e-06
8.91861e-06
8.75908e-06
8.60765e-06
8.46602e-06
8.3361e-06
8.22007e-06
8.12042e-06
8.0401e-06
7.98262e-06
7.95231e-06
7.95434e-06
7.99548e-06
8.08444e-06
8.23285e-06
8.45665e-06
8.77859e-06
9.2324e-06
9.8708e-06
1.07819e-05
1.21264e-05
1.42355e-05
1.79281e-05
2.59425e-05
5.50515e-05
8.95179e-05
4.22156e-05
2.9212e-05
2.32293e-05
1.98133e-05
1.76315e-05
1.61447e-05
1.50911e-05
1.43271e-05
1.37665e-05
1.33538e-05
1.30514e-05
1.28326e-05
1.26777e-05
1.25716e-05
1.25027e-05
1.24615e-05
1.24405e-05
1.24334e-05
1.24349e-05
1.24406e-05
1.2447e-05
1.24508e-05
1.24497e-05
1.24414e-05
1.24244e-05
1.23974e-05
1.23592e-05
1.23092e-05
1.22471e-05
1.21725e-05
1.20855e-05
1.19862e-05
1.18751e-05
1.17526e-05
1.16193e-05
1.14759e-05
1.13233e-05
1.11623e-05
1.09938e-05
1.08188e-05
1.06384e-05
1.04534e-05
1.02651e-05
1.00743e-05
9.88236e-06
9.69019e-06
9.49896e-06
9.30981e-06
9.12393e-06
8.94254e-06
8.76693e-06
8.59848e-06
8.43868e-06
8.28916e-06
8.15175e-06
8.02852e-06
7.92185e-06
7.83456e-06
7.76999e-06
7.73231e-06
7.72646e-06
7.75891e-06
7.83807e-06
7.97509e-06
8.18536e-06
8.49076e-06
8.92383e-06
9.53541e-06