/*--------------------------------*- C++ -*----------------------------------*\
  =========                 |
  \\      /  F ield         | OpenFOAM: The Open Source CFD Toolbox
   \\    /   O peration     | Website:  https://openfoam.org
    \\  /    A nd           | Version:  12
     \\/     M anipulation  |
\*---------------------------------------------------------------------------*/
FoamFile
{
    format      ascii;
    class       volScalarField;
    location    "2";
    object      k;
}
// * * * * * * * * * * * * * * * * * * * * * * * * * * * * * * * * * * * * * //

dimensions      [0 2 -2 0 0 0 0];

internalField   nonuniform List<scalar> 
5625
(
5.43563e-11
4.10563e-10
8.7004e-10
1.41821e-09
2.03533e-09
2.70648e-09
3.42072e-09
4.16962e-09
4.94623e-09
5.74453e-09
6.55913e-09
7.38505e-09
8.21766e-09
9.05257e-09
9.88562e-09
1.07128e-08
1.15303e-08
1.23345e-08
1.31218e-08
1.38888e-08
1.46325e-08
1.53495e-08
1.60372e-08
1.66927e-08
1.73133e-08
1.78967e-08
1.84407e-08
1.89431e-08
1.9402e-08
1.98157e-08
2.01826e-08
2.05015e-08
2.07712e-08
2.09906e-08
2.11591e-08
2.12761e-08
2.13412e-08
2.13542e-08
2.13153e-08
2.12245e-08
2.10823e-08
2.08893e-08
2.06464e-08
2.03544e-08
2.00146e-08
1.96283e-08
1.91971e-08
1.87225e-08
1.82066e-08
1.76513e-08
1.70587e-08
1.64312e-08
1.57712e-08
1.50814e-08
1.43645e-08
1.36233e-08
1.2861e-08
1.20805e-08
1.12851e-08
1.04782e-08
9.6634e-09
8.84421e-09
8.02447e-09
7.20815e-09
6.39938e-09
5.60258e-09
4.82247e-09
4.06416e-09
3.33342e-09
2.63688e-09
1.98268e-09
1.38135e-09
8.47347e-10
3.99828e-10
5.29327e-11
3.67669e-10
3.27277e-09
7.45615e-09
1.24564e-08
1.80565e-08
2.41256e-08
3.05717e-08
3.73229e-08
4.43192e-08
5.15077e-08
5.88407e-08
6.62742e-08
7.37667e-08
8.1279e-08
8.87738e-08
9.62154e-08
1.0357e-07
1.10803e-07
1.17885e-07
1.24784e-07
1.31473e-07
1.37922e-07
1.44107e-07
1.50002e-07
1.55584e-07
1.60831e-07
1.65723e-07
1.70241e-07
1.74368e-07
1.78089e-07
1.81389e-07
1.84257e-07
1.86682e-07
1.88655e-07
1.9017e-07
1.91222e-07
1.91808e-07
1.91925e-07
1.91574e-07
1.90757e-07
1.89478e-07
1.87743e-07
1.85557e-07
1.82931e-07
1.79875e-07
1.76401e-07
1.72523e-07
1.68255e-07
1.63615e-07
1.58621e-07
1.53291e-07
1.47648e-07
1.41712e-07
1.35508e-07
1.2906e-07
1.22394e-07
1.15537e-07
1.08517e-07
1.01363e-07
9.4105e-08
8.67749e-08
7.94052e-08
7.20298e-08
6.46843e-08
5.74057e-08
5.02332e-08
4.32088e-08
3.63779e-08
2.97906e-08
2.35047e-08
1.75891e-08
1.21325e-08
7.2616e-09
3.18718e-09
3.58038e-10
8.17488e-10
7.33141e-09
1.68124e-08
2.82244e-08
4.10576e-08
5.49973e-08
6.98209e-08
8.53562e-08
1.01461e-07
1.1801e-07
1.34893e-07
1.52008e-07
1.69259e-07
1.86555e-07
2.0381e-07
2.20942e-07
2.37872e-07
2.54524e-07
2.70826e-07
2.86709e-07
3.02104e-07
3.1695e-07
3.31186e-07
3.44755e-07
3.57603e-07
3.6968e-07
3.80939e-07
3.91337e-07
4.00836e-07
4.09398e-07
4.16993e-07
4.23592e-07
4.29172e-07
4.33713e-07
4.37199e-07
4.39619e-07
4.40965e-07
4.41234e-07
4.40425e-07
4.38544e-07
4.356e-07
4.31604e-07
4.26574e-07
4.2053e-07
4.13495e-07
4.05499e-07
3.96571e-07
3.86748e-07
3.76068e-07
3.64572e-07
3.52305e-07
3.39315e-07
3.25654e-07
3.11374e-07
2.96532e-07
2.81189e-07
2.65405e-07
2.49246e-07
2.32777e-07
2.1607e-07
1.99197e-07
1.82231e-07
1.65253e-07
1.48343e-07
1.31586e-07
1.15075e-07
9.89053e-08
8.31835e-08
6.80277e-08
5.35743e-08
3.99891e-08
2.74865e-08
1.63713e-08
7.13864e-09
7.9596e-10
1.35247e-09
1.21491e-08
2.79191e-08
4.69671e-08
6.84475e-08
9.18282e-08
1.16728e-07
1.42849e-07
1.69946e-07
1.97805e-07
2.26234e-07
2.55059e-07
2.84117e-07
3.13254e-07
3.42324e-07
3.71187e-07
3.99711e-07
4.27768e-07
4.55234e-07
4.81993e-07
5.07932e-07
5.32944e-07
5.56929e-07
5.79788e-07
6.01433e-07
6.21778e-07
6.40745e-07
6.58262e-07
6.74261e-07
6.88683e-07
7.01475e-07
7.12589e-07
7.21987e-07
7.29633e-07
7.35502e-07
7.39575e-07
7.41837e-07
7.42285e-07
7.40919e-07
7.37746e-07
7.32781e-07
7.26045e-07
7.17567e-07
7.0738e-07
6.95526e-07
6.82051e-07
6.67008e-07
6.50457e-07
6.32461e-07
6.13092e-07
5.92424e-07
5.70539e-07
5.47522e-07
5.23464e-07
4.98461e-07
4.72612e-07
4.46021e-07
4.18799e-07
3.91057e-07
3.62913e-07
3.3449e-07
3.05914e-07
2.77318e-07
2.4884e-07
2.20626e-07
1.9283e-07
1.65618e-07
1.39172e-07
1.13696e-07
8.94254e-08
6.66457e-08
4.57251e-08
2.71783e-08
1.1826e-08
1.31644e-09
1.9488e-09
1.75165e-08
4.02908e-08
6.78493e-08
9.89812e-08
1.32918e-07
1.69104e-07
2.07101e-07
2.46547e-07
2.87124e-07
3.28549e-07
3.70565e-07
4.1293e-07
4.55418e-07
4.97813e-07
5.39912e-07
5.81519e-07
6.22446e-07
6.62513e-07
7.01548e-07
7.39389e-07
7.75877e-07
8.10865e-07
8.44212e-07
8.75786e-07
9.05463e-07
9.33129e-07
9.58678e-07
9.82013e-07
1.00305e-06
1.0217e-06
1.03791e-06
1.05161e-06
1.06275e-06
1.0713e-06
1.07723e-06
1.08052e-06
1.08117e-06
1.07916e-06
1.07452e-06
1.06727e-06
1.05743e-06
1.04505e-06
1.03018e-06
1.01288e-06
9.93214e-07
9.71261e-07
9.47108e-07
9.2085e-07
8.92588e-07
8.62434e-07
8.30504e-07
7.96926e-07
7.6183e-07
7.25356e-07
6.87651e-07
6.48867e-07
6.09163e-07
5.68704e-07
5.27663e-07
4.86218e-07
4.44556e-07
4.02872e-07
3.61367e-07
3.20258e-07
2.79772e-07
2.40154e-07
2.01673e-07
1.64631e-07
1.29376e-07
9.63273e-08
6.60215e-08
3.92015e-08
1.70418e-08
1.89591e-09
2.59155e-09
2.33003e-08
5.36203e-08
9.0348e-08
1.31883e-07
1.77208e-07
2.25581e-07
2.76416e-07
3.29222e-07
3.83572e-07
4.39083e-07
4.95404e-07
5.52209e-07
6.09192e-07
6.66061e-07
7.22539e-07
7.78362e-07
8.33278e-07
8.87043e-07
9.39426e-07
9.90205e-07
1.03917e-06
1.08612e-06
1.13087e-06
1.17324e-06
1.21306e-06
1.25019e-06
1.28447e-06
1.31577e-06
1.34399e-06
1.36901e-06
1.39074e-06
1.40911e-06
1.42405e-06
1.43551e-06
1.44345e-06
1.44784e-06
1.44868e-06
1.44597e-06
1.43972e-06
1.42996e-06
1.41674e-06
1.4001e-06
1.38013e-06
1.35689e-06
1.33048e-06
1.301e-06
1.26857e-06
1.23332e-06
1.19538e-06
1.1549e-06
1.11204e-06
1.06698e-06
1.01988e-06
9.70935e-07
9.20342e-07
8.68307e-07
8.15042e-07
7.60771e-07
7.05726e-07
6.50149e-07
5.9429e-07
5.38412e-07
4.8279e-07
4.27714e-07
3.73494e-07
3.20461e-07
2.6898e-07
2.19456e-07
1.7236e-07
1.28253e-07
8.78487e-08
5.21316e-08
2.26518e-08
2.51932e-09
3.26979e-09
2.94028e-08
6.76824e-08
1.14082e-07
1.66592e-07
2.23934e-07
2.85174e-07
3.4957e-07
4.16499e-07
4.85417e-07
5.55835e-07
6.27305e-07
6.99408e-07
7.71753e-07
8.43967e-07
9.15695e-07
9.866e-07
1.05636e-06
1.12466e-06
1.19121e-06
1.25572e-06
1.31793e-06
1.37758e-06
1.43443e-06
1.48825e-06
1.53884e-06
1.58599e-06
1.62953e-06
1.66929e-06
1.70512e-06
1.73688e-06
1.76447e-06
1.78778e-06
1.80673e-06
1.82125e-06
1.8313e-06
1.83685e-06
1.83788e-06
1.8344e-06
1.82642e-06
1.81398e-06
1.79714e-06
1.77597e-06
1.75055e-06
1.72098e-06
1.68739e-06
1.64991e-06
1.60868e-06
1.56386e-06
1.51564e-06
1.46419e-06
1.40973e-06
1.35247e-06
1.29263e-06
1.23045e-06
1.16618e-06
1.10009e-06
1.03245e-06
9.63541e-07
8.93659e-07
8.23113e-07
7.52225e-07
6.81329e-07
6.10779e-07
5.40943e-07
4.72218e-07
4.05027e-07
3.39834e-07
2.77157e-07
2.1759e-07
1.61843e-07
1.10813e-07
6.57359e-08
2.85551e-08
3.17537e-09
3.97482e-09
3.57458e-08
8.22976e-08
1.38747e-07
2.02663e-07
2.72494e-07
3.47108e-07
4.25604e-07
5.07224e-07
5.913e-07
6.77236e-07
7.6448e-07
8.52519e-07
9.40871e-07
1.02908e-06
1.11671e-06
1.20334e-06
1.28857e-06
1.37203e-06
1.45335e-06
1.53219e-06
1.60821e-06
1.68111e-06
1.75058e-06
1.81634e-06
1.87815e-06
1.93576e-06
1.98895e-06
2.03751e-06
2.08126e-06
2.12004e-06
2.15372e-06
2.18216e-06
2.20526e-06
2.22296e-06
2.23518e-06
2.2419e-06
2.2431e-06
2.23877e-06
2.22896e-06
2.21369e-06
2.19305e-06
2.16711e-06
2.13598e-06
2.09979e-06
2.05869e-06
2.01282e-06
1.96239e-06
1.90758e-06
1.84861e-06
1.78571e-06
1.71913e-06
1.64914e-06
1.576e-06
1.50002e-06
1.4215e-06
1.34077e-06
1.25814e-06
1.17399e-06
1.08866e-06
1.00254e-06
9.16021e-07
8.29515e-07
7.43452e-07
6.58289e-07
5.74509e-07
4.92631e-07
4.13222e-07
3.36913e-07
2.64426e-07
1.96624e-07
1.34592e-07
7.98234e-08
3.46684e-08
3.85483e-09
4.69934e-09
4.2264e-08
9.73154e-08
1.64091e-07
2.39722e-07
3.22383e-07
4.10738e-07
5.03723e-07
6.00438e-07
7.00095e-07
8.01984e-07
9.05448e-07
1.00988e-06
1.1147e-06
1.21936e-06
1.32335e-06
1.42616e-06
1.52732e-06
1.62639e-06
1.72291e-06
1.81649e-06
1.90672e-06
1.99324e-06
2.07569e-06
2.15374e-06
2.22709e-06
2.29544e-06
2.35853e-06
2.41613e-06
2.46801e-06
2.51399e-06
2.55389e-06
2.58758e-06
2.61493e-06
2.63585e-06
2.65027e-06
2.65815e-06
2.65947e-06
2.65425e-06
2.64249e-06
2.62427e-06
2.59967e-06
2.56878e-06
2.53174e-06
2.4887e-06
2.43982e-06
2.38531e-06
2.32537e-06
2.26025e-06
2.1902e-06
2.11549e-06
2.03643e-06
1.95333e-06
1.86651e-06
1.77633e-06
1.68315e-06
1.58735e-06
1.48934e-06
1.38952e-06
1.28834e-06
1.18623e-06
1.08368e-06
9.81163e-07
8.79203e-07
7.78336e-07
6.79139e-07
5.82226e-07
4.8827e-07
3.98015e-07
3.12316e-07
2.32187e-07
1.58906e-07
9.42287e-08
4.092e-08
4.54967e-09
5.43706e-09
4.89006e-08
1.12605e-07
1.89892e-07
2.77449e-07
3.73169e-07
4.75509e-07
5.83239e-07
6.9532e-07
8.10837e-07
9.28964e-07
1.04894e-06
1.17006e-06
1.29164e-06
1.41306e-06
1.5337e-06
1.65299e-06
1.77038e-06
1.88532e-06
1.99733e-06
2.1059e-06
2.2106e-06
2.31098e-06
2.40663e-06
2.49716e-06
2.58223e-06
2.66149e-06
2.73464e-06
2.8014e-06
2.86153e-06
2.91478e-06
2.96098e-06
2.99996e-06
3.03157e-06
3.05572e-06
3.07232e-06
3.08133e-06
3.08272e-06
3.07651e-06
3.06273e-06
3.04145e-06
3.01276e-06
2.97678e-06
2.93367e-06
2.8836e-06
2.82677e-06
2.7634e-06
2.69376e-06
2.61811e-06
2.53675e-06
2.45002e-06
2.35824e-06
2.26178e-06
2.16104e-06
2.05641e-06
1.94832e-06
1.83721e-06
1.72356e-06
1.60784e-06
1.49056e-06
1.37224e-06
1.25342e-06
1.13467e-06
1.0166e-06
8.99823e-07
7.85012e-07
6.72877e-07
5.64197e-07
4.59831e-07
3.60764e-07
2.68164e-07
1.83504e-07
1.08802e-07
4.72449e-08
5.25268e-09
6.18245e-09
5.56061e-08
1.28053e-07
2.15958e-07
3.15561e-07
4.24469e-07
5.40933e-07
6.63553e-07
7.91149e-07
9.22679e-07
1.0572e-06
1.19385e-06
1.33181e-06
1.47032e-06
1.60865e-06
1.7461e-06
1.88202e-06
2.01577e-06
2.14674e-06
2.27435e-06
2.39805e-06
2.51732e-06
2.63166e-06
2.7406e-06
2.8437e-06
2.94056e-06
3.03079e-06
3.11403e-06
3.18999e-06
3.25836e-06
3.3189e-06
3.37139e-06
3.41563e-06
3.45148e-06
3.47881e-06
3.49753e-06
3.5076e-06
3.50898e-06
3.50171e-06
3.48581e-06
3.46136e-06
3.42848e-06
3.3873e-06
3.338e-06
3.28078e-06
3.21587e-06
3.14354e-06
3.06406e-06
2.97776e-06
2.88498e-06
2.78608e-06
2.68146e-06
2.57154e-06
2.45675e-06
2.33756e-06
2.21446e-06
2.08795e-06
1.95857e-06
1.82685e-06
1.69339e-06
1.55877e-06
1.42362e-06
1.28858e-06
1.15433e-06
1.0216e-06
8.91125e-07
7.63728e-07
6.40287e-07
5.21777e-07
4.09313e-07
3.04217e-07
2.08153e-07
1.23407e-07
5.35834e-08
5.95722e-09
6.93058e-09
6.23361e-08
1.43557e-07
2.42117e-07
3.53806e-07
4.75946e-07
6.06576e-07
7.44131e-07
8.87286e-07
1.03487e-06
1.18583e-06
1.33919e-06
1.49404e-06
1.64951e-06
1.80478e-06
1.95907e-06
2.11164e-06
2.26176e-06
2.40876e-06
2.55199e-06
2.69081e-06
2.82464e-06
2.95292e-06
3.07513e-06
3.19076e-06
3.29936e-06
3.4005e-06
3.49379e-06
3.57887e-06
3.65543e-06
3.72317e-06
3.78186e-06
3.83128e-06
3.87126e-06
3.90167e-06
3.92242e-06
3.93345e-06
3.93473e-06
3.92629e-06
3.90817e-06
3.88046e-06
3.8433e-06
3.79683e-06
3.74127e-06
3.67683e-06
3.60378e-06
3.52241e-06
3.43305e-06
3.33605e-06
3.23181e-06
3.12073e-06
3.00326e-06
2.87986e-06
2.75104e-06
2.61731e-06
2.47922e-06
2.33734e-06
2.19227e-06
2.04461e-06
1.89503e-06
1.74418e-06
1.59277e-06
1.44152e-06
1.29119e-06
1.14258e-06
9.96543e-07
8.53978e-07
7.1587e-07
5.83309e-07
4.57536e-07
3.40027e-07
2.32637e-07
1.37914e-07
5.98795e-08
6.65706e-09
7.67709e-09
6.90514e-08
1.59026e-07
2.68216e-07
3.91961e-07
5.27298e-07
6.72055e-07
8.245e-07
9.83164e-07
1.14675e-06
1.31409e-06
1.4841e-06
1.65575e-06
1.8281e-06
2.00024e-06
2.17128e-06
2.3404e-06
2.5068e-06
2.66973e-06
2.82845e-06
2.98228e-06
3.13055e-06
3.27264e-06
3.40797e-06
3.53599e-06
3.65619e-06
3.76809e-06
3.87127e-06
3.96532e-06
4.04989e-06
4.12468e-06
4.18941e-06
4.24385e-06
4.28782e-06
4.32118e-06
4.34381e-06
4.35566e-06
4.3567e-06
4.34698e-06
4.32654e-06
4.29548e-06
4.25395e-06
4.20214e-06
4.14025e-06
4.06855e-06
3.98734e-06
3.89694e-06
3.79771e-06
3.69005e-06
3.5744e-06
3.4512e-06
3.32096e-06
3.1842e-06
3.04145e-06
2.89331e-06
2.74038e-06
2.58329e-06
2.4227e-06
2.25929e-06
2.09378e-06
1.92691e-06
1.75945e-06
1.59221e-06
1.42602e-06
1.26176e-06
1.10038e-06
9.42868e-07
7.9031e-07
6.43908e-07
5.05028e-07
3.75294e-07
2.56749e-07
1.52201e-07
6.60801e-08
7.34628e-09
8.4181e-09
7.57171e-08
1.7438e-07
2.9412e-07
4.29828e-07
5.78257e-07
7.37028e-07
9.04239e-07
1.07828e-06
1.25773e-06
1.44129e-06
1.62778e-06
1.81609e-06
2.00515e-06
2.19395e-06
2.38156e-06
2.56703e-06
2.74951e-06
2.92815e-06
3.10215e-06
3.27075e-06
3.43322e-06
3.58889e-06
3.73711e-06
3.87728e-06
4.00883e-06
4.13125e-06
4.24406e-06
4.34684e-06
4.43919e-06
4.52079e-06
4.59134e-06
4.65058e-06
4.69832e-06
4.73441e-06
4.75874e-06
4.77124e-06
4.7719e-06
4.76076e-06
4.73787e-06
4.70336e-06
4.6574e-06
4.60018e-06
4.53194e-06
4.45299e-06
4.36363e-06
4.26424e-06
4.15522e-06
4.037e-06
3.91005e-06
3.77489e-06
3.63205e-06
3.48211e-06
3.32567e-06
3.16336e-06
2.99584e-06
2.82382e-06
2.64801e-06
2.46915e-06
2.28804e-06
2.10548e-06
1.92232e-06
1.73942e-06
1.55772e-06
1.37817e-06
1.20179e-06
1.02967e-06
8.63002e-07
7.0308e-07
5.514e-07
4.09728e-07
2.80292e-07
1.6615e-07
7.21343e-08
8.01924e-09
9.1502e-09
8.23025e-08
1.89549e-07
3.19709e-07
4.67233e-07
6.2859e-07
8.01193e-07
9.82977e-07
1.17219e-06
1.36727e-06
1.56684e-06
1.76957e-06
1.97427e-06
2.17977e-06
2.38498e-06
2.58886e-06
2.7904e-06
2.98865e-06
3.18269e-06
3.37165e-06
3.5547e-06
3.73106e-06
3.89997e-06
4.06074e-06
4.21271e-06
4.35527e-06
4.48787e-06
4.60999e-06
4.72116e-06
4.82098e-06
4.90907e-06
4.98512e-06
5.04888e-06
5.10012e-06
5.1387e-06
5.16448e-06
5.17742e-06
5.1775e-06
5.16478e-06
5.13932e-06
5.10125e-06
5.05077e-06
4.9881e-06
4.91351e-06
4.82731e-06
4.72987e-06
4.62158e-06
4.50289e-06
4.37426e-06
4.23622e-06
4.08931e-06
3.93413e-06
3.7713e-06
3.60147e-06
3.42533e-06
3.2436e-06
3.05703e-06
2.86641e-06
2.67253e-06
2.47626e-06
2.27847e-06
2.08006e-06
1.88199e-06
1.68524e-06
1.49087e-06
1.29996e-06
1.1137e-06
9.3336e-07
7.6035e-07
5.96278e-07
4.43053e-07
3.03076e-07
1.7965e-07
7.79933e-08
8.67049e-09
9.87044e-09
8.87812e-08
2.04471e-07
3.44881e-07
5.04024e-07
6.78091e-07
8.64292e-07
1.06039e-06
1.2645e-06
1.47494e-06
1.6902e-06
1.90887e-06
2.12963e-06
2.35123e-06
2.57249e-06
2.79228e-06
3.00951e-06
3.22314e-06
3.43218e-06
3.6357e-06
3.83279e-06
4.0226e-06
4.20433e-06
4.37722e-06
4.54056e-06
4.69371e-06
4.83607e-06
4.96707e-06
5.08622e-06
5.19309e-06
5.28729e-06
5.36848e-06
5.4364e-06
5.4908e-06
5.53154e-06
5.5585e-06
5.57162e-06
5.5709e-06
5.55641e-06
5.5282e-06
5.48646e-06
5.43138e-06
5.36322e-06
5.28227e-06
5.18888e-06
5.08343e-06
4.96637e-06
4.83817e-06
4.69935e-06
4.55046e-06
4.3921e-06
4.22491e-06
4.04956e-06
3.86674e-06
3.67721e-06
3.48173e-06
3.28111e-06
3.07619e-06
2.86784e-06
2.65696e-06
2.4445e-06
2.23143e-06
2.01877e-06
1.80757e-06
1.59896e-06
1.39411e-06
1.19427e-06
1.00082e-06
8.15257e-07
6.39303e-07
4.75e-07
3.24917e-07
1.9259e-07
8.36096e-08
9.29478e-09
1.05763e-08
9.51307e-08
2.19095e-07
3.69548e-07
5.40074e-07
7.26589e-07
9.26102e-07
1.13622e-06
1.3549e-06
1.58035e-06
1.81094e-06
2.04516e-06
2.28159e-06
2.51889e-06
2.75577e-06
2.99103e-06
3.22348e-06
3.45203e-06
3.67561e-06
3.89319e-06
4.10382e-06
4.30658e-06
4.50061e-06
4.68511e-06
4.85932e-06
5.02254e-06
5.17413e-06
5.31351e-06
5.44015e-06
5.55359e-06
5.65343e-06
5.73931e-06
5.81095e-06
5.86812e-06
5.91065e-06
5.93844e-06
5.95144e-06
5.94965e-06
5.93314e-06
5.90202e-06
5.85646e-06
5.79669e-06
5.72299e-06
5.63568e-06
5.53515e-06
5.42181e-06
5.29613e-06
5.15864e-06
5.00988e-06
4.85045e-06
4.681e-06
4.5022e-06
4.31477e-06
4.11945e-06
3.91705e-06
3.70838e-06
3.4943e-06
3.27571e-06
3.05352e-06
2.8287e-06
2.60226e-06
2.37522e-06
2.14867e-06
1.92372e-06
1.70157e-06
1.48347e-06
1.27074e-06
1.06483e-06
8.67355e-07
6.80124e-07
5.05308e-07
3.45637e-07
2.04866e-07
8.89375e-08
9.88699e-09
1.12658e-08
1.01333e-07
2.33379e-07
3.93638e-07
5.75277e-07
7.73942e-07
9.86442e-07
1.21022e-06
1.44311e-06
1.68318e-06
1.92869e-06
2.17803e-06
2.42968e-06
2.6822e-06
2.93422e-06
3.18444e-06
3.43161e-06
3.67453e-06
3.91208e-06
4.14317e-06
4.36676e-06
4.58189e-06
4.78764e-06
4.98315e-06
5.16761e-06
5.3403e-06
5.50054e-06
5.64771e-06
5.78126e-06
5.90071e-06
6.00563e-06
6.09567e-06
6.17054e-06
6.23e-06
6.2739e-06
6.30212e-06
6.31463e-06
6.31145e-06
6.29267e-06
6.25841e-06
6.20886e-06
6.14429e-06
6.065e-06
5.97134e-06
5.86373e-06
5.74262e-06
5.60851e-06
5.46196e-06
5.30356e-06
5.13395e-06
4.95382e-06
4.76387e-06
4.56488e-06
4.35764e-06
4.14297e-06
3.92176e-06
3.69491e-06
3.46336e-06
3.22808e-06
2.9901e-06
2.75046e-06
2.51026e-06
2.27062e-06
2.03274e-06
1.79787e-06
1.56731e-06
1.34247e-06
1.12487e-06
9.16211e-07
7.18401e-07
5.33726e-07
3.65063e-07
2.16375e-07
9.39324e-08
1.04422e-08
1.19373e-08
1.07373e-07
2.47289e-07
4.17097e-07
6.09552e-07
8.20039e-07
1.04517e-06
1.28223e-06
1.52891e-06
1.78317e-06
2.04316e-06
2.30714e-06
2.57351e-06
2.84073e-06
3.10734e-06
3.37197e-06
3.63327e-06
3.88998e-06
4.14089e-06
4.38484e-06
4.62076e-06
4.84759e-06
5.06439e-06
5.27022e-06
5.46427e-06
5.64575e-06
5.81395e-06
5.96824e-06
6.10804e-06
6.23285e-06
6.34223e-06
6.43583e-06
6.51335e-06
6.57457e-06
6.61932e-06
6.64751e-06
6.65912e-06
6.65418e-06
6.63281e-06
6.59515e-06
6.54143e-06
6.47192e-06
6.38697e-06
6.28696e-06
6.17233e-06
6.04358e-06
5.90124e-06
5.7459e-06
5.57821e-06
5.39882e-06
5.20847e-06
5.00791e-06
4.79793e-06
4.57939e-06
4.35316e-06
4.12014e-06
3.8813e-06
3.6376e-06
3.39009e-06
3.13981e-06
2.88787e-06
2.6354e-06
2.3836e-06
2.13371e-06
1.88702e-06
1.64491e-06
1.40884e-06
1.18042e-06
9.61406e-07
7.53805e-07
5.60008e-07
3.83028e-07
2.27018e-07
9.85512e-08
1.09556e-08
1.25897e-08
1.13241e-07
2.60801e-07
4.39883e-07
6.42841e-07
8.64801e-07
1.10218e-06
1.35212e-06
1.61216e-06
1.88015e-06
2.15412e-06
2.43223e-06
2.71279e-06
2.99415e-06
3.27478e-06
3.5532e-06
3.828e-06
4.09784e-06
4.36144e-06
4.61757e-06
4.86509e-06
5.1029e-06
5.33e-06
5.54542e-06
5.74829e-06
5.9378e-06
6.11321e-06
6.27386e-06
6.41916e-06
6.5486e-06
6.66174e-06
6.75821e-06
6.83773e-06
6.90008e-06
6.9451e-06
6.97273e-06
6.98296e-06
6.97585e-06
6.95153e-06
6.91017e-06
6.85203e-06
6.77743e-06
6.68673e-06
6.58035e-06
6.45877e-06
6.32252e-06
6.17217e-06
6.00834e-06
5.83171e-06
5.64299e-06
5.44293e-06
5.23233e-06
5.01203e-06
4.7829e-06
4.54586e-06
4.30186e-06
4.05188e-06
3.79695e-06
3.53813e-06
3.27652e-06
3.01327e-06
2.74955e-06
2.48661e-06
2.22571e-06
1.96823e-06
1.71557e-06
1.46927e-06
1.23098e-06
1.00253e-06
7.86016e-07
5.83916e-07
3.9937e-07
2.36698e-07
1.02752e-07
1.14225e-08
1.32223e-08
1.1893e-07
2.73903e-07
4.61974e-07
6.75108e-07
9.08179e-07
1.15742e-06
1.41981e-06
1.69276e-06
1.974e-06
2.26144e-06
2.55315e-06
2.84733e-06
3.14224e-06
3.43626e-06
3.72783e-06
4.01546e-06
4.29773e-06
4.57329e-06
4.84085e-06
5.0992e-06
5.3472e-06
5.58379e-06
5.80798e-06
6.01883e-06
6.21553e-06
6.3973e-06
6.56348e-06
6.71345e-06
6.84671e-06
6.96281e-06
7.06139e-06
7.14218e-06
7.20496e-06
7.24961e-06
7.27608e-06
7.28438e-06
7.27461e-06
7.24692e-06
7.20152e-06
7.1387e-06
7.05881e-06
6.96225e-06
6.84947e-06
6.721e-06
6.57738e-06
6.41924e-06
6.24723e-06
6.06207e-06
5.86448e-06
5.65527e-06
5.43527e-06
5.20534e-06
4.9664e-06
4.71939e-06
4.46529e-06
4.20512e-06
3.93994e-06
3.67085e-06
3.39898e-06
3.1255e-06
2.85164e-06
2.57867e-06
2.3079e-06
2.04073e-06
1.77863e-06
1.52318e-06
1.27607e-06
1.0392e-06
8.14726e-07
6.05223e-07
4.1393e-07
2.45323e-07
1.06495e-07
1.18385e-08
1.38349e-08
1.2444e-07
2.86588e-07
4.8336e-07
7.06341e-07
9.50158e-07
1.21086e-06
1.48526e-06
1.77067e-06
2.06466e-06
2.36506e-06
2.66982e-06
2.97703e-06
3.28489e-06
3.59166e-06
3.8957e-06
4.19545e-06
4.4894e-06
4.77615e-06
5.05433e-06
5.32269e-06
5.58003e-06
5.82524e-06
6.05729e-06
6.27523e-06
6.4782e-06
6.66542e-06
6.8362e-06
6.98994e-06
7.12611e-06
7.24429e-06
7.34413e-06
7.42536e-06
7.4878e-06
7.53135e-06
7.55598e-06
7.56174e-06
7.54876e-06
7.51722e-06
7.46738e-06
7.39956e-06
7.31415e-06
7.21158e-06
7.09236e-06
6.95703e-06
6.80619e-06
6.6405e-06
6.46063e-06
6.26734e-06
6.06141e-06
5.84364e-06
5.61491e-06
5.37612e-06
5.1282e-06
4.87211e-06
4.60888e-06
4.33955e-06
4.0652e-06
3.78696e-06
3.50598e-06
3.22346e-06
2.94066e-06
2.65886e-06
2.37943e-06
2.1038e-06
1.83345e-06
1.57001e-06
1.31522e-06
1.07102e-06
8.39641e-07
6.23708e-07
4.26561e-07
2.52803e-07
1.09741e-07
1.21993e-08
1.44277e-08
1.29772e-07
2.98863e-07
5.04051e-07
7.36551e-07
9.9075e-07
1.26251e-06
1.54851e-06
1.8459e-06
2.15216e-06
2.46498e-06
2.78223e-06
3.1019e-06
3.42206e-06
3.74092e-06
4.05673e-06
4.36786e-06
4.67273e-06
4.96986e-06
5.25782e-06
5.53531e-06
5.80108e-06
6.05398e-06
6.29293e-06
6.51698e-06
6.72522e-06
6.91689e-06
7.09127e-06
7.24777e-06
7.38587e-06
7.50517e-06
7.60532e-06
7.6861e-06
7.74734e-06
7.78897e-06
7.811e-06
7.81353e-06
7.79672e-06
7.7608e-06
7.70606e-06
7.63288e-06
7.54168e-06
7.43293e-06
7.30719e-06
7.16503e-06
7.0071e-06
6.83408e-06
6.64669e-06
6.44572e-06
6.23196e-06
6.00628e-06
5.76955e-06
5.52269e-06
5.26668e-06
5.00249e-06
4.73117e-06
4.45378e-06
4.17141e-06
3.88521e-06
3.59636e-06
3.30607e-06
3.01561e-06
2.7263e-06
2.43952e-06
2.15671e-06
1.8794e-06
1.60924e-06
1.34799e-06
1.09765e-06
8.60478e-07
6.39162e-07
4.37117e-07
2.59055e-07
1.12453e-07
1.25007e-08
1.50014e-08
1.34931e-07
3.1074e-07
5.24067e-07
7.65771e-07
1.03e-06
1.31244e-06
1.60961e-06
1.91854e-06
2.23658e-06
2.56131e-06
2.89049e-06
3.22201e-06
3.55385e-06
3.88412e-06
4.211e-06
4.53275e-06
4.84773e-06
5.15439e-06
5.45126e-06
5.73696e-06
6.01019e-06
6.26978e-06
6.51462e-06
6.74371e-06
6.95617e-06
7.1512e-06
7.3281e-06
7.48628e-06
7.62524e-06
7.74459e-06
7.84403e-06
7.92335e-06
7.98244e-06
8.02126e-06
8.03986e-06
8.0384e-06
8.01707e-06
7.97616e-06
7.91601e-06
7.83705e-06
7.73973e-06
7.6246e-06
7.49223e-06
7.34325e-06
7.17835e-06
6.99823e-06
6.80367e-06
6.59547e-06
6.37445e-06
6.14151e-06
5.89753e-06
5.64348e-06
5.38032e-06
5.10906e-06
4.83075e-06
4.54646e-06
4.2573e-06
3.96443e-06
3.66902e-06
3.37232e-06
3.07558e-06
2.78015e-06
2.48741e-06
2.19882e-06
1.91592e-06
1.64037e-06
1.37398e-06
1.11875e-06
8.76973e-07
6.5139e-07
4.45467e-07
2.63997e-07
1.14597e-07
1.2739e-08
1.5557e-08
1.39927e-07
3.22241e-07
5.43448e-07
7.94055e-07
1.06798e-06
1.36073e-06
1.66867e-06
1.9887e-06
2.31805e-06
2.65419e-06
2.99476e-06
3.33754e-06
3.68044e-06
4.02144e-06
4.35865e-06
4.69026e-06
5.01454e-06
5.32987e-06
5.63472e-06
5.92765e-06
6.20735e-06
6.47257e-06
6.72221e-06
6.95524e-06
7.17077e-06
7.368e-06
7.54625e-06
7.70493e-06
7.84359e-06
7.96185e-06
8.05945e-06
8.13623e-06
8.19213e-06
8.22715e-06
8.24139e-06
8.23509e-06
8.20849e-06
8.16192e-06
8.09579e-06
8.01057e-06
7.90679e-06
7.78502e-06
7.64589e-06
7.49008e-06
7.31831e-06
7.13133e-06
6.92994e-06
6.71497e-06
6.48728e-06
6.24777e-06
5.99736e-06
5.73701e-06
5.4677e-06
5.19045e-06
4.90632e-06
4.61637e-06
4.32172e-06
4.02352e-06
3.72296e-06
3.42127e-06
3.11972e-06
2.81963e-06
2.52241e-06
2.2295e-06
1.94246e-06
1.66295e-06
1.39279e-06
1.134e-06
8.88882e-07
6.60209e-07
4.51485e-07
2.67558e-07
1.16141e-07
1.29106e-08
1.60959e-08
1.44774e-07
3.33397e-07
5.62243e-07
8.21477e-07
1.10479e-06
1.4075e-06
1.72584e-06
2.05656e-06
2.39678e-06
2.74384e-06
3.09527e-06
3.44876e-06
3.80208e-06
4.15315e-06
4.49998e-06
4.84066e-06
5.1734e-06
5.4965e-06
5.80838e-06
6.10756e-06
6.39266e-06
6.66242e-06
6.91571e-06
7.15149e-06
7.36887e-06
7.56706e-06
7.7454e-06
7.90333e-06
8.04042e-06
8.15635e-06
8.25091e-06
8.32398e-06
8.37555e-06
8.40568e-06
8.41458e-06
8.40252e-06
8.3698e-06
8.31684e-06
8.24409e-06
8.1521e-06
8.04144e-06
7.91274e-06
7.7667e-06
7.60403e-06
7.42549e-06
7.23187e-06
7.02401e-06
6.80275e-06
6.56899e-06
6.32363e-06
6.06762e-06
5.80191e-06
5.5275e-06
5.24541e-06
4.95667e-06
4.66236e-06
4.36359e-06
4.06149e-06
3.75725e-06
3.45207e-06
3.14723e-06
2.84404e-06
2.54388e-06
2.2482e-06
1.95854e-06
1.67657e-06
1.40409e-06
1.14312e-06
8.95985e-07
6.65458e-07
4.5506e-07
2.69672e-07
1.17057e-07
1.30124e-08
1.66201e-08
1.49488e-07
3.44245e-07
5.80516e-07
8.48129e-07
1.14054e-06
1.45291e-06
1.78131e-06
2.12235e-06
2.47302e-06
2.83055e-06
3.19234e-06
3.55598e-06
3.91913e-06
4.27961e-06
4.63533e-06
4.9843e-06
5.32466e-06
5.65463e-06
5.97257e-06
6.27695e-06
6.56635e-06
6.8395e-06
7.09522e-06
7.33251e-06
7.55045e-06
7.74829e-06
7.92537e-06
8.0812e-06
8.21538e-06
8.32765e-06
8.41785e-06
8.48593e-06
8.53196e-06
8.55604e-06
8.55852e-06
8.53969e-06
8.49995e-06
8.43979e-06
8.35973e-06
8.26038e-06
8.1424e-06
8.00646e-06
7.85332e-06
7.68373e-06
7.49851e-06
7.29848e-06
7.0845e-06
6.85746e-06
6.61825e-06
6.3678e-06
6.10706e-06
5.83698e-06
5.55856e-06
5.2728e-06
4.98074e-06
4.68343e-06
4.38196e-06
4.07745e-06
3.77106e-06
3.46397e-06
3.15744e-06
2.85276e-06
2.55128e-06
2.25443e-06
1.96374e-06
1.68085e-06
1.40756e-06
1.14587e-06
8.98093e-07
6.66996e-07
4.56098e-07
2.70281e-07
1.1732e-07
1.30416e-08
1.71316e-08
1.54088e-07
3.54828e-07
5.9834e-07
8.74117e-07
1.1754e-06
1.49715e-06
1.8353e-06
2.18632e-06
2.54707e-06
2.91464e-06
3.28633e-06
3.6596e-06
4.032e-06
4.40125e-06
4.76516e-06
5.12165e-06
5.46877e-06
5.80468e-06
6.12768e-06
6.43619e-06
6.72876e-06
7.00408e-06
7.26098e-06
7.49844e-06
7.71558e-06
7.91166e-06
8.08608e-06
8.23836e-06
8.3682e-06
8.47537e-06
8.55981e-06
8.62155e-06
8.6607e-06
8.67751e-06
8.6724e-06
8.64573e-06
8.59799e-06
8.52976e-06
8.44165e-06
8.33433e-06
8.20852e-06
8.06499e-06
7.90452e-06
7.72796e-06
7.53613e-06
7.32992e-06
7.11021e-06
6.8779e-06
6.6339e-06
6.37914e-06
6.11457e-06
5.84115e-06
5.55985e-06
5.27167e-06
4.97761e-06
4.67871e-06
4.37603e-06
4.07066e-06
3.76371e-06
3.45636e-06
3.1498e-06
2.84529e-06
2.54416e-06
2.24781e-06
1.95773e-06
1.67553e-06
1.40298e-06
1.14206e-06
8.95059e-07
6.64714e-07
4.54523e-07
2.69342e-07
1.16911e-07
1.29961e-08
1.76328e-08
1.58594e-07
3.65197e-07
6.15799e-07
8.99564e-07
1.2095e-06
1.54042e-06
1.88806e-06
2.24877e-06
2.61926e-06
2.9965e-06
3.37766e-06
3.76006e-06
4.14117e-06
4.51857e-06
4.88997e-06
5.2532e-06
5.60623e-06
5.94715e-06
6.2742e-06
6.58573e-06
6.88028e-06
7.15651e-06
7.41327e-06
7.64952e-06
7.86442e-06
8.05726e-06
8.22749e-06
8.37471e-06
8.49867e-06
8.59924e-06
8.67642e-06
8.73036e-06
8.76122e-06
8.76946e-06
8.75551e-06
8.71985e-06
8.66308e-06
8.58584e-06
8.48886e-06
8.3729e-06
8.23876e-06
8.08728e-06
7.91929e-06
7.73569e-06
7.53736e-06
7.32521e-06
7.10014e-06
6.86309e-06
6.61497e-06
6.35671e-06
6.08926e-06
5.81356e-06
5.53057e-06
5.24125e-06
4.94657e-06
4.64755e-06
4.34518e-06
4.04054e-06
3.73468e-06
3.42872e-06
3.12383e-06
2.82122e-06
2.52217e-06
2.22802e-06
1.94023e-06
1.66036e-06
1.39015e-06
1.13154e-06
8.86758e-07
6.58522e-07
4.50275e-07
2.66819e-07
1.15815e-07
1.28741e-08
1.81262e-08
1.63031e-07
3.75403e-07
6.32979e-07
9.24596e-07
1.24304e-06
1.58293e-06
1.93985e-06
2.31e-06
2.68995e-06
3.07652e-06
3.46676e-06
3.85785e-06
4.24714e-06
4.63209e-06
5.01031e-06
5.37953e-06
5.73761e-06
6.08259e-06
6.41263e-06
6.72606e-06
7.02136e-06
7.29721e-06
7.55242e-06
7.78601e-06
7.99715e-06
8.18519e-06
8.34964e-06
8.49018e-06
8.60664e-06
8.69899e-06
8.76735e-06
8.81195e-06
8.83304e-06
8.83132e-06
8.80721e-06
8.76135e-06
8.69444e-06
8.60726e-06
8.50061e-06
8.37534e-06
8.23235e-06
8.07252e-06
7.89678e-06
7.70608e-06
7.50133e-06
7.28348e-06
7.05347e-06
6.81224e-06
6.5607e-06
6.2998e-06
6.03044e-06
5.75357e-06
5.47009e-06
5.18094e-06
4.88707e-06
4.58941e-06
4.28894e-06
3.98664e-06
3.68355e-06
3.38072e-06
3.07925e-06
2.78028e-06
2.48505e-06
2.19485e-06
1.91106e-06
1.63521e-06
1.36896e-06
1.1142e-06
8.73123e-07
6.48369e-07
4.4332e-07
2.62693e-07
1.14023e-07
1.26749e-08
1.86145e-08
1.67421e-07
3.85501e-07
6.49974e-07
9.4935e-07
1.27619e-06
1.62491e-06
1.99096e-06
2.37035e-06
2.75952e-06
3.15514e-06
3.55411e-06
3.95348e-06
4.35046e-06
4.7424e-06
5.12677e-06
5.50121e-06
5.86349e-06
6.21157e-06
6.54354e-06
6.85769e-06
7.15248e-06
7.42657e-06
7.67879e-06
7.90818e-06
8.11397e-06
8.29556e-06
8.45256e-06
8.58471e-06
8.69197e-06
8.77442e-06
8.83229e-06
8.86585e-06
8.87572e-06
8.86255e-06
8.82693e-06
8.76963e-06
8.69149e-06
8.59336e-06
8.47619e-06
8.34091e-06
8.18851e-06
8.01997e-06
7.83628e-06
7.63842e-06
7.42738e-06
7.20413e-06
6.96962e-06
6.72481e-06
6.47061e-06
6.20794e-06
5.9377e-06
5.66079e-06
5.37809e-06
5.09048e-06
4.79885e-06
4.5041e-06
4.20712e-06
3.90885e-06
3.61023e-06
3.31226e-06
3.01597e-06
2.72243e-06
2.43279e-06
2.14828e-06
1.87022e-06
1.60006e-06
1.3394e-06
1.09006e-06
8.54155e-07
6.34258e-07
4.3366e-07
2.56965e-07
1.11536e-07
1.23984e-08
1.91002e-08
1.71788e-07
3.95546e-07
6.66875e-07
9.73958e-07
1.30912e-06
1.6666e-06
2.04165e-06
2.43015e-06
2.82834e-06
3.23277e-06
3.64017e-06
4.04744e-06
4.45166e-06
4.85003e-06
5.23991e-06
5.61883e-06
5.98445e-06
6.33464e-06
6.66745e-06
6.98111e-06
7.27407e-06
7.54498e-06
7.79269e-06
8.01629e-06
8.21505e-06
8.38847e-06
8.53624e-06
8.65822e-06
8.75449e-06
8.82526e-06
8.87087e-06
8.89174e-06
8.88883e-06
8.8627e-06
8.81417e-06
8.74415e-06
8.6536e-06
8.54353e-06
8.41498e-06
8.26901e-06
8.1067e-06
7.9291e-06
7.73727e-06
7.53227e-06
7.31511e-06
7.08679e-06
6.84828e-06
6.60053e-06
6.34446e-06
6.08097e-06
5.81092e-06
5.53516e-06
5.25453e-06
4.96986e-06
4.68197e-06
4.39168e-06
4.09982e-06
3.80725e-06
3.51483e-06
3.22348e-06
2.93412e-06
2.64778e-06
2.3655e-06
2.08843e-06
1.81782e-06
1.55502e-06
1.30156e-06
1.05918e-06
8.29916e-07
6.16236e-07
4.21328e-07
2.49655e-07
1.08362e-07
1.20456e-08
1.95859e-08
1.76155e-07
4.05589e-07
6.8377e-07
9.98551e-07
1.34202e-06
1.70821e-06
2.0922e-06
2.4897e-06
2.89678e-06
3.30982e-06
3.72538e-06
4.14022e-06
4.55125e-06
4.95553e-06
5.35029e-06
5.73292e-06
6.10101e-06
6.45232e-06
6.78484e-06
7.09676e-06
7.38652e-06
7.65276e-06
7.89438e-06
8.1105e-06
8.30048e-06
8.46391e-06
8.6006e-06
8.71054e-06
8.79395e-06
8.8512e-06
8.88264e-06
8.88928e-06
8.87187e-06
8.83123e-06
8.76836e-06
8.68433e-06
8.58024e-06
8.45724e-06
8.31651e-06
8.15921e-06
7.98651e-06
7.79957e-06
7.5995e-06
7.38742e-06
7.16437e-06
6.93138e-06
6.68944e-06
6.43948e-06
6.18241e-06
5.91908e-06
5.65034e-06
5.37696e-06
5.09975e-06
4.81944e-06
4.5368e-06
4.25255e-06
3.96745e-06
3.68226e-06
3.39776e-06
3.11476e-06
2.8341e-06
2.5567e-06
2.28352e-06
2.01561e-06
1.75413e-06
1.50033e-06
1.25566e-06