/*--------------------------------*- C++ -*----------------------------------*\
  =========                 |
  \\      /  F ield         | OpenFOAM: The Open Source CFD Toolbox
   \\    /   O peration     | Website:  https://openfoam.org
    \\  /    A nd           | Version:  12
     \\/     M anipulation  |
\*---------------------------------------------------------------------------*/
FoamFile
{
    format      ascii;
    class       volScalarField;
    location    "2";
    object      nut;
}
// * * * * * * * * * * * * * * * * * * * * * * * * * * * * * * * * * * * * * //

dimensions      [0 2 -1 0 0 0 0];

internalField   nonuniform List<scalar> 
5625
(
1.07063e-15
3.23466e-14
6.8547e-14
1.11735e-13
1.60356e-13
2.13232e-13
2.69505e-13
3.28508e-13
3.89694e-13
4.52589e-13
5.16767e-13
5.81839e-13
6.47437e-13
7.13217e-13
7.78849e-13
8.4402e-13
9.08429e-13
9.71786e-13
1.03381e-12
1.09425e-12
1.15284e-12
1.20933e-12
1.26351e-12
1.31515e-12
1.36405e-12
1.41002e-12
1.45287e-12
1.49246e-12
1.52861e-12
1.56121e-12
1.59012e-12
1.61524e-12
1.63649e-12
1.65378e-12
1.66705e-12
1.67627e-12
1.6814e-12
1.68243e-12
1.67936e-12
1.6722e-12
1.661e-12
1.6458e-12
1.62666e-12
1.60366e-12
1.57689e-12
1.54645e-12
1.51248e-12
1.47509e-12
1.43444e-12
1.39069e-12
1.344e-12
1.29456e-12
1.24256e-12
1.18822e-12
1.13173e-12
1.07334e-12
1.01327e-12
9.51782e-13
8.89117e-13
8.25548e-13
7.61349e-13
6.96808e-13
6.32224e-13
5.67908e-13
5.04188e-13
4.4141e-13
3.79947e-13
3.20203e-13
2.6263e-13
2.07752e-13
1.56209e-13
1.08832e-13
6.67599e-14
3.15012e-14
1.0426e-15
7.24178e-15
1.05778e-12
5.64907e-12
1.32084e-11
2.22044e-11
3.19192e-11
4.20962e-11
5.26251e-11
6.34364e-11
7.44711e-11
8.56736e-11
9.69893e-11
1.08364e-10
1.19747e-10
1.31085e-10
1.42328e-10
1.53428e-10
1.64337e-10
1.7501e-10
1.85403e-10
1.95473e-10
2.05179e-10
2.14484e-10
2.2335e-10
2.31743e-10
2.39631e-10
2.46983e-10
2.53772e-10
2.59972e-10
2.65561e-10
2.70517e-10
2.74823e-10
2.78463e-10
2.81425e-10
2.83699e-10
2.85276e-10
2.86153e-10
2.86326e-10
2.85796e-10
2.84566e-10
2.82643e-10
2.80033e-10
2.76749e-10
2.72802e-10
2.6821e-10
2.6299e-10
2.57162e-10
2.50749e-10
2.43776e-10
2.36269e-10
2.28259e-10
2.19775e-10
2.10851e-10
2.01521e-10
1.91821e-10
1.8179e-10
1.71467e-10
1.60892e-10
1.50109e-10
1.39161e-10
1.28093e-10
1.16952e-10
1.05784e-10
9.46389e-11
8.35656e-11
7.26146e-11
6.18375e-11
5.12867e-11
4.10178e-11
3.10971e-11
2.16301e-11
1.28657e-11
5.50212e-12
1.03018e-12
7.05218e-15
1.61016e-14
2.64879e-12
1.80939e-11
5.40897e-11
1.0931e-10
1.78038e-10
2.5512e-10
3.3722e-10
4.22393e-10
5.09487e-10
5.97755e-10
6.86651e-10
7.75728e-10
8.64589e-10
9.52859e-10
1.04018e-09
1.12622e-09
1.21062e-09
1.29307e-09
1.37325e-09
1.45084e-09
1.52557e-09
1.59713e-09
1.66527e-09
1.72974e-09
1.79028e-09
1.84668e-09
1.89874e-09
1.94626e-09
1.98907e-09
2.02702e-09
2.05999e-09
2.08784e-09
2.1105e-09
2.12788e-09
2.13992e-09
2.1466e-09
2.1479e-09
2.14382e-09
2.13439e-09
2.11964e-09
2.09964e-09
2.07448e-09
2.04425e-09
2.00908e-09
1.96909e-09
1.92444e-09
1.8753e-09
1.82185e-09
1.7643e-09
1.70286e-09
1.63777e-09
1.56925e-09
1.49757e-09
1.42299e-09
1.34579e-09
1.26625e-09
1.18467e-09
1.10136e-09
1.01662e-09
9.30766e-10
8.44133e-10
7.57052e-10
6.69871e-10
5.82964e-10
4.96753e-10
4.11751e-10
3.28671e-10
2.48622e-10
1.73486e-10
1.06503e-10
5.26933e-11
1.76235e-11
2.57941e-12
1.56778e-14
2.66388e-14
4.49159e-12
3.27678e-11
1.07739e-10
2.40981e-10
4.3005e-10
6.64334e-10
9.31573e-10
1.22131e-09
1.52571e-09
1.83918e-09
2.15774e-09
2.47849e-09
2.79917e-09
3.11795e-09
3.43327e-09
3.74373e-09
4.04806e-09
4.34505e-09
4.63357e-09
4.91254e-09
5.18094e-09
5.43777e-09
5.68213e-09
5.91312e-09
6.12993e-09
6.3318e-09
6.518e-09
6.68789e-09
6.84089e-09
6.97647e-09
7.09417e-09
7.19361e-09
7.27445e-09
7.33645e-09
7.37941e-09
7.40323e-09
7.40784e-09
7.39327e-09
7.35961e-09
7.30701e-09
7.23568e-09
7.14593e-09
7.03809e-09
6.91258e-09
6.76988e-09
6.6105e-09
6.43505e-09
6.24415e-09
6.03851e-09
5.81885e-09
5.58597e-09
5.3407e-09
5.08392e-09
4.81652e-09
4.53947e-09
4.25376e-09
3.9604e-09
3.66049e-09
3.35515e-09
3.04557e-09
2.73308e-09
2.41913e-09
2.10545e-09
1.79418e-09
1.48809e-09
1.19101e-09
9.08331e-10
6.47662e-10
4.1918e-10
2.3483e-10
1.04955e-10
3.19101e-11
4.37272e-12
2.59295e-14
3.83845e-14
6.52663e-12
4.87594e-11
1.66703e-10
3.91601e-10
7.36316e-10
1.19589e-09
1.75405e-09
2.39029e-09
3.08466e-09
3.81998e-09
4.58236e-09
5.36082e-09
6.14676e-09
6.93328e-09
7.71479e-09
8.48657e-09
9.24456e-09
9.98516e-09
1.07051e-08
1.14015e-08
1.20716e-08
1.27128e-08
1.33227e-08
1.38992e-08
1.44402e-08
1.49437e-08
1.54081e-08
1.58317e-08
1.62131e-08
1.6551e-08
1.68443e-08
1.70921e-08
1.72936e-08
1.74482e-08
1.75554e-08
1.76149e-08
1.76267e-08
1.75908e-08
1.75074e-08
1.73769e-08
1.71998e-08
1.69769e-08
1.6709e-08
1.63971e-08
1.60424e-08
1.56461e-08
1.52097e-08
1.47348e-08
1.42231e-08
1.36763e-08
1.30964e-08
1.24855e-08
1.18458e-08
1.11795e-08
1.04891e-08
9.7773e-09
9.0468e-09
8.3007e-09
7.54237e-09
6.77563e-09
6.00493e-09
5.23559e-09
4.47419e-09
3.72899e-09
3.01057e-09
2.33239e-09
1.71115e-09
1.16628e-09
7.17811e-10
3.81582e-10
1.62355e-10
4.74639e-11
6.35083e-12
3.73431e-14
5.10443e-14
8.71168e-12
6.57839e-11
2.29098e-10
5.51782e-10
1.06815e-09
1.78889e-09
2.70408e-09
3.79019e-09
5.0173e-09
6.3546e-09
7.7735e-09
9.24899e-09
1.07599e-08
1.22886e-08
1.38202e-08
1.53424e-08
1.68447e-08
1.83179e-08
1.9754e-08
2.1146e-08
2.24875e-08
2.37728e-08
2.49965e-08
2.61538e-08
2.72405e-08
2.82523e-08
2.91858e-08
3.00375e-08
3.08046e-08
3.14844e-08
3.20747e-08
3.25736e-08
3.29794e-08
3.3291e-08
3.35075e-08
3.36283e-08
3.36533e-08
3.35825e-08
3.34163e-08
3.31556e-08
3.28015e-08
3.23553e-08
3.18189e-08
3.11941e-08
3.04834e-08
2.96893e-08
2.88149e-08
2.78631e-08
2.68376e-08
2.57421e-08
2.45805e-08
2.33574e-08
2.20773e-08
2.07454e-08
1.93672e-08
1.79486e-08
1.64965e-08
1.50184e-08
1.35228e-08
1.20198e-08
1.05212e-08
9.04117e-09
7.59669e-09
6.20827e-09
4.90022e-09
3.70038e-09
2.63886e-09
1.74482e-09
1.04119e-09
5.37482e-10
2.23005e-10
6.39943e-11
8.47086e-12
4.96221e-14
6.44029e-14
1.1013e-11
8.36272e-11
2.94114e-10
7.18207e-10
1.41399e-09
2.41306e-09
3.71972e-09
5.31583e-09
7.16826e-09
9.23613e-09
1.14765e-08
1.38479e-08
1.63125e-08
1.88368e-08
2.13915e-08
2.39513e-08
2.64942e-08
2.90013e-08
3.1456e-08
3.38436e-08
3.61511e-08
3.8367e-08
4.04807e-08
4.24829e-08
4.43652e-08
4.61198e-08
4.774e-08
4.92196e-08
5.0553e-08
5.17357e-08
5.27633e-08
5.36324e-08
5.43403e-08
5.48845e-08
5.52636e-08
5.54765e-08
5.55229e-08
5.5403e-08
5.51174e-08
5.46676e-08
5.40555e-08
5.32837e-08
5.23551e-08
5.12735e-08
5.0043e-08
4.86682e-08
4.71545e-08
4.55076e-08
4.37339e-08
4.18405e-08
3.98349e-08
3.77253e-08
3.55211e-08
3.32321e-08
3.08694e-08
2.84454e-08
2.59739e-08
2.34708e-08
2.09541e-08
1.84448e-08
1.59672e-08
1.35498e-08
1.1225e-08
9.02985e-09
7.00467e-09
5.19149e-09
3.63025e-09
2.35318e-09
1.37771e-09
6.99145e-10
2.86058e-10
8.12761e-11
1.06978e-11
6.25441e-14
7.82891e-14
1.34026e-11
1.02101e-10
3.61144e-10
8.89136e-10
1.76864e-09
3.05435e-09
4.76909e-09
6.90611e-09
9.43548e-09
1.23118e-08
1.54813e-08
1.88874e-08
2.24749e-08
2.61919e-08
2.99911e-08
3.383e-08
3.7671e-08
4.14807e-08
4.52297e-08
4.88918e-08
5.24438e-08
5.58649e-08
5.91368e-08
6.22429e-08
6.51683e-08
6.78997e-08
7.04252e-08
7.27344e-08
7.48179e-08
7.66676e-08
7.82765e-08
7.96388e-08
8.07496e-08
8.16052e-08
8.22029e-08
8.2541e-08
8.26187e-08
8.24365e-08
8.19954e-08
8.12975e-08
8.03461e-08
7.91452e-08
7.76999e-08
7.6016e-08
7.41004e-08
7.19609e-08
6.96062e-08
6.70461e-08
6.42914e-08
6.1354e-08
5.8247e-08
5.49848e-08
5.15835e-08
4.80607e-08
4.44362e-08
4.07323e-08
3.69739e-08
3.31891e-08
2.94102e-08
2.56734e-08
2.20199e-08
1.84958e-08
1.51519e-08
1.20423e-08
9.22225e-09
6.74443e-09
4.65307e-09
2.97696e-09
1.72192e-09
8.64692e-10
3.50852e-10
9.91063e-11
1.30018e-11
7.59269e-14
9.25591e-14
1.58567e-11
1.21038e-10
4.29649e-10
1.06325e-09
2.12897e-09
3.70527e-09
5.83539e-09
8.52733e-09
1.17588e-08
1.54846e-08
1.96444e-08
2.41694e-08
2.89885e-08
3.40315e-08
3.92317e-08
4.45272e-08
4.98617e-08
5.51841e-08
6.04483e-08
6.56134e-08
7.06423e-08
7.5502e-08
8.0163e-08
8.45986e-08
8.87853e-08
9.27016e-08
9.63288e-08
9.96502e-08
1.02651e-07
1.05318e-07
1.07641e-07
1.0961e-07
1.11218e-07
1.12459e-07
1.13328e-07
1.13823e-07
1.13943e-07
1.13688e-07
1.13059e-07
1.1206e-07
1.10695e-07
1.08971e-07
1.06895e-07
1.04477e-07
1.01726e-07
9.86552e-08
9.52777e-08
9.1609e-08
8.76658e-08
8.34669e-08
7.90333e-08
7.4388e-08
6.95566e-08
6.45675e-08
5.94525e-08
5.4247e-08
4.89906e-08
4.37276e-08
3.85075e-08
3.33851e-08
2.84211e-08
2.36805e-08
1.92325e-08
1.5147e-08
1.14913e-08
8.32425e-09
5.68957e-09
3.60804e-09
2.07034e-09
1.03263e-09
4.16776e-10
1.17297e-10
1.53566e-11
8.96126e-14
1.07089e-13
1.83543e-11
1.40285e-10
4.99132e-10
1.2394e-09
2.49257e-09
4.36087e-09
6.90853e-09
1.01599e-08
1.41028e-08
1.86954e-08
2.38742e-08
2.95615e-08
3.56723e-08
4.21195e-08
4.88173e-08
5.56839e-08
6.26426e-08
6.96227e-08
7.65594e-08
8.33939e-08
9.00727e-08
9.65478e-08
1.02776e-07
1.08718e-07
1.14338e-07
1.19606e-07
1.24494e-07
1.28976e-07
1.33031e-07
1.36641e-07
1.39788e-07
1.42459e-07
1.44643e-07
1.46332e-07
1.47518e-07
1.48197e-07
1.48368e-07
1.48031e-07
1.47188e-07
1.45844e-07
1.44004e-07
1.41679e-07
1.38879e-07
1.35616e-07
1.31907e-07
1.27768e-07
1.2322e-07
1.18284e-07
1.12986e-07
1.07353e-07
1.01416e-07
9.5209e-08
8.87695e-08
8.21396e-08
7.53657e-08
6.84993e-08
6.15974e-08
5.4723e-08
4.79451e-08
4.13388e-08
3.49845e-08
2.89666e-08
2.33711e-08
1.82814e-08
1.37736e-08
9.90935e-09
6.72838e-09
4.24066e-09
2.4201e-09
1.20156e-09
4.83246e-10
1.35673e-10
1.7738e-11
1.03459e-13
1.2177e-13
2.0877e-11
1.59707e-10
5.69135e-10
1.41649e-09
2.85733e-09
5.01726e-09
7.98139e-09
1.17908e-08
1.64448e-08
2.19068e-08
2.81123e-08
3.4977e-08
4.24045e-08
5.02924e-08
5.85368e-08
6.70364e-08
7.56941e-08
8.44185e-08
9.31248e-08
1.01735e-07
1.10177e-07
1.18386e-07
1.26302e-07
1.33873e-07
1.41049e-07
1.47788e-07
1.54051e-07
1.59803e-07
1.65014e-07
1.69658e-07
1.73712e-07
1.77156e-07
1.79976e-07
1.82159e-07
1.83696e-07
1.84581e-07
1.8481e-07
1.84385e-07
1.83308e-07
1.81584e-07
1.79224e-07
1.76238e-07
1.72642e-07
1.68454e-07
1.63694e-07
1.58386e-07
1.52558e-07
1.46241e-07
1.39468e-07
1.32277e-07
1.24713e-07
1.1682e-07
1.08652e-07
1.00266e-07
9.17249e-08
8.30982e-08
7.44622e-08
6.58999e-08
5.75009e-08
4.93608e-08
4.15798e-08
3.42602e-08
2.75031e-08
2.14035e-08
1.60433e-08
1.14845e-08
7.76077e-09
4.86996e-09
2.76855e-09
1.37017e-09
5.49702e-10
1.5407e-10
2.0124e-11
1.17335e-13
1.36504e-13
2.34083e-11
1.79182e-10
6.3924e-10
1.59356e-09
3.22134e-09
5.67106e-09
9.04826e-09
1.34107e-08
1.87693e-08
2.50937e-08
3.23198e-08
4.03585e-08
4.91035e-08
5.84388e-08
6.82439e-08
7.83985e-08
8.87855e-08
9.92932e-08
1.09816e-07
1.20256e-07
1.30522e-07
1.40531e-07
1.50206e-07
1.59477e-07
1.68283e-07
1.76565e-07
1.84274e-07
1.91364e-07
1.97795e-07
2.03532e-07
2.08546e-07
2.1281e-07
2.16305e-07
2.19013e-07
2.20922e-07
2.22025e-07
2.22316e-07
2.21798e-07
2.20472e-07
2.18346e-07
2.15433e-07
2.11747e-07
2.07308e-07
2.02139e-07
1.96267e-07
1.89724e-07
1.82547e-07
1.74774e-07
1.66451e-07
1.57629e-07
1.48362e-07
1.38713e-07
1.28749e-07
1.18544e-07
1.08179e-07
9.77441e-08
8.73344e-08
7.70538e-08
6.70125e-08
5.73261e-08
4.81137e-08
3.94944e-08
3.15826e-08
2.44826e-08
1.82806e-08
1.30373e-08
8.77919e-09
5.49143e-09
3.11314e-09
1.53716e-09
6.15603e-10
1.7233e-10
2.24936e-11
1.31119e-13
1.51206e-13
2.59335e-11
1.98599e-10
7.09067e-10
1.76968e-09
3.58284e-09
6.31925e-09
1.01043e-08
1.50117e-08
2.10642e-08
2.82378e-08
3.64694e-08
4.56661e-08
5.57131e-08
6.64819e-08
7.78365e-08
8.96389e-08
1.01753e-07
1.14046e-07
1.26394e-07
1.38677e-07
1.50785e-07
1.62615e-07
1.74074e-07
1.85075e-07
1.9554e-07
2.05398e-07
2.14585e-07
2.23045e-07
2.30726e-07
2.37585e-07
2.43583e-07
2.48689e-07
2.52876e-07
2.56123e-07
2.58415e-07
2.5974e-07
2.60094e-07
2.59477e-07
2.57892e-07
2.5535e-07
2.51864e-07
2.47454e-07
2.42145e-07
2.35965e-07
2.2895e-07
2.21138e-07
2.12576e-07
2.03312e-07
1.93405e-07
1.82917e-07
1.71919e-07
1.60485e-07
1.48702e-07
1.3666e-07
1.24459e-07
1.12209e-07
1.00025e-07
8.80317e-08
7.63588e-08
6.51415e-08
5.45166e-08
4.46184e-08
3.55736e-08
2.74939e-08
2.04689e-08
1.45568e-08
9.7766e-09
6.10072e-09
3.45138e-09
1.70125e-09
6.80426e-10
1.90305e-10
2.48269e-11
1.44693e-13
1.658e-13
2.84396e-11
2.17859e-10
7.78274e-10
1.94403e-09
3.94021e-09
6.95907e-09
1.1145e-08
1.65874e-08
2.33199e-08
3.13249e-08
4.05407e-08
5.08709e-08
6.2193e-08
7.4367e-08
8.72427e-08
1.00665e-07
1.14479e-07
1.28534e-07
1.42685e-07
1.56792e-07
1.70726e-07
1.84366e-07
1.97599e-07
2.10323e-07
2.22443e-07
2.33874e-07
2.44538e-07
2.54367e-07
2.63298e-07
2.7128e-07
2.78264e-07
2.84212e-07
2.89091e-07
2.92875e-07
2.95546e-07
2.97091e-07
2.97502e-07
2.96781e-07
2.9493e-07
2.91963e-07
2.87896e-07
2.82754e-07
2.76566e-07
2.69367e-07
2.61199e-07
2.52111e-07
2.42158e-07
2.314e-07
2.19908e-07
2.07756e-07
1.9503e-07
1.81822e-07
1.68232e-07
1.54371e-07
1.40357e-07
1.26317e-07
1.12389e-07
9.87147e-08
8.54452e-08
7.27333e-08
6.07324e-08
4.95908e-08
3.94457e-08
3.04159e-08
2.25931e-08
1.60327e-08
1.07462e-08
6.69358e-09
3.78082e-09
1.86122e-09
7.43664e-10
2.07849e-10
2.7105e-11
1.57947e-13
1.80218e-13
3.09152e-11
2.36876e-10
8.46557e-10
2.11589e-09
4.29203e-09
7.58809e-09
1.21667e-08
1.8132e-08
2.55282e-08
3.43434e-08
4.45175e-08
5.59506e-08
6.85131e-08
8.20542e-08
9.641e-08
1.1141e-07
1.26881e-07
1.42653e-07
1.58563e-07
1.74452e-07
1.90171e-07
2.05581e-07
2.20552e-07
2.34963e-07
2.48705e-07
2.61678e-07
2.73791e-07
2.84963e-07
2.95121e-07
3.04202e-07
3.12151e-07
3.18922e-07
3.24476e-07
3.28784e-07
3.31821e-07
3.33573e-07
3.34032e-07
3.33199e-07
3.31077e-07
3.27682e-07
3.23034e-07
3.17161e-07
3.10098e-07
3.01887e-07
2.92579e-07
2.82229e-07
2.70903e-07
2.58674e-07
2.45622e-07
2.31837e-07
2.17418e-07
2.02473e-07
1.87119e-07
1.71484e-07
1.55704e-07
1.39927e-07
1.24307e-07
1.09006e-07
9.41942e-08
8.00404e-08
6.67136e-08
5.43751e-08
4.31719e-08
3.32287e-08
2.46388e-08
1.74551e-08
1.16813e-08
7.26581e-09
4.09904e-09
2.01585e-09
8.04826e-10
2.24822e-10
2.93094e-11
1.70773e-13
1.94402e-13
3.33502e-11
2.55575e-10
9.13651e-10
2.2846e-09
4.63703e-09
8.20413e-09
1.3166e-08
1.96407e-08
2.76821e-08
3.7284e-08
4.83869e-08
6.0888e-08
7.46506e-08
8.95135e-08
1.053e-07
1.21823e-07
1.38895e-07
1.56327e-07
1.73936e-07
1.91547e-07
2.08991e-07
2.26111e-07
2.42761e-07
2.58802e-07
2.74112e-07
2.88574e-07
3.02084e-07
3.14551e-07
3.2589e-07
3.36029e-07
3.44905e-07
3.52465e-07
3.58663e-07
3.63465e-07
3.66846e-07
3.68787e-07
3.69279e-07
3.68324e-07
3.65926e-07
3.62102e-07
3.56878e-07
3.50284e-07
3.42362e-07
3.33161e-07
3.22738e-07
3.11158e-07
2.98497e-07
2.84838e-07
2.70274e-07
2.54909e-07
2.38854e-07
2.22234e-07
2.05181e-07
1.8784e-07
1.70365e-07
1.52921e-07
1.35681e-07
1.18825e-07
1.02539e-07
8.70087e-08
7.24175e-08
5.89382e-08
4.67267e-08
3.59132e-08
2.65923e-08
1.88141e-08
1.25753e-08
7.81329e-09
4.40369e-09
2.16396e-09
8.63431e-10
2.41091e-10
3.14225e-11
1.83068e-13
2.08303e-13
3.57364e-11
2.73891e-10
9.79333e-10
2.44962e-09
4.97414e-09
8.80537e-09
1.414e-08
2.11092e-08
2.9776e-08
4.01387e-08
5.21386e-08
6.56696e-08
8.05877e-08
9.6722e-08
1.13883e-07
1.31869e-07
1.50476e-07
1.69499e-07
1.88737e-07
2.07995e-07
2.2709e-07
2.45845e-07
2.64098e-07
2.81696e-07
2.98499e-07
3.14379e-07
3.29219e-07
3.42915e-07
3.55374e-07
3.66513e-07
3.76262e-07
3.8456e-07
3.91359e-07
3.96618e-07
4.0031e-07
4.02413e-07
4.02919e-07
4.01829e-07
3.99149e-07
3.94898e-07
3.89106e-07
3.81808e-07
3.7305e-07
3.62889e-07
3.51389e-07
3.38625e-07
3.2468e-07
3.0965e-07
2.93639e-07
2.76763e-07
2.59148e-07
2.40932e-07
2.22263e-07
2.03302e-07
1.84219e-07
1.65196e-07
1.46423e-07
1.28097e-07
1.10418e-07
9.35888e-08
7.78043e-08
6.32486e-08
5.00857e-08
3.84508e-08
2.84399e-08
2.01002e-08
1.34219e-08
8.33193e-09
4.69242e-09
2.30439e-09
9.19013e-10
2.56522e-10
3.3427e-11
1.94731e-13
2.2188e-13
3.80667e-11
2.91772e-10
1.04342e-09
2.61051e-09
5.30247e-09
9.39029e-09
1.50865e-08
2.25343e-08
3.1805e-08
4.29013e-08
5.57645e-08
7.02846e-08
8.6311e-08
1.03663e-07
1.22137e-07
1.4152e-07
1.61591e-07
1.82128e-07
2.02914e-07
2.23737e-07
2.44395e-07
2.64699e-07
2.84467e-07
3.03533e-07
3.21743e-07
3.38955e-07
3.55042e-07
3.69887e-07
3.83388e-07
3.95456e-07
4.0601e-07
4.14987e-07
4.22331e-07
4.28e-07
4.31961e-07
4.34193e-07
4.34688e-07
4.33447e-07
4.30477e-07
4.25801e-07
4.19451e-07
4.11468e-07
4.01903e-07
3.9082e-07
3.7829e-07
3.64396e-07
3.49232e-07
3.32903e-07
3.15523e-07
2.97221e-07
2.78136e-07
2.58419e-07
2.38232e-07
2.17751e-07
1.97162e-07
1.76662e-07
1.56455e-07
1.36755e-07
1.17776e-07
9.97338e-08
8.28358e-08
6.72757e-08
5.32251e-08
4.08235e-08
3.01681e-08
2.13037e-08
1.42144e-08
8.81774e-09
4.96298e-09
2.43601e-09
9.71117e-10
2.70989e-10
3.53062e-11
2.05664e-13
2.35104e-13
4.03359e-11
3.09177e-10
1.10576e-09
2.7669e-09
5.62134e-09
9.95774e-09
1.60035e-08
2.39133e-08
3.37658e-08
4.55672e-08
5.92585e-08
7.47256e-08
9.18107e-08
1.10323e-07
1.30048e-07
1.50757e-07
1.72214e-07
1.94183e-07
2.1643e-07
2.38726e-07
2.60855e-07
2.82609e-07
3.03794e-07
3.2423e-07
3.43748e-07
3.62195e-07
3.79432e-07
3.95334e-07
4.0979e-07
4.22701e-07
4.33984e-07
4.43566e-07
4.5139e-07
4.5741e-07
4.61592e-07
4.63915e-07
4.64368e-07
4.62954e-07
4.59684e-07
4.54583e-07
4.47687e-07
4.3904e-07
4.28702e-07
4.1674e-07
4.03233e-07
3.88273e-07
3.71962e-07
3.54414e-07
3.35755e-07
3.16124e-07
2.95671e-07
2.74559e-07
2.52966e-07
2.31078e-07
2.09096e-07
1.87231e-07
1.65702e-07
1.44735e-07
1.24558e-07
1.05399e-07
8.7475e-08
7.09898e-08
5.61214e-08
4.30133e-08
3.17637e-08
2.24153e-08
1.49468e-08
9.26675e-09
5.21311e-09
2.55772e-09
1.0193e-09
2.84368e-10
3.70439e-11
2.15774e-13
2.4795e-13
4.25401e-11
3.26078e-10
1.16627e-09
2.91856e-09
5.93027e-09
1.05069e-08
1.68899e-08
2.52445e-08
3.56561e-08
4.81335e-08
6.26167e-08
7.89875e-08
9.70803e-08
1.16694e-07
1.37603e-07
1.59565e-07
1.8233e-07
2.05644e-07
2.29259e-07
2.52932e-07
2.76429e-07
2.9953e-07
3.22025e-07
3.43721e-07
3.64439e-07
3.84013e-07
4.02295e-07
4.19151e-07
4.34461e-07
4.48122e-07
4.60043e-07
4.70149e-07
4.7838e-07
4.84685e-07
4.89031e-07
4.91397e-07
4.91773e-07
4.90162e-07
4.86578e-07
4.8105e-07
4.73618e-07
4.64331e-07
4.53253e-07
4.40459e-07
4.26034e-07
4.10077e-07
3.92698e-07
3.74021e-07
3.54181e-07
3.33326e-07
3.11617e-07
2.89229e-07
2.6635e-07
2.43179e-07
2.1993e-07
1.96824e-07
1.74093e-07
1.51976e-07
1.30712e-07
1.10539e-07
9.16856e-08
7.43616e-08
5.87516e-08
4.50025e-08
3.32137e-08
2.34258e-08
1.56126e-08
9.67512e-09
5.44063e-09
2.66843e-09
1.06313e-09
2.96537e-10
3.86244e-11
2.24968e-13
2.60406e-13
4.4677e-11
3.42458e-10
1.22487e-09
3.06535e-09
6.22901e-09
1.10374e-08
1.77451e-08
2.65271e-08
3.74746e-08
5.05986e-08
6.58375e-08
8.30679e-08
1.02117e-07
1.22773e-07
1.44799e-07
1.67938e-07
1.91927e-07
2.16497e-07
2.41384e-07
2.66331e-07
2.9109e-07
3.15426e-07
3.39118e-07
3.61959e-07
3.83759e-07
4.04344e-07
4.23555e-07
4.41251e-07
4.57307e-07
4.71612e-07
4.84074e-07
4.94613e-07
5.03165e-07
5.09682e-07
5.14129e-07
5.16484e-07
5.1674e-07
5.14902e-07
5.10988e-07
5.05029e-07
4.9707e-07
4.87166e-07
4.75384e-07
4.61806e-07
4.46525e-07
4.29645e-07
4.11284e-07
3.91574e-07
3.70658e-07
3.48693e-07
3.2585e-07
3.02312e-07
2.78278e-07
2.53958e-07
2.29574e-07
2.0536e-07
1.81559e-07
1.58417e-07
1.36186e-07
1.15112e-07
9.5432e-08
7.73623e-08
6.10928e-08
4.67738e-08
3.45051e-08
2.4326e-08
1.6206e-08
1.00391e-08
5.64342e-09
2.76711e-09
1.10219e-09
3.07381e-10
4.00325e-11
2.33159e-13
2.72467e-13
4.6746e-11
3.58311e-10
1.28156e-09
3.20724e-09
6.5175e-09
1.15491e-08
1.85691e-08
2.77612e-08
3.92217e-08
5.29629e-08
6.89211e-08
8.69674e-08
1.06921e-07
1.28559e-07
1.51633e-07
1.75873e-07
2.01001e-07
2.26735e-07
2.52795e-07
2.78911e-07
3.0482e-07
3.30275e-07
3.55043e-07
3.78906e-07
4.01664e-07
4.23133e-07
4.4315e-07
4.61565e-07
4.78247e-07
4.93084e-07
5.05978e-07
5.16849e-07
5.25632e-07
5.32278e-07
5.36753e-07
5.39037e-07
5.39125e-07
5.37026e-07
5.3276e-07
5.26364e-07
5.17886e-07
5.07385e-07
4.94937e-07
4.80626e-07
4.64552e-07
4.46826e-07
4.27574e-07
4.06932e-07
3.85052e-07
3.62098e-07
3.38249e-07
3.13698e-07
2.88648e-07
2.63321e-07
2.37946e-07
2.12766e-07
1.88033e-07
1.64002e-07
1.40932e-07
1.19077e-07
9.86796e-08
7.99638e-08
6.3123e-08
4.83099e-08
3.56254e-08
2.51071e-08
1.67209e-08
1.03549e-08
5.81942e-09
2.85275e-09
1.13609e-09
3.16788e-10
4.12538e-11
2.40262e-13
2.84138e-13
4.87478e-11
3.73643e-10
1.33635e-09
3.34429e-09
6.79591e-09
1.20424e-08
1.93624e-08
2.89475e-08
4.08986e-08
5.52283e-08
7.18698e-08
9.06886e-08
1.11495e-07
1.34056e-07
1.58109e-07
1.83373e-07
2.09554e-07
2.36357e-07
2.63489e-07
2.90664e-07
3.17607e-07
3.4406e-07
3.69778e-07
3.94534e-07
4.18118e-07
4.40341e-07
4.6103e-07
4.80033e-07
4.97216e-07
5.12461e-07
5.25672e-07
5.36766e-07
5.45679e-07
5.52364e-07
5.56787e-07
5.58933e-07
5.588e-07
5.56399e-07
5.51757e-07
5.44913e-07
5.3592e-07
5.24844e-07
5.11764e-07
4.96772e-07
4.79972e-07
4.61481e-07
4.4143e-07
4.19963e-07
3.97237e-07
3.73422e-07
3.48704e-07
3.2328e-07
2.97363e-07
2.71178e-07
2.44964e-07
2.18969e-07
1.93451e-07
1.68673e-07
1.44899e-07
1.2239e-07
1.01394e-07
8.21386e-08
6.48204e-08
4.95946e-08
3.65625e-08
2.57606e-08
1.71517e-08
1.06192e-08
5.96667e-09
2.92438e-09
1.16443e-09
3.24651e-10
4.22744e-11
2.46196e-13
2.95432e-13
5.06846e-11
3.88472e-10
1.38933e-09
3.47668e-09
7.06461e-09
1.2518e-08
2.01262e-08
3.00881e-08
4.25079e-08
5.73981e-08
7.46883e-08
9.4237e-08
1.15845e-07
1.39269e-07
1.64234e-07
1.90444e-07
2.17593e-07
2.45369e-07
2.73468e-07
3.0159e-07
3.29449e-07
3.56774e-07
3.83311e-07
4.08824e-07
4.33096e-07
4.55932e-07
4.77155e-07
4.96608e-07
5.14155e-07
5.29678e-07
5.4308e-07
5.54279e-07
5.63214e-07
5.69839e-07
5.74124e-07
5.76059e-07
5.75644e-07
5.72897e-07
5.67849e-07
5.60543e-07
5.51039e-07
5.39407e-07
5.25731e-07
5.10109e-07
4.92651e-07
4.73478e-07
4.52726e-07
4.30544e-07
4.07094e-07
3.82551e-07
3.57105e-07
3.30958e-07
3.04328e-07
2.77444e-07
2.5055e-07
2.23898e-07
1.97751e-07
1.72377e-07
1.48043e-07
1.25015e-07
1.03544e-07
8.38605e-08
6.61643e-08
5.06119e-08
3.73046e-08
2.62782e-08
1.7493e-08
1.08286e-08
6.0833e-09
2.9811e-09
1.18686e-09
3.30871e-10
4.30813e-11
2.50887e-13
3.0637e-13
5.25601e-11
4.02827e-10
1.44058e-09
3.60469e-09
7.32418e-09
1.29769e-08
2.08622e-08
3.11854e-08
4.40533e-08
5.94774e-08
7.73828e-08
9.76204e-08
1.19981e-07
1.4421e-07
1.70019e-07
1.97098e-07
2.25126e-07
2.5378e-07
2.8274e-07
3.11695e-07
3.40346e-07
3.68414e-07
3.95633e-07
4.21762e-07
4.46578e-07
4.6988e-07
4.91489e-07
5.11245e-07
5.29013e-07
5.44676e-07
5.58135e-07
5.69315e-07
5.78155e-07
5.84614e-07
5.88667e-07
5.90311e-07
5.8955e-07
5.86406e-07
5.80917e-07
5.73133e-07
5.63117e-07
5.50947e-07
5.36711e-07
5.20512e-07
5.02464e-07
4.82694e-07
4.61341e-07
4.38558e-07
4.14511e-07
3.89379e-07
3.63352e-07
3.36639e-07
3.09457e-07
2.8204e-07
2.54632e-07
2.27489e-07
2.00876e-07
1.75062e-07
1.50319e-07
1.26913e-07
1.05097e-07
8.51044e-08
6.71352e-08
5.13468e-08
3.78409e-08
2.66523e-08
1.77397e-08
1.09799e-08
6.16757e-09
3.02206e-09
1.20305e-09
3.35356e-10
4.36626e-11
2.54264e-13
3.1698e-13
5.43791e-11
4.16747e-10
1.49025e-09
3.72867e-09
7.57537e-09
1.34205e-08
2.15727e-08
3.22429e-08
4.55398e-08
6.14727e-08
7.99615e-08
1.00849e-07
1.23915e-07
1.48891e-07
1.75477e-07
2.03348e-07
2.3217e-07
2.61604e-07
2.91317e-07
3.20987e-07
3.50306e-07
3.78981e-07
4.06742e-07
4.33341e-07
4.58549e-07
4.82164e-07
5.04004e-07
5.2391e-07
5.41747e-07
5.57401e-07
5.70777e-07
5.81803e-07
5.90426e-07
5.96604e-07
6.00327e-07
6.01593e-07
6.00415e-07
5.9682e-07
5.90853e-07
5.8257e-07
5.72041e-07
5.59348e-07
5.44587e-07
5.27863e-07
5.09296e-07
4.89015e-07
4.67165e-07
4.439e-07
4.19387e-07
3.93807e-07
3.67355e-07
3.40235e-07
3.12669e-07
2.84889e-07
2.57141e-07
2.2968e-07
2.0277e-07
1.76683e-07
1.51687e-07
1.2805e-07
1.06026e-07
8.58474e-08
6.77149e-08
5.17857e-08
3.81613e-08
2.68759e-08
1.78872e-08
1.10704e-08
6.2179e-09
3.04649e-09
1.21269e-09
3.38022e-10
4.40075e-11
2.56265e-13
3.27299e-13
5.6148e-11
4.30279e-10
1.53852e-09
3.84909e-09
7.81913e-09
1.38505e-08
2.22604e-08
3.32647e-08
4.6973e-08
6.33917e-08
8.24341e-08
1.03934e-07
1.27659e-07
1.53328e-07
1.80626e-07
2.09213e-07
2.3874e-07
2.68856e-07
2.99214e-07
3.2948e-07
3.59335e-07
3.8848e-07
4.16638e-07
4.43554e-07
4.68998e-07
4.92764e-07
5.14673e-07
5.34568e-07
5.52316e-07
5.67806e-07
5.80951e-07
5.91683e-07
5.99956e-07
6.05735e-07
6.09022e-07
6.0982e-07
6.08148e-07
6.04044e-07
5.97558e-07
5.88754e-07
5.77708e-07
5.64508e-07
5.49255e-07
5.3206e-07
5.13044e-07
4.92343e-07
4.701e-07
4.46473e-07
4.2163e-07
3.95751e-07
3.69029e-07
3.4167e-07
3.13893e-07
2.85928e-07
2.58019e-07
2.30418e-07
2.03387e-07
1.77195e-07
1.5211e-07
1.28396e-07
1.06305e-07
8.6069e-08
6.78873e-08
5.19162e-08
3.82567e-08
2.69427e-08
1.79313e-08
1.10974e-08
6.23291e-09
3.05374e-09
1.21553e-09
3.38798e-10
4.41068e-11
2.56837e-13
3.37368e-13
5.78738e-11
4.43479e-10
1.5856e-09
3.96645e-09
8.05655e-09
1.42689e-08
2.29286e-08
3.42557e-08
4.83596e-08
6.52431e-08
8.48117e-08
1.06888e-07
1.31229e-07
1.57537e-07
1.85483e-07
2.1471e-07
2.44857e-07
2.75555e-07
3.06447e-07
3.37187e-07
3.67447e-07
3.96919e-07
4.25322e-07
4.52397e-07
4.77913e-07
5.01665e-07
5.23475e-07
5.4319e-07
5.60682e-07
5.75847e-07
5.88605e-07
5.98897e-07
6.06681e-07
6.11937e-07
6.14679e-07
6.14912e-07
6.12668e-07
6.07992e-07
6.00944e-07
5.91594e-07
5.80025e-07
5.66333e-07
5.50622e-07
5.33009e-07
5.13618e-07
4.92587e-07
4.70061e-07
4.46197e-07
4.21162e-07
3.95135e-07
3.68307e-07
3.4088e-07
3.13069e-07
2.85101e-07
2.57214e-07
2.29657e-07
2.02687e-07
1.76566e-07
1.51559e-07
1.27925e-07
1.05914e-07
8.57529e-08
6.76396e-08
5.17287e-08
3.81202e-08
2.68477e-08
1.78688e-08
1.10591e-08
6.21152e-09
3.04327e-09
1.21135e-09
3.37627e-10
4.39532e-11
2.55938e-13
3.47233e-13
5.95647e-11
4.56411e-10
1.6317e-09
4.08136e-09
8.28884e-09
1.46778e-08
2.35808e-08
3.5221e-08
4.9707e-08
6.70365e-08
8.71063e-08
1.09728e-07
1.34642e-07
1.61538e-07
1.90068e-07
2.19862e-07
2.50539e-07
2.8172e-07
3.13034e-07
3.44122e-07
3.7465e-07
4.04303e-07
4.32795e-07
4.59866e-07
4.85285e-07
5.0885e-07
5.30386e-07
5.49746e-07
5.6681e-07
5.81482e-07
5.93692e-07
6.03391e-07
6.10541e-07
6.15151e-07
6.17231e-07
6.16801e-07
6.13902e-07
6.08589e-07
6.00932e-07
5.91011e-07
5.78916e-07
5.64748e-07
5.48618e-07
5.30644e-07
5.10955e-07
4.89688e-07
4.66989e-07
4.43014e-07
4.17928e-07
3.91906e-07
3.65137e-07
3.37816e-07
3.10152e-07
2.82367e-07
2.54691e-07
2.27365e-07
2.00639e-07
1.74768e-07
1.5001e-07
1.26618e-07
1.04835e-07
8.48846e-08
6.69604e-08
5.12144e-08
3.77453e-08
2.65866e-08
1.76969e-08
1.09537e-08
6.15278e-09
3.01465e-09
1.19999e-09
3.34463e-10
4.3541e-11
2.53534e-13
3.56944e-13
6.12293e-11
4.69141e-10
1.67708e-09
4.19444e-09
8.5173e-09
1.50797e-08
2.42207e-08
3.61662e-08
5.10229e-08
6.87821e-08
8.93305e-08
1.12466e-07
1.37914e-07
1.65348e-07
1.94401e-07
2.24686e-07
2.55807e-07
2.8737e-07
3.18989e-07
3.50299e-07
3.80955e-07
4.10637e-07
4.39058e-07
4.65956e-07
4.91104e-07
5.14303e-07
5.35384e-07
5.54208e-07
5.70666e-07
5.84673e-07
5.96169e-07
6.05117e-07
6.11489e-07
6.15323e-07
6.16622e-07
6.15427e-07
6.1179e-07
6.0578e-07
5.97474e-07
5.8696e-07
5.74336e-07
5.59711e-07
5.43198e-07
5.24921e-07
5.05008e-07
4.83599e-07
4.60839e-07
4.36882e-07
4.11888e-07
3.86029e-07
3.59486e-07
3.32447e-07
3.05114e-07
2.77699e-07
2.50423e-07
2.23517e-07
1.97222e-07
1.71782e-07
1.47447e-07
1.2446e-07
1.03057e-07
8.34555e-08
6.58429e-08
5.03682e-08
3.71283e-08
2.61567e-08
1.74138e-08
1.07802e-08
6.05613e-09
2.96761e-09
1.18135e-09
3.29281e-10
4.28669e-11
2.49607e-13
3.66554e-13
6.28765e-11
4.81739e-10
1.722e-09
4.30634e-09
8.7433e-09
1.54768e-08
2.48522e-08
3.70971e-08
5.23152e-08
7.049e-08
9.14969e-08
1.15118e-07
1.41063e-07
1.68985e-07
1.985e-07
2.29202e-07
2.60678e-07
2.92519e-07
3.24327e-07
3.55727e-07
3.86367e-07
4.15924e-07
4.44107e-07
4.70659e-07
4.95356e-07
5.18003e-07
5.38444e-07
5.56549e-07
5.72219e-07
5.85385e-07
5.95999e-07
6.04028e-07
6.09489e-07
6.12408e-07
6.12813e-07
6.10757e-07
6.06304e-07
5.99534e-07
5.90535e-07
5.79407e-07
5.66254e-07
5.5119e-07
5.34334e-07
5.15812e-07
4.95756e-07
4.74304e-07
4.51599e-07
4.2779e-07
4.03035e-07
3.77497e-07
3.51348e-07
3.24769e-07
2.97951e-07
2.71094e-07
2.44408e-07
2.18113e-07
1.92435e-07
1.67608e-07
1.43869e-07
1.21451e-07
1.0058e-07
8.1464e-08
6.42857e-08
4.91889e-08
3.62684e-08
2.55576e-08
1.70192e-08
1.05384e-08
5.92152e-09
2.90213e-09
1.15543e-09
3.22081e-10
4.1931e-11
2.44159e-13
3.76114e-13
6.45153e-11
4.94276e-10
1.76671e-09
4.41773e-09
8.96818e-09
1.58716e-08
2.54792e-08
3.80193e-08
5.35915e-08
7.21703e-08
9.36174e-08
1.17699e-07
1.44104e-07
1.72467e-07
2.02382e-07
2.33426e-07
2.65166e-07
2.9718e-07
3.29057e-07
3.60412e-07
3.90887e-07
4.20158e-07
4.47935e-07
4.73962e-07
4.98022e-07
5.19931e-07
5.39542e-07
5.5674e-07
5.71439e-07
5.83586e-07
5.93145e-07
6.00099e-07
6.04509e-07
6.06387e-07
6.05784e-07
6.02769e-07
5.97421e-07
5.89834e-07
5.80106e-07
5.68346e-07
5.54666e-07
5.39188e-07
5.22034e-07
5.03333e-07
4.83218e-07
4.61824e-07
4.39291e-07
4.15765e-07
3.91394e-07
3.66335e-07
3.40749e-07
3.14807e-07
2.88686e-07
2.62574e-07
2.36666e-07
2.11168e-07
1.86292e-07
1.62257e-07
1.39286e-07
1.17598e-07
9.74082e-08
7.89152e-08
6.22928e-08
4.76796e-08
3.51677e-08
2.47907e-08
1.65142e-08
1.0229e-08
5.74931e-09
2.81841e-09
1.12231e-09
3.12886e-10
4.07366e-11
2.37208e-13
3.85674e-13
6.61544e-11
5.0682e-10
1.81145e-09
4.52924e-09
9.19326e-09
1.62666e-08
2.61054e-08
3.89383e-08
5.48592e-08
7.3832e-08
9.57029e-08
1.20219e-07
1.4705e-07
1.75805e-07
2.0606e-07
2.37369e-07
2.69281e-07
3.01359e-07
3.33181e-07
3.64352e-07
3.94511e-07
4.23333e-07
4.50527e-07
4.75847e-07
4.99082e-07
5.20063e-07
5.38653e-07
5.54755e-07
5.683e-07
5.79252e-07
5.87575e-07
5.93326e-07
5.96535e-07
5.97244e-07
5.95526e-07
5.91462e-07
5.85151e-07
5.76697e-07
5.66209e-07
5.53807e-07
5.39612e-07
5.23751e-07
5.0635e-07
4.8754e-07
4.67453e-07
4.46221e-07
4.23981e-07
4.0087e-07
3.7703e-07
3.52607e-07
3.27751e-07
3.02618e-07
2.77374e-07
2.52189e-07
2.27243e-07
2.02725e-07
1.7883e-07
1.55761e-07
1.33723e-07
1.12923e-07
9.35606e-08
7.5823e-08
5.98747e-08
4.58481e-08
3.38319e-08