/*--------------------------------*- C++ -*----------------------------------*\
  =========                 |
  \\      /  F ield         | OpenFOAM: The Open Source CFD Toolbox
   \\    /   O peration     | Website:  https://openfoam.org
    \\  /    A nd           | Version:  12
     \\/     M anipulation  |
\*---------------------------------------------------------------------------*/
FoamFile
{
    format      ascii;
    class       volScalarField;
    location    "2";
    object      p;
}
// * * * * * * * * * * * * * * * * * * * * * * * * * * * * * * * * * * * * * //

dimensions      [0 2 -2 0 0 0 0];

internalField   nonuniform List<scalar> 
5625
(
3.63679e-08
3.38235e-07
1.43181e-06
3.30422e-06
5.70072e-06
8.3936e-06
1.12041e-05
1.39814e-05
1.65983e-05
1.89479e-05
2.09436e-05
2.25152e-05
2.36079e-05
2.41794e-05
2.4199e-05
2.36452e-05
2.25052e-05
2.07733e-05
1.84502e-05
1.55419e-05
1.20596e-05
8.01837e-06
3.43689e-06
-1.66279e-06
-7.25593e-06
-1.33153e-05
-1.98116e-05
-2.67137e-05
-3.39887e-05
-4.16025e-05
-4.95197e-05
-5.77038e-05
-6.61176e-05
-7.4723e-05
-8.34815e-05
-9.23539e-05
-0.000101301
-0.000110282
-0.000119259
-0.000128191
-0.000137038
-0.00014576
-0.000154319
-0.000162676
-0.000170793
-0.000178631
-0.000186155
-0.000193329
-0.000200118
-0.000206491
-0.000212416
-0.000217864
-0.000222809
-0.000227226
-0.000231095
-0.000234397
-0.000237119
-0.000239251
-0.00024079
-0.000241737
-0.000242099
-0.000241892
-0.00024114
-0.000239876
-0.000238146
-0.000236007
-0.000233533
-0.000230812
-0.000227954
-0.000225087
-0.000222363
-0.000219961
-0.000218106
-0.000217052
-0.000216804
-3.45744e-06
-2.73818e-06
-1.50495e-06
1.7104e-07
2.15598e-06
4.31346e-06
6.52167e-06
8.67111e-06
1.06663e-05
1.24244e-05
1.38755e-05
1.49612e-05
1.56346e-05
1.58579e-05
1.56026e-05
1.4848e-05
1.35805e-05
1.17929e-05
9.48351e-06
6.65568e-06
3.31725e-06
-5.20041e-07
-4.84092e-06
-9.62702e-06
-1.48572e-05
-2.0508e-05
-2.65537e-05
-3.29667e-05
-3.97179e-05
-4.67765e-05
-5.41107e-05
-6.16875e-05
-6.9473e-05
-7.74327e-05
-8.55312e-05
-9.37328e-05
-0.000102001
-0.000110301
-0.000118594
-0.000126845
-0.000135017
-0.000143075
-0.000150982
-0.000158703
-0.000166204
-0.000173451
-0.000180411
-0.000187052
-0.000193345
-0.000199259
-0.000204768
-0.000209848
-0.000214475
-0.000218629
-0.000222292
-0.000225452
-0.000228096
-0.00023022
-0.000231821
-0.000232904
-0.000233476
-0.000233555
-0.000233163
-0.00023233
-0.000231098
-0.000229514
-0.000227641
-0.000225549
-0.000223322
-0.000221059
-0.000218869
-0.000216874
-0.00021521
-0.000214012
-0.000213332
-9.30436e-06
-7.8185e-06
-5.96239e-06
-4.00466e-06
-1.98756e-06
4.17824e-08
2.01538e-06
3.86272e-06
5.51968e-06
6.92846e-06
8.03851e-06
8.80594e-06
9.19418e-06
9.1732e-06
8.71966e-06
7.8161e-06
6.45081e-06
4.61718e-06
2.31339e-06
-4.58105e-07
-3.6909e-06
-7.37505e-06
-1.14974e-05
-1.6042e-05
-2.09902e-05
-2.63211e-05
-3.20117e-05
-3.80373e-05
-4.43715e-05
-5.09864e-05
-5.7853e-05
-6.49413e-05
-7.22202e-05
-7.96579e-05
-8.72221e-05
-9.48799e-05
-0.000102598
-0.000110343
-0.000118082
-0.00012578
-0.000133405
-0.000140923
-0.000148302
-0.000155509
-0.000162513
-0.000169283
-0.000175789
-0.000182003
-0.000187898
-0.000193448
-0.000198628
-0.000203417
-0.000207795
-0.000211743
-0.000215248
-0.000218298
-0.000220884
-0.000223
-0.000224647
-0.000225829
-0.000226552
-0.000226832
-0.000226687
-0.000226143
-0.000225232
-0.000223993
-0.00022247
-0.000220717
-0.000218793
-0.000216763
-0.000214698
-0.000212669
-0.000210722
-0.000208903
-0.000207466
-1.60253e-05
-1.36657e-05
-1.09853e-05
-8.47531e-06
-6.11958e-06
-3.90056e-06
-1.84929e-06
-9.20158e-09
1.5793e-06
2.87911e-06
3.85674e-06
4.48227e-06
4.73024e-06
4.5795e-06
4.01349e-06
3.01997e-06
1.59102e-06
-2.77303e-07
-2.58512e-06
-5.329e-06
-8.50223e-06
-1.20951e-05
-1.6095e-05
-2.04868e-05
-2.52533e-05
-3.03749e-05
-3.58303e-05
-4.15964e-05
-4.76488e-05
-5.39615e-05
-6.05076e-05
-6.72589e-05
-7.41868e-05
-8.12614e-05
-8.84527e-05
-9.573e-05
-0.000103062
-0.000110419
-0.000117767
-0.000125077
-0.000132318
-0.000139458
-0.000146467
-0.000153315
-0.000159973
-0.000166412
-0.000172605
-0.000178526
-0.00018415
-0.000189452
-0.000194411
-0.000199006
-0.000203219
-0.000207033
-0.000210436
-0.000213415
-0.000215963
-0.000218075
-0.000219748
-0.000220985
-0.000221791
-0.000222176
-0.000222155
-0.000221745
-0.000220969
-0.000219856
-0.000218436
-0.000216744
-0.00021482
-0.000212706
-0.000210446
-0.000208072
-0.000205571
-0.000202928
-0.000200618
-2.23854e-05
-1.91771e-05
-1.56496e-05
-1.25087e-05
-9.69933e-06
-7.15619e-06
-4.88482e-06
-2.90981e-06
-1.25393e-06
6.19869e-08
1.01864e-06
1.59826e-06
1.78561e-06
1.56805e-06
9.36045e-07
-1.16976e-07
-1.59445e-06
-3.49679e-06
-5.8215e-06
-8.56323e-06
-1.1714e-05
-1.52632e-05
-1.91982e-05
-2.35037e-05
-2.8163e-05
-3.3157e-05
-3.84653e-05
-4.4066e-05
-4.99357e-05
-5.60498e-05
-6.23828e-05
-6.89081e-05
-7.55985e-05
-8.24261e-05
-8.93623e-05
-9.63782e-05
-0.000103445
-0.000110532
-0.000117612
-0.000124653
-0.000131628
-0.000138507
-0.000145261
-0.000151863
-0.000158285
-0.000164499
-0.000170481
-0.000176206
-0.000181649
-0.000186789
-0.000191605
-0.000196076
-0.000200186
-0.000203919
-0.000207261
-0.000210201
-0.00021273
-0.000214842
-0.000216533
-0.000217802
-0.000218652
-0.000219087
-0.000219116
-0.000218751
-0.000218006
-0.000216898
-0.000215447
-0.000213673
-0.0002116
-0.000209251
-0.000206653
-0.000203814
-0.000200671
-0.000197172
-0.000194007
-2.75813e-05
-2.35982e-05
-1.92729e-05
-1.55023e-05
-1.22053e-05
-9.28252e-06
-6.72248e-06
-4.5376e-06
-2.73837e-06
-1.33354e-06
-3.3142e-07
2.60104e-07
4.34433e-07
1.8652e-07
-4.86708e-07
-1.58629e-06
-3.11105e-06
-5.0576e-06
-7.42035e-06
-1.01915e-05
-1.33612e-05
-1.69175e-05
-2.08465e-05
-2.51328e-05
-2.9759e-05
-3.47062e-05
-3.99542e-05
-4.54815e-05
-5.12654e-05
-5.7282e-05
-6.35068e-05
-6.99142e-05
-7.64779e-05
-8.31713e-05
-8.99671e-05
-9.68376e-05
-0.000103755
-0.000110691
-0.000117618
-0.000124508
-0.000131333
-0.000138065
-0.000144676
-0.000151141
-0.000157433
-0.000163527
-0.000169396
-0.000175019
-0.000180372
-0.000185433
-0.000190181
-0.000194599
-0.000198668
-0.000202373
-0.000205699
-0.000208635
-0.00021117
-0.000213295
-0.000215005
-0.000216297
-0.000217168
-0.000217619
-0.000217653
-0.000217276
-0.000216493
-0.000215315
-0.00021375
-0.000211808
-0.000209501
-0.000206841
-0.000203841
-0.000200494
-0.000196701
-0.000192387
-0.000188432
-3.10681e-05
-2.6397e-05
-2.135e-05
-1.69904e-05
-1.32193e-05
-9.9118e-06
-7.0458e-06
-4.62597e-06
-2.65443e-06
-1.13126e-06
-5.64309e-08
5.69914e-07
7.48265e-07
4.80005e-07
-2.32219e-07
-1.38439e-06
-2.97094e-06
-4.9847e-06
-7.41685e-06
-1.02569e-05
-1.34928e-05
-1.71108e-05
-2.10958e-05
-2.54309e-05
-3.00984e-05
-3.50787e-05
-4.03514e-05
-4.5895e-05
-5.16869e-05
-5.77036e-05
-6.3921e-05
-7.0314e-05
-7.68571e-05
-8.35244e-05
-9.02893e-05
-9.71252e-05
-0.000104005
-0.000110902
-0.000117788
-0.000124637
-0.000131422
-0.000138116
-0.000144693
-0.000151126
-0.00015739
-0.000163461
-0.000169314
-0.000174926
-0.000180275
-0.000185338
-0.000190097
-0.000194531
-0.000198622
-0.000202355
-0.000205714
-0.000208685
-0.000211257
-0.00021342
-0.000215164
-0.000216483
-0.000217372
-0.000217826
-0.000217845
-0.000217428
-0.000216575
-0.000215287
-0.000213568
-0.000211419
-0.000208842
-0.000205843
-0.000202426
-0.000198573
-0.000194163
-0.000189098
-0.000184432
-3.24532e-05
-2.71785e-05
-2.14919e-05
-1.66016e-05
-1.23954e-05
-8.72907e-06
-5.57314e-06
-2.92752e-06
-7.88682e-07
8.49629e-07
1.99368e-06
2.64943e-06
2.82308e-06
2.52142e-06
1.75202e-06
5.23424e-07
-1.15477e-06
-3.27177e-06
-5.81562e-06
-8.77308e-06
-1.21297e-05
-1.58698e-05
-1.99765e-05
-2.44318e-05
-2.92167e-05
-3.43108e-05
-3.96933e-05
-4.53421e-05
-5.12345e-05
-5.7347e-05
-6.36554e-05
-7.01349e-05
-7.67604e-05
-8.35062e-05
-9.03464e-05
-9.72547e-05
-0.000104205
-0.00011117
-0.000118124
-0.00012504
-0.000131891
-0.000138653
-0.000145298
-0.000151801
-0.000158138
-0.000164283
-0.000170213
-0.000175905
-0.000181336
-0.000186484
-0.000191329
-0.000195851
-0.000200031
-0.000203852
-0.000207298
-0.000210352
-0.000213003
-0.000215236
-0.000217041
-0.000218408
-0.000219328
-0.000219794
-0.000219799
-0.000219338
-0.000218407
-0.000217002
-0.000215119
-0.000212755
-0.000209906
-0.00020657
-0.00020275
-0.00019842
-0.000193438
-0.000187694
-0.000182393
-3.14314e-05
-2.56298e-05
-1.9384e-05
-1.40284e-05
-9.44017e-06
-5.45939e-06
-2.05131e-06
7.87253e-07
3.0639e-06
4.78961e-06
5.97551e-06
6.63242e-06
6.77126e-06
6.40338e-06
5.54062e-06
4.19556e-06
2.38147e-06
1.12513e-07
-2.59631e-06
-5.72906e-06
-9.26889e-06
-1.3198e-05
-1.74978e-05
-2.21486e-05
-2.71302e-05
-3.24213e-05
-3.8e-05
-4.38437e-05
-4.99291e-05
-5.62325e-05
-6.27294e-05
-6.93951e-05
-7.62043e-05
-8.31315e-05
-9.01509e-05
-9.72365e-05
-0.000104362
-0.000111501
-0.000118628
-0.000125716
-0.00013274
-0.000139672
-0.000146488
-0.000153163
-0.00015967
-0.000165987
-0.000172087
-0.000177949
-0.00018355
-0.000188866
-0.000193877
-0.000198562
-0.000202902
-0.000206877
-0.000210469
-0.000213663
-0.000216442
-0.00021879
-0.000220696
-0.000222144
-0.000223124
-0.000223625
-0.000223637
-0.00022315
-0.000222156
-0.000220647
-0.000218614
-0.00021605
-0.000212945
-0.000209296
-0.000205103
-0.000200334
-0.000194831
-0.000188475
-0.000182604
-2.77414e-05
-2.14826e-05
-1.47544e-05
-9.00187e-06
-4.09308e-06
1.45477e-07
3.75273e-06
6.73425e-06
9.10078e-06
1.08671e-05
1.20484e-05
1.26595e-05
1.27155e-05
1.22315e-05
1.12234e-05
9.70713e-06
7.69954e-06
5.2179e-06
2.2801e-06
-1.09525e-06
-4.88895e-06
-9.08108e-06
-1.36511e-05
-1.85779e-05
-2.38396e-05
-2.94138e-05
-3.52777e-05
-4.14077e-05
-4.778e-05
-5.43701e-05
-6.11534e-05
-6.81046e-05
-7.51984e-05
-8.24092e-05
-8.97109e-05
-9.70777e-05
-0.000104483
-0.000111901
-0.000119306
-0.000126671
-0.00013397
-0.000141176
-0.000148266
-0.000155212
-0.000161989
-0.000168574
-0.00017494
-0.000181065
-0.000186924
-0.000192496
-0.000197756
-0.000202684
-0.000207259
-0.000211461
-0.000215269
-0.000218665
-0.000221632
-0.000224151
-0.000226207
-0.000227784
-0.000228867
-0.000229443
-0.000229497
-0.000229018
-0.000227992
-0.000226408
-0.000224255
-0.000221521
-0.000218194
-0.000214267
-0.000209739
-0.000204575
-0.000198603
-0.000191694
-0.000185307
-2.11376e-05
-1.44868e-05
-7.35098e-06
-1.27251e-06
3.88888e-06
8.31894e-06
1.20605e-05
1.51212e-05
1.75147e-05
1.92592e-05
2.03734e-05
2.08759e-05
2.07852e-05
2.01204e-05
1.89004e-05
1.7145e-05
1.48738e-05
1.21074e-05
8.86634e-06
5.17178e-06
1.04528e-06
-3.49111e-06
-8.415e-06
-1.37035e-05
-1.93333e-05
-2.52808e-05
-3.15219e-05
-3.80322e-05
-4.4787e-05
-5.17613e-05
-5.89297e-05
-6.62666e-05
-7.37464e-05
-8.1343e-05
-8.90304e-05
-9.67821e-05
-0.000104572
-0.000112374
-0.000120161
-0.000127907
-0.000135585
-0.00014317
-0.000150635
-0.000157955
-0.000165103
-0.000172055
-0.000178785
-0.000185268
-0.00019148
-0.000197397
-0.000202995
-0.000208252
-0.000213145
-0.000217652
-0.000221752
-0.000225423
-0.000228646
-0.000231402
-0.000233671
-0.000235435
-0.000236677
-0.000237379
-0.000237526
-0.0002371
-0.000236088
-0.000234474
-0.000232243
-0.000229381
-0.000225874
-0.000221713
-0.000216895
-0.000211381
-0.000204989
-0.00019758
-0.000190725
-1.13709e-05
-4.39221e-06
3.07525e-06
9.40433e-06
1.47433e-05
1.92893e-05
2.30892e-05
2.61529e-05
2.84971e-05
3.01433e-05
3.11136e-05
3.14301e-05
3.1115e-05
3.01906e-05
2.86793e-05
2.66041e-05
2.39878e-05
2.08537e-05
1.72251e-05
1.31257e-05
8.57931e-06
3.61014e-06
-1.75756e-06
-7.49918e-06
-1.359e-05
-2.0005e-05
-2.6719e-05
-3.37065e-05
-4.09421e-05
-4.83998e-05
-5.60539e-05
-6.38781e-05
-7.18463e-05
-7.9932e-05
-8.81089e-05
-9.63503e-05
-0.00010463
-0.00011292
-0.000121195
-0.000129428
-0.000137592
-0.00014566
-0.000153606
-0.000161403
-0.000169025
-0.000176446
-0.00018364
-0.000190581
-0.000197244
-0.000203603
-0.000209633
-0.00021531
-0.000220611
-0.00022551
-0.000229985
-0.000234013
-0.000237572
-0.00024064
-0.000243195
-0.000245216
-0.000246683
-0.000247577
-0.000247877
-0.000247566
-0.000246624
-0.000245035
-0.00024278
-0.000239842
-0.000236206
-0.00023186
-0.0002268
-0.000220985
-0.00021422
-0.00020636
-0.000199076
1.82447e-06
9.06349e-06
1.67814e-05
2.32785e-05
2.87111e-05
3.32871e-05
3.70577e-05
4.00357e-05
4.22409e-05
4.36986e-05
4.44343e-05
4.44739e-05
4.38429e-05
4.25673e-05
4.06727e-05
3.81853e-05
3.51309e-05
3.15357e-05
2.74257e-05
2.28271e-05
1.77658e-05
1.22682e-05
6.36038e-06
6.85559e-08
-6.58106e-06
-1.35621e-05
-2.08483e-05
-2.84132e-05
-3.62304e-05
-4.42733e-05
-5.25154e-05
-6.093e-05
-6.94905e-05
-7.81699e-05
-8.69415e-05
-9.57782e-05
-0.000104653
-0.000113539
-0.000122409
-0.000131236
-0.000139993
-0.000148651
-0.000157185
-0.000165567
-0.00017377
-0.000181766
-0.00018953
-0.000197033
-0.000204249
-0.000211152
-0.000217715
-0.000223912
-0.000229717
-0.000235104
-0.000240048
-0.000244524
-0.000248507
-0.000251972
-0.000254897
-0.000257256
-0.000259028
-0.000260189
-0.000260717
-0.00026059
-0.000259787
-0.000258288
-0.000256073
-0.000253121
-0.000249413
-0.000244938
-0.000239689
-0.000233624
-0.000226534
-0.000218266
-0.000210592
1.8739e-05
2.61631e-05
3.40403e-05
4.06121e-05
4.60426e-05
5.05499e-05
5.41902e-05
5.69798e-05
5.89425e-05
6.01072e-05
6.05036e-05
6.01614e-05
5.91097e-05
5.73781e-05
5.49958e-05
5.19921e-05
4.83959e-05
4.42362e-05
3.95417e-05
3.43409e-05
2.86621e-05
2.25335e-05
1.59829e-05
9.03842e-06
1.72746e-06
-5.92235e-06
-1.38837e-05
-2.21291e-05
-3.06315e-05
-3.93636e-05
-4.82982e-05
-5.74082e-05
-6.66664e-05
-7.60456e-05
-8.55185e-05
-9.50578e-05
-0.000104636
-0.000114226
-0.0001238
-0.00013333
-0.000142789
-0.000152149
-0.000161381
-0.000170458
-0.000179352
-0.000188034
-0.000196477
-0.000204653
-0.000212532
-0.000220087
-0.000227291
-0.000234114
-0.000240529
-0.000246508
-0.000252024
-0.000257048
-0.000261555
-0.000265516
-0.000268905
-0.000271695
-0.000273862
-0.000275378
-0.000276218
-0.000276359
-0.000275775
-0.000274442
-0.000272339
-0.000269443
-0.000265731
-0.000261189
-0.00025581
-0.000249548
-0.000242183
-0.000233554
-0.000225522
3.96938e-05
4.72152e-05
5.51454e-05
6.16834e-05
6.70007e-05
7.13251e-05
7.47183e-05
7.72012e-05
7.88019e-05
7.95539e-05
7.94913e-05
7.86478e-05
7.70567e-05
7.47514e-05
7.17645e-05
6.81288e-05
6.38762e-05
5.90387e-05
5.36474e-05
4.77333e-05
4.13269e-05
3.44582e-05
2.71567e-05
1.9452e-05
1.13727e-05
2.94764e-06
-5.79498e-06
-1.4827e-05
-2.41205e-05
-3.36477e-05
-4.33811e-05
-5.32929e-05
-6.33559e-05
-7.35423e-05
-8.38247e-05
-9.41754e-05
-0.000104567
-0.000114971
-0.00012536
-0.000135705
-0.000145978
-0.000156151
-0.000166196
-0.000176083
-0.000185783
-0.000195267
-0.000204506
-0.00021347
-0.000222128
-0.000230452
-0.000238412
-0.000245977
-0.000253117
-0.000259802
-0.000266002
-0.000271688
-0.000276828
-0.000281393
-0.000285354
-0.000288681
-0.000291344
-0.000293316
-0.000294566
-0.000295068
-0.000294794
-0.000293717
-0.00029181
-0.000289049
-0.000285408
-0.000280871
-0.000275428
-0.000269028
-0.000261442
-0.000252499
-0.000244149
6.50431e-05
7.25563e-05
8.04128e-05
8.67886e-05
9.18622e-05
9.58704e-05
9.8881e-05
0.00010092
0.000102022
0.000102224
0.000101567
0.000100087
9.78234e-05
9.48128e-05
9.10918e-05
8.66967e-05
8.16626e-05
7.60241e-05
6.98152e-05
6.30691e-05
5.58181e-05
4.80942e-05
3.99284e-05
3.13514e-05
2.23932e-05
1.30832e-05
3.45053e-06
-6.47612e-06
-1.66684e-05
-2.70983e-05
-3.77378e-05
-4.85591e-05
-5.95347e-05
-7.06368e-05
-8.18377e-05
-9.31096e-05
-0.000104425
-0.000115755
-0.000127071
-0.000138346
-0.00014955
-0.000160654
-0.000171629
-0.000182445
-0.000193071
-0.000203478
-0.000213634
-0.000223509
-0.000233071
-0.000242288
-0.000251128
-0.00025956
-0.00026755
-0.000275066
-0.000282076
-0.000288545
-0.000294442
-0.000299733
-0.000304386
-0.000308367
-0.000311644
-0.000314184
-0.000315956
-0.000316928
-0.000317068
-0.000316346
-0.000314732
-0.000312198
-0.000308715
-0.000304262
-0.000298829
-0.00029236
-0.000284613
-0.000275412
-0.000266784
9.51756e-05
0.000102552
0.000110181
0.000116241
0.000120917
0.000124452
0.000126923
0.000128361
0.000128806
0.000128303
0.000126896
0.000124629
0.000121544
0.000117682
0.000113085
0.000107791
0.000101839
9.52677e-05
8.8112e-05
8.04077e-05
7.21892e-05
6.34898e-05
5.4342e-05
4.47773e-05
3.48265e-05
2.45198e-05
1.38867e-05
2.95604e-06
-8.24361e-06
-1.96841e-05
-3.13375e-05
-4.31762e-05
-5.51727e-05
-6.72992e-05
-7.95283e-05
-9.18321e-05
-0.000104183
-0.000116552
-0.000128911
-0.000141232
-0.000153484
-0.000165639
-0.000177666
-0.000189534
-0.000201212
-0.000212669
-0.000223872
-0.000234789
-0.000245386
-0.00025563
-0.000265486
-0.00027492
-0.000283896
-0.00029238
-0.000300335
-0.000307726
-0.000314516
-0.000320669
-0.000326148
-0.000330916
-0.000334938
-0.000338176
-0.000340595
-0.000342159
-0.000342832
-0.000342581
-0.000341371
-0.000339168
-0.000335942
-0.000331668
-0.000326331
-0.00031987
-0.000312034
-0.000302636
-0.000293779
0.000130513
0.000137593
0.000144809
0.00015037
0.000154464
0.000157343
0.00015909
0.000159744
0.000159352
0.000157966
0.000155637
0.000152412
0.000148341
0.000143468
0.000137838
0.000131495
0.00012448
0.000116834
0.000108595
9.98001e-05
9.04858e-05
8.06866e-05
7.04357e-05
5.97656e-05
4.87072e-05
3.72912e-05
2.55468e-05
1.3503e-05
1.18791e-06
-1.13705e-05
-2.41449e-05
-3.71079e-05
-5.02326e-05
-6.34917e-05
-7.68581e-05
-9.03042e-05
-0.000103803
-0.000117325
-0.000130843
-0.000144328
-0.000157749
-0.000171078
-0.000184282
-0.000197331
-0.000210193
-0.000222833
-0.00023522
-0.000247317
-0.000259091
-0.000270504
-0.000281521
-0.000292105
-0.000302216
-0.000311818
-0.00032087
-0.000329333
-0.000337168
-0.000344333
-0.000350789
-0.000356495
-0.000361409
-0.000365491
-0.0003687
-0.000370997
-0.00037234
-0.000372691
-0.000372011
-0.000370262
-0.000367407
-0.000363419
-0.000358278
-0.000351917
-0.000344075
-0.000334555
-0.000325528
0.000171505
0.000178097
0.000184673
0.000189512
0.000192808
0.000194815
0.000195623
0.000195283
0.000193849
0.00019138
0.000187933
0.000183562
0.000178321
0.000172261
0.00016543
0.000157875
0.000149641
0.000140771
0.000131306
0.000121283
0.000110741
9.97151e-05
8.82388e-05
7.63448e-05
6.4064e-05
5.14267e-05
3.84618e-05
2.51975e-05
1.16611e-05
-2.12015e-06
-1.612e-05
-3.03119e-05
-4.46699e-05
-5.91676e-05
-7.37787e-05
-8.84764e-05
-0.000103234
-0.000118023
-0.000132816
-0.000147584
-0.000162298
-0.000176926
-0.000191438
-0.000205801
-0.000219982
-0.000233947
-0.000247661
-0.000261087
-0.000274188
-0.000286926
-0.000299261
-0.000311154
-0.000322563
-0.000333447
-0.000343762
-0.000353466
-0.000362514
-0.000370862
-0.000378463
-0.000385274
-0.000391248
-0.000396339
-0.000400502
-0.000403691
-0.00040586
-0.000406964
-0.000406961
-0.000405805
-0.000403456
-0.000399878
-0.00039505
-0.000388898
-0.000381148
-0.000371598
-0.00036247
0.000218628
0.000224493
0.000230154
0.000234007
0.000236248
0.00023713
0.000236752
0.000235176
0.000232465
0.000228686
0.000223903
0.000218177
0.000211566
0.000204128
0.000195913
0.000186974
0.000177357
0.000167106
0.000156266
0.000144875
0.000132971
0.000120591
0.000107767
9.4532e-05
8.09164e-05
6.69492e-05
5.2658e-05
3.80699e-05
2.32108e-05
8.10624e-06
-7.21895e-06
-2.27399e-05
-3.8432e-05
-5.42705e-05
-7.02302e-05
-8.62858e-05
-0.000102411
-0.00011858
-0.000134764
-0.000150935
-0.000167065
-0.000183121
-0.000199073
-0.000214888
-0.000230532
-0.000245968
-0.000261161
-0.000276072
-0.000290662
-0.00030489
-0.000318714
-0.000332091
-0.000344976
-0.000357323
-0.000369085
-0.000380216
-0.000390665
-0.000400384
-0.000409322
-0.000417428
-0.000424651
-0.000430939
-0.000436241
-0.000440504
-0.000443677
-0.00044571
-0.000446551
-0.000446151
-0.000444462
-0.000441443
-0.000437065
-0.000431249
-0.000423709
-0.000414237
-0.000405096
0.000272369
0.00027722
0.000281635
0.000284186
0.000285069
0.000284531
0.000282681
0.000279592
0.000275338
0.000269994
0.000263632
0.00025632
0.000248122
0.000239098
0.000229307
0.000218799
0.000207626
0.000195835
0.000183468
0.000170566
0.000157167
0.000143306
0.000129016
0.000114328
9.92703e-05
8.38703e-05
6.81538e-05
5.21456e-05
3.58694e-05
1.93483e-05
2.60496e-06
-1.43381e-05
-3.14585e-05
-4.87336e-05
-6.61404e-05
-8.36552e-05
-0.000101254
-0.00011891
-0.000136599
-0.000154292
-0.000171961
-0.000189576
-0.000207104
-0.000224512
-0.000241766
-0.000258828
-0.000275661
-0.000292224
-0.000308476
-0.000324373
-0.00033987
-0.00035492
-0.000369475
-0.000383485
-0.000396899
-0.000409663
-0.000421723
-0.000433026
-0.000443513
-0.000453129
-0.000461815
-0.000469514
-0.000476166
-0.000481713
-0.000486096
-0.000489257
-0.000491139
-0.000491683
-0.000490834
-0.000488545
-0.000484779
-0.000479449
-0.000472261
-0.000462998
-0.000453949
0.000333221
0.000336709
0.000339481
0.000340357
0.000339526
0.000337225
0.000333573
0.000328656
0.000322559
0.000315366
0.000307157
0.000298007
0.000287984
0.000277155
0.00026558
0.000253313
0.000240408
0.000226911
0.000212866
0.000198312
0.000183288
0.000167826
0.000151958
0.000135711
0.000119112
0.000102186
8.49551e-05
6.74407e-05
4.96635e-05
3.16433e-05
1.33995e-05
-5.04869e-06
-2.36819e-05
-4.24806e-05
-6.14243e-05
-8.04922e-05
-9.96621e-05
-0.000118911
-0.000138214
-0.000157544
-0.000176875
-0.000196177
-0.000215418
-0.000234565
-0.000253581
-0.00027243
-0.000291072
-0.000309464
-0.000327563
-0.000345321
-0.000362691
-0.000379622
-0.000396061
-0.000411954
-0.000427243
-0.000441871
-0.000455778
-0.000468902
-0.00048118
-0.000492548
-0.000502941
-0.000512293
-0.000520537
-0.000527608
-0.000533437
-0.000537958
-0.000541105
-0.000542811
-0.000543013
-0.000541655
-0.000538692
-0.000534027
-0.000527359
-0.000518463
-0.000509633
0.00040166
0.000403368
0.000404025
0.000402785
0.000399827
0.000395367
0.000389536
0.000382433
0.000374156
0.000364799
0.000354448
0.000343186
0.000331086
0.000318217
0.000304643
0.000290421
0.000275602
0.000260236
0.000244363
0.000228023
0.000211251
0.000194076
0.000176527
0.000158628
0.000140403
0.00012187
0.000103049
8.39569e-05
6.46093e-05
4.50219e-05
2.52095e-05
5.18717e-06
-1.50301e-05
-3.54265e-05
-5.59855e-05
-7.66896e-05
-9.75198e-05
-0.000118456
-0.000139475
-0.000160554
-0.000181666
-0.000202783
-0.000223874
-0.000244906
-0.000265842
-0.000286645
-0.000307272
-0.00032768
-0.000347823
-0.00036765
-0.000387109
-0.000406147
-0.000424704
-0.000442722
-0.000460137
-0.000476886
-0.000492901
-0.000508114
-0.000522454
-0.000535849
-0.000548225
-0.000559507
-0.000569621
-0.000578489
-0.000586036
-0.000592185
-0.000596858
-0.000599982
-0.00060148
-0.000601288
-0.000599351
-0.000595563
-0.000589613
-0.000581274
-0.000572817
0.000478125
0.00047756
0.000475543
0.000471672
0.000466105
0.000459033
0.000450593
0.000440903
0.000430071
0.000418202
0.000405389
0.000391719
0.000377272
0.000362119
0.000346325
0.000329947
0.000313037
0.000295641
0.000277799
0.000259546
0.000240914
0.000221928
0.000202611
0.000182984
0.000163063
0.000142863
0.000122395
0.000101673
8.0705e-05
5.95014e-05
3.80713e-05
1.64241e-05
-5.43066e-06
-2.74822e-05
-4.97189e-05
-7.21278e-05
-9.46941e-05
-0.000117401
-0.00014023
-0.000163159
-0.000186165
-0.000209221
-0.000232297
-0.000255361
-0.000278376
-0.000301304
-0.000324101
-0.000346722
-0.000369118
-0.000391236
-0.000413019
-0.000434408
-0.000455341
-0.000475751
-0.00049557
-0.000514725
-0.000533143
-0.000550746
-0.000567454
-0.000583187
-0.000597861
-0.00061139
-0.000623689
-0.000634672
-0.000644249
-0.000652333
-0.000658836
-0.000663672
-0.000666753
-0.000668003
-0.000667354
-0.000664691
-0.000659696
-0.00065214
-0.000644239
0.000562994
0.00055957
0.000554224
0.00054712
0.000538393
0.000528191
0.000516659
0.000503932
0.000490132
0.00047537
0.000459748
0.000443358
0.000426281
0.000408591
0.000390351
0.000371619
0.000352444
0.000332867
0.000312926
0.00029265
0.000272063
0.000251187
0.000230037
0.000208626
0.000186964
0.000165058
0.000142913
0.000120532
9.79191e-05
7.50751e-05
5.20024e-05
2.87034e-05
5.18072e-06
-1.85614e-05
-4.25175e-05
-6.66803e-05
-9.10404e-05
-0.000115586
-0.000140302
-0.000165172
-0.000190175
-0.000215285
-0.000240477
-0.000265717
-0.000290971
-0.000316199
-0.000341357
-0.000366398
-0.000391269
-0.000415914
-0.000440273
-0.000464281
-0.00048787
-0.000510968
-0.000533497
-0.000555377
-0.000576527
-0.000596858
-0.000616281
-0.000634705
-0.000652033
-0.000668171
-0.000683018
-0.000696477
-0.000708444
-0.000718821
-0.000727505
-0.000734396
-0.000739394
-0.000742407
-0.000743355
-0.000742109
-0.00073835
-0.000731845
-0.000724721
0.000656539
0.00064957
0.000640132
0.000629104
0.000616585
0.000602667
0.000587501
0.000571239
0.000554016
0.000535951
0.00051715
0.000497709
0.00047771
0.000457225
0.000436317
0.00041504
0.000393436
0.000371543
0.00034939
0.000326999
0.000304387
0.000281567
0.000258544
0.000235324
0.000211905
0.000188286
0.000164462
0.000140427
0.000116175
9.16974e-05
6.69876e-05
4.20396e-05
1.68475e-05
-8.59228e-06
-3.42826e-05
-6.02233e-05
-8.64116e-05
-0.000112842
-0.000139505
-0.000166388
-0.000193475
-0.000220745
-0.000248172
-0.000275728
-0.000303377
-0.000331081
-0.000358794
-0.000386468
-0.000414047
-0.000441472
-0.000468678
-0.000495594
-0.000522146
-0.000548254
-0.000573833
-0.000598793
-0.000623042
-0.000646482
-0.000669011
-0.000690525
-0.000710916
-0.000730074
-0.000747885
-0.000764236
-0.00077901
-0.000792091
-0.000803363
-0.000812708
-0.000820011
-0.000825164
-0.00082807
-0.000828586
-0.000826392
-0.000821256
-0.000815169
0.000758888
0.000747577
0.000733164
0.00071742
0.000700393
0.000682101
0.000662697
0.000642353
0.000621214
0.000599405
0.000577035
0.0005542
0.00053098
0.000507446
0.000483655
0.000459651
0.000435473
0.000411148
0.000386695
0.000362127
0.000337449
0.000312663
0.000287763
0.000262742
0.000237588
0.000212286
0.00018682
0.000161173
0.000135326
0.00010926
8.29575e-05
5.63997e-05
2.95734e-05
2.46456e-06
-2.49412e-05
-5.26515e-05
-8.06719e-05
-0.000109004
-0.000137647
-0.000166593
-0.000195832
-0.000225347
-0.000255117
-0.000285116
-0.00031531
-0.000345662
-0.000376125
-0.00040665
-0.000437179
-0.000467649
-0.00049799
-0.000528126
-0.000557974
-0.000587447
-0.00061645
-0.000644883
-0.000672643
-0.000699618
-0.000725693
-0.000750751
-0.000774666
-0.000797315
-0.000818565
-0.000838288
-0.000856347
-0.000872609
-0.000886939
-0.000899202
-0.000909262
-0.000916995
-0.000922281
-0.000924963
-0.000924723
-0.000921332
-0.000916592
0.000869969
0.000853396
0.000832996
0.000811634
0.000789293
0.000765894
0.000741588
0.000716565
0.000690979
0.000664959
0.000638613
0.000612033
0.000585297
0.000558465
0.000531587
0.000504698
0.000477824
0.000450979
0.000424171
0.000397398
0.000370651
0.000343917
0.000317176
0.000290407
0.000263582
0.000236672
0.000209648
0.000182476
0.000155125
0.000127562
9.97557e-05
7.1676e-05
4.32956e-05
1.45867e-05
-1.44734e-05
-4.39041e-05
-7.37215e-05
-0.000103937
-0.000134557
-0.000165584
-0.000197013
-0.000228835
-0.000261033
-0.000293585
-0.00032646
-0.000359621
-0.000393026
-0.00042662
-0.000460346
-0.000494137
-0.000527916
-0.000561603
-0.000595107
-0.00062833
-0.000661168
-0.00069351
-0.000725237
-0.000756225
-0.000786343
-0.000815456
-0.000843422
-0.000870097
-0.000895332
-0.000918975
-0.000940871
-0.000960865
-0.000978799
-0.000994517
-0.00100786
-0.00101869
-0.00102685
-0.00103217
-0.00103434
-0.00103314
-0.00103011
0.00098944
0.000966553
0.000939012
0.000911016
0.000882462
0.000853146
0.000823214
0.000792868
0.000762272
0.000731551
0.000700811
0.000670135
0.000639592
0.00060923
0.000579084
0.000549176
0.000519516
0.000490101
0.000460921
0.000431957
0.000403183
0.000374567
0.000346071
0.000317657
0.000289278
0.000260889
0.000232443
0.000203889
0.00017518
0.000146266
0.000117101
8.76385e-05
5.7836e-05
2.76528e-05
-2.94813e-06
-3.39995e-05
-6.55296e-05
-9.75618e-05
-0.000130114
-0.000163197
-0.000196817
-0.000230971
-0.00026565
-0.000300836
-0.000336506
-0.000372623
-0.000409146
-0.000446022
-0.000483191
-0.000520583
-0.000558117
-0.000595704
-0.000633247
-0.000670638
-0.000707759
-0.000744488
-0.000780689
-0.000816223
-0.00085094
-0.000884685
-0.000917298
-0.00094861
-0.000978451
-0.00100664
-0.00103301
-0.00105737
-0.00107954
-0.00109934
-0.00111658
-0.0011311
-0.00114271
-0.00115123
-0.00115635
-0.00115786
-0.00115698
0.00111661
0.00108622
0.00105023
0.00101447
0.000978705
0.000942588
0.000906244
0.00086989
0.00083369
0.000797766
0.000762209
0.000727092
0.000692466
0.000658363
0.000624798
0.000591773
0.000559276
0.000527283
0.000495763
0.000464673
0.000433967
0.000403589
0.000373482
0.000343584
0.000313829
0.000284151
0.00025448
0.00022475
0.000194892
0.000164837
0.000134522
0.000103881
7.28551e-05
4.13863e-05
9.42139e-06
-2.30881e-05
-5.61857e-05
-8.99088e-05
-0.000124289
-0.000159349
-0.000195107
-0.000231571
-0.00026874
-0.000306605
-0.000345146
-0.000384335
-0.000424132
-0.000464485
-0.000505334
-0.000546604
-0.000588213
-0.000630064
-0.00067205
-0.000714052
-0.000755941
-0.000797578
-0.000838811
-0.000879482
-0.000919419
-0.000958447
-0.000996378
-0.00103302
-0.00106818
-0.00110164
-0.00113321
-0.00116267
-0.00118981
-0.00121441
-0.00123627
-0.00125517
-0.00127091
-0.00128328
-0.00129198
-0.00129682
-0.00129858
0.00125035
0.0012111
0.00116523
0.00112043
0.00107637
0.00103249
0.000988899
0.000945814
0.000903397
0.000861757
0.000820966
0.000781077
0.000742116
0.000704092
0.000666994
0.000630796
0.000595459
0.000560934
0.000527158
0.000494066
0.000461581
0.000429624
0.000398112
0.000366957
0.000336069
0.000305358
0.000274733
0.000244102
0.000213376
0.000182464
0.000151282
0.000119743
8.77674e-05
5.52783e-05
2.22029e-05
-1.15258e-05
-4.59695e-05
-8.11828e-05
-0.000117213
-0.000154101
-0.000191877
-0.000230562
-0.00027017
-0.000310699
-0.000352141
-0.000394473
-0.00043766
-0.000481654
-0.000526396
-0.00057181
-0.000617807
-0.000664287
-0.000711132
-0.000758213
-0.000805386
-0.000852494
-0.000899368
-0.000945826
-0.000991675
-0.00103671
-0.00108072
-0.00112348
-0.00116476
-0.00120432
-0.00124193
-0.00127733
-0.00131028
-0.00134053
-0.00136783
-0.00139193
-0.00141259
-0.00142957
-0.00144259
-0.00145148
-0.0014565
0.00138898
0.00133938
0.00128199
0.00122679
0.00117325
0.00112059
0.00106886
0.00101829
0.000969029
0.000921161
0.000874732