/*--------------------------------*- C++ -*----------------------------------*\
  =========                 |
  \\      /  F ield         | OpenFOAM: The Open Source CFD Toolbox
   \\    /   O peration     | Website:  https://openfoam.org
    \\  /    A nd           | Version:  12
     \\/     M anipulation  |
\*---------------------------------------------------------------------------*/
FoamFile
{
    format      ascii;
    class       surfaceScalarField;
    location    "2";
    object      phi;
}
// * * * * * * * * * * * * * * * * * * * * * * * * * * * * * * * * * * * * * //

dimensions      [0 3 -1 0 0 0 0];

internalField   nonuniform List<scalar> 
11100
(
-1.36748e-11
1.3237e-11
-2.90332e-11
1.53543e-11
-3.27628e-11
3.73884e-12
-1.79543e-11
-1.48072e-11
1.86024e-11
-3.65468e-11
7.78418e-11
-5.92361e-11
1.59341e-10
-8.14908e-11
2.6181e-10
-1.02466e-10
3.83482e-10
-1.21665e-10
5.22305e-10
-1.3882e-10
6.76114e-10
-1.53804e-10
8.427e-10
-1.66584e-10
1.01989e-09
-1.77184e-10
1.20555e-09
-1.85663e-10
1.39766e-09
-1.92106e-10
1.59427e-09
-1.96606e-10
1.79354e-09
-1.99267e-10
1.99373e-09
-2.00194e-10
2.19323e-09
-1.99493e-10
2.3905e-09
-1.97271e-10
2.58413e-09
-1.93629e-10
2.7728e-09
-1.88668e-10
2.95528e-09
-1.82485e-10
3.13046e-09
-1.75174e-10
3.29728e-09
-1.66826e-10
3.45481e-09
-1.57528e-10
3.60218e-09
-1.47364e-10
3.73859e-09
-1.36415e-10
3.86335e-09
-1.2476e-10
3.97582e-09
-1.12473e-10
4.07545e-09
-9.96294e-11
4.16175e-09
-8.62996e-11
4.23431e-09
-7.25534e-11
4.29277e-09
-5.84593e-11
4.33685e-09
-4.40846e-11
4.36635e-09
-2.94958e-11
4.3811e-09
-1.4759e-11
4.38105e-09
5.95751e-14
4.36615e-09
1.48936e-11
4.33647e-09
2.96764e-11
4.29213e-09
4.43402e-11
4.23332e-09
5.88162e-11
4.16028e-09
7.30342e-11
4.07336e-09
8.69224e-11
3.97295e-09
1.00407e-10
3.85954e-09
1.13413e-10
3.73368e-09
1.25862e-10
3.596e-09
1.37674e-10
3.44723e-09
1.48766e-10
3.28818e-09
1.59053e-10
3.11973e-09
1.68447e-10
2.94287e-09
1.76859e-10
2.75868e-09
1.84193e-10
2.56832e-09
1.90357e-10
2.37307e-09
1.9525e-10
2.1743e-09
1.98775e-10
1.97347e-09
2.00828e-10
1.77216e-09
2.01307e-10
1.57205e-09
2.00108e-10
1.37492e-09
1.9713e-10
1.18265e-09
1.92272e-10
9.97207e-10
1.8544e-10
8.20656e-10
1.76549e-10
6.55127e-10
1.6553e-10
5.02789e-10
1.52336e-10
3.65824e-10
1.36964e-10
2.46354e-10
1.19469e-10
1.46353e-10
1e-10
6.74961e-11
7.88557e-11
1.09353e-11
5.65599e-11
-2.30531e-11
3.39876e-11
-3.56007e-11
1.25466e-11
-3.00755e-11
-5.52601e-12
-1.36118e-11
-1.64643e-11
-1.36119e-11
5.79663e-13
1.26652e-11
2.16865e-11
-5.75478e-12
7.77012e-11
-5.22662e-11
1.77452e-10
-1.14557e-10
3.2555e-10
-1.84636e-10
5.235e-10
-2.57184e-10
7.70611e-10
-3.28596e-10
1.06461e-09
-3.96461e-10
1.40215e-09
-4.59206e-10
1.77919e-09
-5.15851e-10
2.19121e-09
-5.65826e-10
2.63348e-09
-6.08851e-10
3.10115e-09
-6.44846e-10
3.58935e-09
-6.73871e-10
4.09333e-09
-6.96082e-10
4.60843e-09
-7.11704e-10
5.13017e-09
-7.21002e-10
5.65425e-09
-7.24274e-10
6.17659e-09
-7.21832e-10
6.69332e-09
-7.14e-10
7.2008e-09
-7.01104e-10
7.6956e-09
-6.83471e-10
8.17454e-09
-6.61423e-10
8.63464e-09
-6.35279e-10
9.07317e-09
-6.05349e-10
9.48758e-09
-5.71937e-10
9.87555e-09
-5.35341e-10
1.0235e-08
-4.95848e-10
1.0564e-08
-4.53739e-10
1.08608e-08
-4.09289e-10
1.11239e-08
-3.62765e-10
1.1352e-08
-3.1443e-10
1.1544e-08
-2.6454e-10
1.16989e-08
-2.13348e-10
1.18159e-08
-1.61104e-10
1.18945e-08
-1.08058e-10
1.19342e-08
-5.4455e-11
1.19348e-08
-5.42982e-13
1.18963e-08
5.343e-11
1.18187e-08
1.07214e-10
1.17025e-08
1.60556e-10
1.15481e-08
2.13199e-10
1.13563e-08
2.64882e-10
1.11279e-08
3.15339e-10
1.0864e-08
3.64298e-10
1.05659e-08
4.11479e-10
1.02352e-08
4.56597e-10
9.87348e-09
4.9936e-10
9.48278e-09
5.39469e-10
9.06521e-09
5.76617e-10
8.62317e-09
6.10491e-10
8.15926e-09
6.40772e-10
7.67631e-09
6.67134e-10
7.17742e-09
6.89249e-10
6.66589e-09
7.06783e-10
6.14526e-09
7.19404e-10
5.6193e-09
7.2678e-10
5.09203e-09
7.28584e-10
4.56763e-09
7.245e-10
4.05054e-09
7.14226e-10
3.54532e-09
6.97486e-10
3.05672e-09
6.7404e-10
2.58957e-09
6.43701e-10
2.14875e-09
6.06353e-10
1.73909e-09
5.61988e-10
1.36531e-09
5.10745e-10
1.03181e-09
4.52972e-10
7.42494e-10
3.89312e-10
5.00522e-10
3.20826e-10
3.07909e-10
2.49172e-10
1.65052e-10
1.76843e-10
7.00856e-11
1.07513e-10
1.80135e-11
4.65457e-11
-4.35718e-13
1.98438e-12
-1.40477e-11
2.40164e-11
-1.13491e-11
1.03937e-10
-8.5677e-11
2.4637e-10
-1.94695e-10
4.55686e-10
-3.23872e-10
7.33937e-10
-4.62883e-10
1.08101e-09
-6.04257e-10
1.495e-09
-7.42576e-10
1.9725e-09
-8.73962e-10
2.50901e-09
-9.95712e-10
3.09916e-09
-1.10601e-09
3.73703e-09
-1.20369e-09
4.41629e-09
-1.28811e-09
5.13039e-09
-1.35895e-09
5.87273e-09
-1.41621e-09
6.6367e-09
-1.46005e-09
7.4158e-09
-1.49081e-09
8.20371e-09
-1.50891e-09
8.9943e-09
-1.51487e-09
9.78171e-09
-1.50923e-09
1.05603e-08
-1.4926e-09
1.13248e-08
-1.46559e-09
1.20701e-08
-1.42882e-09
1.27916e-08
-1.38292e-09
1.34849e-08
-1.32851e-09
1.41457e-08
-1.26622e-09
1.47705e-08
-1.19666e-09
1.53556e-08
-1.12042e-09
1.58978e-08
-1.0381e-09
1.63943e-08
-9.50277e-10
1.68426e-08
-8.57514e-10
1.72402e-08
-7.60368e-10
1.75851e-08
-6.59387e-10
1.78757e-08
-5.55109e-10
1.81104e-08
-4.48066e-10
1.82881e-08
-3.38786e-10
1.84078e-08
-2.27792e-10
1.8469e-08
-1.15607e-10
1.84712e-08
-2.75583e-12
1.84144e-08
1.10237e-10
1.82988e-08
2.2284e-10
1.81248e-08
3.34519e-10
1.78933e-08
4.44729e-10
1.76052e-08
5.52919e-10
1.7262e-08
6.58525e-10
1.68654e-08
7.60975e-10
1.64172e-08
8.59684e-10
1.59197e-08
9.54054e-10
1.53756e-08
1.04348e-09
1.47877e-08
1.12733e-09
1.41594e-08
1.20498e-09
1.34941e-08
1.27578e-09
1.27958e-08
1.33909e-09
1.20686e-08
1.39425e-09
1.13173e-08
1.44059e-09
1.05466e-08
1.47746e-09
9.76183e-09
1.5042e-09
8.96842e-09
1.52019e-09
8.17222e-09
1.52479e-09
7.37928e-09
1.51744e-09
6.59592e-09
1.49759e-09
5.82863e-09
1.46477e-09
5.08406e-09
1.41861e-09
4.36892e-09
1.35885e-09
3.68988e-09
1.28539e-09
3.0535e-09
1.19836e-09
2.46609e-09
1.09816e-09
1.93348e-09
9.85581e-10
1.46087e-09
8.61921e-10
1.05255e-09
7.29146e-10
7.11607e-10
5.90113e-10
4.39596e-10
4.48854e-10
2.3618e-10
3.10928e-10
9.87998e-11
1.83925e-10
2.25288e-11
7.82549e-11
8.48108e-12
4.74823e-11
-5.8831e-11
1.87875e-10
-2.26071e-10
4.19939e-10
-4.26758e-10
7.42335e-10
-6.46268e-10
1.15295e-09
-8.73498e-10
1.64865e-09
-1.09995e-09
2.22524e-09
-1.31916e-09
2.87753e-09
-1.52626e-09
3.59952e-09
-1.7177e-09
4.3845e-09
-1.89099e-09
5.22526e-09
-2.04445e-09
6.11422e-09
-2.17706e-09
7.04359e-09
-2.28832e-09
8.00547e-09
-2.37809e-09
8.99198e-09
-2.44656e-09
9.99532e-09
-2.49415e-09
1.10079e-08
-2.52145e-09
1.20222e-08
-2.52918e-09
1.30311e-08
-2.51817e-09
1.40278e-08
-2.48931e-09
1.50058e-08
-2.44352e-09
1.59587e-08
-2.38177e-09
1.68808e-08
-2.30505e-09
1.77667e-08
-2.21433e-09
1.86111e-08
-2.11062e-09
1.94093e-08
-1.99487e-09
2.01569e-08
-1.86807e-09
2.085e-08
-1.73116e-09
2.14848e-08
-1.5851e-09
2.20581e-08
-1.4308e-09
2.25669e-08
-1.26919e-09
2.30087e-08
-1.10116e-09
2.33812e-08
-9.27601e-10
2.36825e-08
-7.49403e-10
2.39112e-08
-5.6744e-10
2.40659e-08
-3.82585e-10
2.41461e-08
-1.95711e-10
2.4151e-08
-7.6915e-12
2.40806e-08
1.80593e-10
2.39352e-08
3.68256e-10
2.37153e-08
5.54402e-10
2.34219e-08
7.38121e-10
2.30564e-08
9.18492e-10
2.26203e-08
1.09458e-09
2.21159e-08
1.26542e-09
2.15455e-08
1.43004e-09
2.09121e-08
1.58747e-09
2.02189e-08
1.73668e-09
1.94696e-08
1.87665e-09
1.86682e-08
2.00635e-09
1.78193e-08
2.12472e-09
1.69276e-08
2.23071e-09
1.59986e-08
2.32325e-09
1.50379e-08
2.40129e-09
1.40516e-08
2.46377e-09
1.30461e-08
2.50968e-09
1.20283e-08
2.53802e-09
1.10053e-08
2.54784e-09
9.98442e-09
2.53827e-09
8.97349e-09
2.50852e-09
7.98033e-09
2.45792e-09
7.01298e-09
2.38596e-09
6.07949e-09
2.29233e-09
5.1879e-09
2.17698e-09
4.34608e-09
2.04018e-09
3.56162e-09
1.88262e-09
2.84167e-09
1.70553e-09
2.19279e-09
1.51079e-09
1.62079e-09
1.30114e-09
1.13053e-09
1.08037e-09
7.25813e-10
8.53575e-10
4.09266e-10
6.27474e-10
1.82409e-10
4.10782e-10
4.58598e-11
2.14804e-10
5.43408e-11
6.84443e-11
-1.27274e-10
2.64567e-10
-4.22193e-10
5.80735e-10
-7.42924e-10
1.01025e-09
-1.07578e-09
1.54662e-09
-1.40987e-09
2.18323e-09
-1.73656e-09
2.91308e-09
-2.04901e-09
3.72874e-09
-2.34191e-09
4.62234e-09
-2.61129e-09
5.58562e-09
-2.85427e-09
6.61001e-09
-3.06884e-09
7.68674e-09
-3.25379e-09
8.80687e-09
-3.40845e-09
9.96146e-09
-3.53268e-09
1.11416e-08
-3.62671e-09
1.23385e-08
-3.69107e-09
1.35436e-08
-3.72654e-09
1.47485e-08
-3.73409e-09
1.59452e-08
-3.71482e-09
1.71258e-08
-3.66994e-09
1.8283e-08
-3.60072e-09
1.94098e-08
-3.50851e-09
2.04994e-08
-3.39466e-09
2.15456e-08
-3.26056e-09
2.25426e-08
-3.1076e-09
2.34849e-08
-2.93715e-09
2.43674e-08
-2.75061e-09
2.51856e-08
-2.54934e-09
2.59352e-08
-2.33468e-09
2.66123e-08
-2.10798e-09
2.72137e-08
-1.87055e-09
2.77362e-08
-1.62369e-09
2.81773e-08
-1.36871e-09
2.85348e-08
-1.10688e-09
2.88069e-08
-8.39482e-10
2.89921e-08
-5.67795e-10
2.90895e-08
-2.93092e-10
2.90984e-08
-1.66526e-11
2.90188e-08
2.60234e-10
2.88508e-08
5.36268e-10
2.8595e-08
8.10135e-10
2.82526e-08
1.0805e-09
2.78251e-08
1.34602e-09
2.73144e-08
1.60531e-09
2.67228e-08
1.85698e-09
2.60533e-08
2.0996e-09
2.5309e-08
2.33173e-09
2.44938e-08
2.5519e-09
2.36118e-08
2.75863e-09
2.26677e-08
2.9504e-09
2.16667e-08
3.12571e-09
2.06144e-08
3.28303e-09
1.95168e-08
3.42084e-09
1.83805e-08
3.53763e-09
1.72124e-08
3.63191e-09
1.60198e-08
3.70225e-09
1.48106e-08
3.74725e-09
1.35928e-08
3.76561e-09
1.23749e-08
3.75613e-09
1.11657e-08
3.71773e-09
9.9741e-09
3.64954e-09
8.80918e-09
3.55088e-09
7.68015e-09
3.42136e-09
6.5962e-09
3.26093e-09
5.56641e-09
3.06997e-09
4.59965e-09
2.84938e-09
3.70452e-09
2.60067e-09
2.88917e-09
2.32614e-09
2.1613e-09
2.02902e-09
1.52804e-09
1.71363e-09
9.95966e-10
1.38564e-09
5.71197e-10
1.05224e-09
2.59545e-10
7.22434e-10
6.69156e-11
4.07433e-10
1.21256e-10
8.65563e-11
-2.13829e-10
3.3196e-10
-6.67597e-10
7.23665e-10
-1.13463e-09
1.25045e-09
-1.60256e-09
1.90186e-09
-2.06128e-09
2.66784e-09
-2.50254e-09
3.53851e-09
-2.91967e-09
4.50399e-09
-3.3074e-09
5.55439e-09
-3.66169e-09
6.67973e-09
-3.9796e-09
7.86997e-09
-4.25909e-09
9.11507e-09
-4.49888e-09
1.0405e-08
-4.69839e-09
1.17299e-08
-4.85752e-09
1.30798e-08
-4.97666e-09
1.44453e-08
-5.05654e-09
1.58169e-08
-5.09817e-09
1.71856e-08
-5.10281e-09
1.85427e-08
-5.07187e-09
1.98797e-08
-5.00692e-09
2.11885e-08
-4.90962e-09
2.24617e-08
-4.78169e-09
2.3692e-08
-4.62492e-09
2.48725e-08
-4.4411e-09
2.5997e-08
-4.23206e-09
2.70595e-08
-3.99962e-09
2.80544e-08
-3.74558e-09
2.89769e-08
-3.47176e-09
2.98221e-08
-3.17993e-09
3.0586e-08
-2.87187e-09
3.12648e-08
-2.54934e-09
3.18552e-08
-2.21407e-09
3.23542e-08
-1.86779e-09
3.27596e-08
-1.51221e-09
3.30691e-08
-1.14905e-09
3.32814e-08
-7.80014e-10
3.33951e-08
-4.06821e-10
3.34096e-08
-3.11886e-11
3.33247e-08
3.45148e-10
3.31405e-08
7.20439e-10
3.28578e-08
1.09291e-09
3.24775e-08
1.46077e-09
3.20013e-08
1.82219e-09
3.14313e-08
2.17532e-09
3.077e-08
2.51827e-09
3.00205e-08
2.84913e-09
2.91862e-08
3.16595e-09
2.82714e-08
3.46676e-09
2.72805e-08
3.74956e-09
2.62185e-08
4.01233e-09
2.50912e-08
4.25304e-09
2.39046e-08
4.46966e-09
2.26652e-08
4.66017e-09
2.13803e-08
4.82255e-09
2.00574e-08
4.95485e-09
1.87045e-08
5.05516e-09
1.73301e-08
5.12165e-09
1.5943e-08
5.15262e-09
1.45527e-08
5.14649e-09
1.31685e-08
5.10188e-09
1.18004e-08
5.01762e-09
1.04585e-08
4.89282e-09
9.15291e-09
4.72695e-09
7.89396e-09
4.51987e-09
6.69198e-09
4.27195e-09
5.55723e-09
3.98413e-09
4.49984e-09
3.65805e-09
3.5298e-09
3.29618e-09
2.65689e-09
2.90192e-09
1.89072e-09
2.4798e-09
1.2408e-09
2.03557e-09
7.1664e-10
1.5764e-09
3.28009e-10
1.11106e-09
8.5281e-11
6.5016e-10
2.06537e-10
1.02111e-10
-3.15939e-10
3.90488e-10
-9.55974e-10
8.48794e-10
-1.59293e-09
1.46211e-09
-2.21587e-09
2.21652e-09
-2.8157e-09
3.09887e-09
-3.38489e-09
4.09651e-09
-3.91731e-09
5.19717e-09
-4.40806e-09
6.38888e-09
-4.8534e-09
7.65989e-09
-5.25061e-09
8.99865e-09
-5.59785e-09
1.03938e-08
-5.89406e-09
1.18343e-08
-6.13886e-09
1.33092e-08
-6.33241e-09
1.48079e-08
-6.47535e-09
1.632e-08
-6.56871e-09
1.78357e-08
-6.61384e-09
1.93452e-08
-6.61234e-09
2.08394e-08
-6.56602e-09
2.23093e-08
-6.47683e-09
2.37465e-08
-6.34685e-09
2.51431e-08
-6.17824e-09
2.64914e-08
-5.97321e-09
2.77843e-08
-5.73402e-09
2.90151e-08
-5.46293e-09
3.01778e-08
-5.16222e-09
3.12663e-08
-4.83415e-09
3.22755e-08
-4.48098e-09
3.32005e-08
-4.10493e-09
3.40369e-08
-3.70824e-09
3.47807e-08
-3.29311e-09
3.54283e-08
-2.86171e-09
3.59768e-08
-2.41623e-09
3.64234e-08
-1.95882e-09
3.6766e-08
-1.49165e-09
3.70028e-08
-1.01687e-09
3.71327e-08
-5.36652e-10
3.71547e-08
-5.31747e-11
3.70684e-08
4.31362e-10
3.68742e-08
9.14736e-10
3.65724e-08
1.3947e-09
3.61642e-08
1.86896e-09
3.56512e-08
2.3352e-09
3.50354e-08
2.79105e-09
3.43196e-08
3.23413e-09
3.35067e-08
3.66198e-09
3.26006e-08
4.07213e-09
3.16053e-08
4.46206e-09
3.05256e-08
4.82922e-09
2.93669e-08
5.17105e-09
2.8135e-08
5.48496e-09
2.68363e-08
5.76836e-09
2.54777e-08
6.0187e-09
2.40669e-08
6.23341e-09
2.26117e-08
6.41001e-09
2.11208e-08
6.54609e-09
1.96031e-08
6.63933e-09
1.80682e-08
6.68756e-09
1.65259e-08
6.68877e-09
1.49866e-08
6.64119e-09
1.34609e-08
6.5433e-09
1.19598e-08
6.39392e-09
1.04945e-08
6.19223e-09
9.07648e-09
5.93791e-09
7.71727e-09
5.63116e-09
6.4286e-09
5.27279e-09
5.22227e-09
4.86438e-09
4.11017e-09
4.40829e-09
3.10424e-09
3.90785e-09
2.21658e-09
3.36746e-09
1.4595e-09
2.79265e-09
8.45636e-10
2.19026e-09
3.88201e-10
1.5685e-09
1.01232e-10
9.37129e-10
3.07768e-10
1.15532e-10
-4.3147e-10
4.41296e-10
-1.28174e-09
9.57916e-10
-2.10955e-09
1.6474e-09
-2.90535e-09
2.49287e-09
-3.66118e-09
3.47841e-09
-4.37043e-09
4.58882e-09
-5.02773e-09
5.8096e-09
-5.62884e-09
7.12677e-09
-6.17057e-09
8.52685e-09
-6.65069e-09
9.99681e-09
-7.0678e-09
1.1524e-08
-7.42129e-09
1.30963e-08
-7.71116e-09
1.47019e-08
-7.938e-09
1.63294e-08
-8.10285e-09
1.79679e-08
-8.20718e-09
1.96068e-08
-8.25277e-09
2.12362e-08
-8.24165e-09
2.28462e-08
-8.17609e-09
2.44279e-08
-8.05851e-09
2.59725e-08
-7.89144e-09
2.74718e-08
-7.67751e-09
2.8918e-08
-7.41941e-09
3.03038e-08
-7.11987e-09
3.16225e-08
-6.7816e-09
3.28676e-08
-6.40735e-09
3.40333e-08
-5.99985e-09
3.51141e-08
-5.56181e-09
3.61051e-08
-5.09592e-09
3.70017e-08
-4.60484e-09
3.77999e-08
-4.09124e-09
3.84959e-08
-3.55773e-09
3.90866e-08
-3.00693e-09
3.95692e-08
-2.44144e-09
3.99414e-08
-1.86389e-09
4.02014e-08
-1.27686e-09
4.03477e-08
-6.8299e-10
4.03795e-08
-8.49109e-11
4.02961e-08
5.14708e-10
4.00977e-08
1.11317e-09
3.97847e-08
1.70773e-09
3.9358e-08
2.29561e-09
3.88192e-08
2.87398e-09
3.81703e-08
3.43996e-09
3.74138e-08
3.99061e-09
3.65529e-08
4.52294e-09
3.55911e-08
5.03392e-09
3.45327e-08
5.52046e-09
3.33825e-08
5.97943e-09
3.21458e-08
6.40769e-09
3.08287e-08
6.80206e-09
2.94377e-08
7.15937e-09
2.798e-08
7.47644e-09
2.64632e-08
7.75015e-09
2.48958e-08
7.97743e-09
2.32866e-08
8.15529e-09
2.16451e-08
8.28086e-09
1.99812e-08
8.35144e-09
1.83054e-08
8.36453e-09
1.66288e-08
8.31784e-09
1.49626e-08
8.20944e-09
1.33189e-08
8.0377e-09
1.17096e-08
7.80144e-09
1.01476e-08
7.49997e-09
8.64557e-09
7.13317e-09
7.21679e-09
6.70157e-09
5.87474e-09
6.20642e-09
4.63321e-09
5.64982e-09
3.50628e-09
5.03478e-09
2.50843e-09
4.36531e-09
1.65456e-09
3.64652e-09
9.60135e-10
2.88468e-09
4.41327e-10
2.0873e-09
1.15203e-10
1.26325e-09
4.22972e-10
1.27207e-10
-5.58676e-10
4.85558e-10
-1.64009e-09
1.05309e-09
-2.67708e-09
1.80916e-09
-3.66143e-09
2.73433e-09
-4.58634e-09
3.81018e-09
-5.44628e-09
5.01927e-09
-6.23681e-09
6.34499e-09
-6.95456e-09
7.77153e-09
-7.5971e-09
9.28377e-09
-8.16292e-09
1.08673e-08
-8.65131e-09
1.25082e-08
-9.06226e-09
1.41935e-08
-9.39639e-09
1.59103e-08
-9.65487e-09
1.76468e-08
-9.83933e-09
1.93914e-08
-9.95177e-09
2.11332e-08
-9.99453e-09
2.28617e-08
-9.9702e-09
2.45672e-08
-9.88157e-09
2.62403e-08
-9.73159e-09
2.78722e-08
-9.52331e-09
2.94545e-08
-9.25988e-09
3.09796e-08
-8.94448e-09
3.244e-08
-8.58032e-09
3.38291e-08
-8.17063e-09
3.51403e-08
-7.7186e-09
3.63679e-08
-7.22744e-09
3.75064e-08
-6.7003e-09
3.85508e-08
-6.14032e-09
3.94966e-08
-5.5506e-09
4.03396e-08
-4.93424e-09
4.10761e-08
-4.29428e-09
4.17029e-08
-3.63377e-09
4.22172e-08
-2.95573e-09
4.26166e-08
-2.26321e-09
4.2899e-08
-1.55925e-09
4.30629e-08
-8.46896e-10
4.31072e-08
-1.29242e-10
4.30313e-08
5.90594e-10
4.2835e-08
1.30944e-09
4.25187e-08
2.02409e-09
4.2083e-08
2.73125e-09
4.15294e-08
3.4276e-09
4.08597e-08
4.10972e-09
4.00761e-08
4.77413e-09
3.91818e-08
5.41729e-09
3.81801e-08
6.03559e-09
3.70752e-08
6.62535e-09
3.58718e-08
7.18285e-09
3.45752e-08
7.70432e-09
3.31913e-08
8.18596e-09
3.17267e-08
8.62396e-09
3.01886e-08
9.01451e-09
2.85849e-08
9.35384e-09
2.69241e-08
9.63824e-09
2.52153e-08
9.86409e-09
2.34683e-08
1.00279e-08
2.16934e-08
1.01263e-08
1.99017e-08
1.01562e-08
1.81047e-08
1.01148e-08
1.63146e-08
9.99959e-09
1.45439e-08
9.80831e-09
1.28061e-08
9.53932e-09
1.11146e-08
9.1914e-09
9.48386e-09
8.76394e-09
7.92843e-09
8.257e-09
6.46348e-09
7.67136e-09
5.10468e-09
7.00863e-09
3.86816e-09
6.27129e-09
2.77065e-09
5.46282e-09
1.82944e-09
4.58772e-09
1.06254e-09
3.65159e-09
4.88708e-10
2.66113e-09
1.2762e-10
1.62434e-09
5.50591e-10
1.37435e-10
-6.9611e-10
5.2421e-10
-2.02686e-09
1.13601e-09
-3.28888e-09
1.94981e-09
-4.47523e-09
2.94384e-09
-5.58037e-09
4.09748e-09
-6.59992e-09
5.3912e-09
-7.53053e-09
6.80651e-09
-8.36987e-09
8.3259e-09
-9.1165e-09
9.93279e-09
-9.76981e-09
1.16115e-08
-1.033e-08
1.3347e-08
-1.07978e-08
1.51254e-08
-1.11748e-08
1.69332e-08
-1.14627e-08
1.8758e-08
-1.1664e-08
2.05876e-08
-1.17815e-08
2.24111e-08
-1.1818e-08
2.42177e-08
-1.17768e-08
2.59975e-08
-1.16614e-08
2.77411e-08
-1.14752e-08
2.94399e-08
-1.1222e-08
3.10854e-08
-1.09055e-08
3.26702e-08
-1.05292e-08
3.41869e-08
-1.00971e-08
3.5629e-08
-9.61268e-09
3.69901e-08
-9.07976e-09
3.82646e-08
-8.50194e-09
3.94472e-08
-7.88283e-09
4.05328e-08
-7.22599e-09
4.15172e-08
-6.53494e-09
4.23961e-08
-5.81317e-09
4.3166e-08
-5.06414e-09
4.38235e-08
-4.29127e-09
4.43657e-08
-3.49801e-09
4.47903e-08
-2.68776e-09
4.5095e-08
-1.86398e-09
4.52782e-08
-1.03012e-09
4.53387e-08
-1.89697e-10
4.52755e-08
6.53752e-10
4.50884e-08
1.49661e-09
4.47772e-08
2.33521e-09
4.43427e-08
3.1658e-09
4.37858e-08
3.98452e-09
4.3108e-08
4.78747e-09
4.23115e-08
5.57062e-09
4.13989e-08
6.32987e-09
4.03735e-08
7.06103e-09
3.9239e-08
7.7598e-09
3.8e-08
8.42185e-09
3.66616e-08
9.04276e-09
3.52295e-08
9.61807e-09
3.37102e-08
1.01433e-08
3.21108e-08
1.06139e-08
3.04392e-08
1.10255e-08
2.87039e-08
1.13735e-08
2.69142e-08
1.16538e-08
2.50801e-08
1.1862e-08
2.32123e-08
1.19941e-08
2.13222e-08
1.20463e-08
1.94219e-08
1.20151e-08
1.75243e-08
1.18973e-08
1.56427e-08
1.16899e-08
1.37914e-08
1.13906e-08
1.19852e-08
1.09976e-08
1.02395e-08
1.05096e-08
8.57062e-09
9.92593e-09
6.99518e-09
9.2468e-09
5.53069e-09
8.47312e-09
4.19524e-09
7.60673e-09
3.00766e-09
6.6504e-09
1.9875e-09
5.60788e-09
1.15507e-09
4.48401e-09
5.31514e-10
3.28469e-09
1.38838e-10
2.01701e-09
6.89429e-10
1.46411e-10
-8.4252e-10
5.5786e-10
-2.43831e-09
1.20775e-09
-3.93877e-09
2.07083e-09
-5.33831e-09
3.12313e-09
-6.63268e-09
4.34201e-09
-7.81879e-09
5.70604e-09
-8.89456e-09
7.19503e-09
-9.85886e-09
8.78996e-09
-1.07114e-08
1.04729e-08
-1.14528e-08
1.22271e-08
-1.20841e-08
1.40366e-08
-1.26074e-08
1.58868e-08
-1.30249e-08
1.77636e-08
-1.33395e-08
1.96541e-08
-1.35545e-08
2.15461e-08
-1.36735e-08
2.34283e-08
-1.37002e-08
2.52901e-08
-1.36385e-08
2.71215e-08
-1.34928e-08
2.89133e-08
-1.32671e-08
3.06571e-08
-1.29658e-08
3.23447e-08
-1.25931e-08
3.39688e-08
-1.21533e-08
3.55225e-08
-1.16508e-08
3.69994e-08
-1.10895e-08
3.83935e-08
-1.04739e-08
3.96994e-08
-9.80781e-09
4.09119e-08
-9.09538e-09
4.20265e-08
-8.34053e-09
4.30387e-08
-7.54717e-09
4.39447e-08
-6.71914e-09
4.47408e-08
-5.86025e-09
4.54238e-08
-4.97428e-09
4.59908e-08
-4.06501e-09
4.64392e-08
-3.13621e-09
4.67669e-08
-2.19165e-09
4.6972e-08
-1.23518e-09
4.70529e-08
-2.70657e-10
4.70087e-08
6.97985e-10
4.68386e-08
1.66673e-09
4.65423e-08
2.63148e-09
4.61201e-08
3.58803e-09
4.55725e-08
4.53208e-09
4.49008e-08
5.45919e-09
4.41066e-08
6.36482e-09
4.31922e-08
7.24431e-09
4.21603e-08
8.09288e-09
4.10145e-08
8.90563e-09
3.97588e-08
9.67756e-09
3.83979e-08
1.04036e-08
3.69375e-08
1.10786e-08
3.53835e-08
1.16972e-08
3.3743e-08
1.22544e-08
3.20237e-08
1.27448e-08
3.0234e-08
1.31632e-08
2.83832e-08
1.35045e-08
2.64815e-08
1.37637e-08
2.45398e-08
1.39358e-08
2.25698e-08
1.40163e-08
2.05841e-08
1.40008e-08
1.85961e-08
1.38853e-08
1.66201e-08
1.36659e-08
1.46711e-08
1.33396e-08
1.2765e-08
1.29037e-08
1.09185e-08
1.2356e-08
9.1492e-09
1.16952e-08
7.47543e-09
1.09206e-08
5.91635e-09
1.00322e-08
4.49197e-09
9.03111e-09
3.22313e-09
7.91924e-09
2.13147e-09
6.69953e-09
1.23954e-09
5.37595e-09
5.70678e-10
3.95355e-09
1.49134e-10
2.43855e-09
8.38562e-10
1.54223e-10
-9.96742e-10
5.86744e-10
-2.87083e-09
1.26866e-09
-4.62068e-09
2.1725e-09
-6.24214e-09
3.27224e-09
-7.73242e-09
4.54329e-09
-9.08984e-09
5.9625e-09
-1.03138e-08
7.50814e-09
-1.14045e-08
9.15984e-09
-1.23631e-08
1.08986e-08
-1.31915e-08
1.27066e-08
-1.38921e-08
1.45673e-08
-1.44681e-08
1.64654e-08
-1.4923e-08
1.83867e-08
-1.52608e-08
2.03179e-08
-1.54858e-08
2.22469e-08
-1.56024e-08
2.41622e-08
-1.56155e-08
2.60535e-08
-1.55299e-08
2.79113e-08
-1.53505e-08
2.97265e-08
-1.50823e-08
3.1491e-08
-1.47303e-08
3.31973e-08
-1.42994e-08
3.48383e-08
-1.37944e-08
3.64077e-08
-1.32201e-08
3.78994e-08
-1.25813e-08
3.93081e-08
-1.18825e-08
4.06285e-08
-1.11282e-08
4.18559e-08
-1.03228e-08
4.29861e-08
-9.47068e-09
4.40149e-08
-8.57595e-09
4.49386e-08
-7.64281e-09
4.57537e-08
-6.67536e-09
4.6457e-08
-5.67766e-09
4.70458e-08
-4.65375e-09
4.75173e-08
-3.60769e-09
4.78692e-08
-2.54355e-09
4.80994e-08
-1.46544e-09
4.82063e-08
-3.77539e-10
4.81884e-08
7.15887e-10
4.80447e-08
1.81048e-09
4.77744e-08
2.90176e-09
4.73773e-08
3.98512e-09
4.68536e-08
5.05582e-09
4.62038e-08
6.10895e-09
4.54291e-08
7.13947e-09
4.45313e-08
8.14217e-09
4.35125e-08
9.11168e-09
4.23756e-08
1.00425e-08
4.11243e-08
1.09289e-08
3.97627e-08
1.17652e-08
3.82958e-08
1.25454e-08
3.67295e-08
1.32636e-08
3.50703e-08
1.39136e-08
3.33255e-08
1.44895e-08
3.15036e-08
1.49851e-08
2.96136e-08
1.53945e-08
2.76657e-08
1.57116e-08
2.56709e-08
1.59306e-08
2.36411e-08
1.60461e-08
2.15895e-08
1.60525e-08
1.95297e-08
1.5945e-08
1.74769e-08
1.57187e-08
1.54469e-08
1.53696e-08
1.34566e-08
1.4894e-08
1.15239e-08
1.42887e-08
9.66768e-09
1.35514e-08
7.90781e-09
1.26804e-08
6.26515e-09
1.16749e-08
4.7615e-09
1.05348e-08
3.41965e-09
9.26109e-09
2.26334e-09
7.85584e-09
1.31722e-09
6.32206e-09
6.06868e-10
4.6639e-09
1.58705e-10
2.88671e-09
9.97267e-10
1.60855e-10
-1.1576e-09
6.10719e-10
-3.32069e-09
1.31828e-09
-5.32824e-09
2.25383e-09
-7.17769e-09
3.3893e-09
-8.86789e-09
4.69829e-09
-1.03988e-08
6.15603e-09
-1.17715e-08
7.73941e-09
-1.29879e-08
9.42691e-09
-1.40506e-08
1.11986e-08
-1.49632e-08
1.30359e-08
-1.57295e-08
1.4922e-08
-1.63542e-08
1.68411e-08
-1.68421e-08
1.87788e-08
-1.71986e-08
2.07221e-08
-1.7429e-08
2.26588e-08
-1.75391e-08
2.45781e-08
-1.75347e-08
2.64698e-08
-1.74216e-08
2.83249e-08
-1.72056e-08
3.01351e-08
-1.68925e-08
3.18928e-08
-1.6488e-08
3.35911e-08
-1.59976e-08
3.52236e-08
-1.54269e-08
3.67846e-08
-1.47811e-08
3.82688e-08
-1.40655e-08
3.96712e-08
-1.32849e-08
4.09873e-08
-1.24443e-08
4.22129e-08
-1.15484e-08
4.3344e-08
-1.06018e-08
4.43769e-08
-9.60888e-09
4.53082e-08
-8.57411e-09
4.61346e-08
-7.50176e-09
4.6853e-08
-6.3961e-09
4.74607e-08
-5.26136e-09
4.79547e-08
-4.10178e-09
4.83328e-08
-2.92164e-09
4.85926e-08
-1.72525e-09
4.87321e-08
-5.17017e-10
4.87495e-08
6.9854e-10
4.86432e-08
1.91679e-09
4.8412e-08
3.13294e-09
4.80551e-08
4.34203e-09
4.7572e-08
5.53893e-09
4.69626e-08
6.71832e-09
4.62274e-08
7.87465e-09
4.53674e-08
9.00221e-09
4.4384e-08
1.0095e-08
4.32795e-08
1.1147e-08
4.20566e-08
1.21518e-08
4.0719e-08
1.31028e-08
3.9271e-08
1.39934e-08
3.77178e-08
1.48168e-08
3.60653e-08
1.55661e-08
3.43205e-08
1.62342e-08
3.24915e-08
1.68142e-08
3.0587e-08
1.7299e-08
2.8617e-08
1.76815e-08
2.65926e-08
1.79551e-08
2.45258e-08
1.81129e-08
2.24298e-08
1.81485e-08
2.0319e-08
1.80557e-08
1.8209e-08
1.78288e-08
1.61163e-08
1.74623e-08
1.40589e-08
1.69515e-08
1.20556e-08
1.6292e-08
1.01267e-08
1.54803e-08
8.29353e-09
1.45136e-08
6.57854e-09
1.33899e-08
5.00534e-09
1.2108e-08
3.59864e-09
1.06678e-08
2.38423e-09
9.07025e-09
1.38892e-09
7.31737e-09
6.40499e-10
5.41232e-09
1.67678e-10
3.35953e-09
1.16494e-09
1.66186e-10
-1.32378e-09
6.29252e-10
-3.78375e-09
1.35533e-09
-6.05432e-09
2.31241e-09
-8.13478e-09
3.47042e-09
-1.00259e-08
4.80118e-09
-1.17296e-08
6.27846e-09
-1.32488e-08
7.87793e-09
-1.45874e-08
9.57713e-09
-1.57498e-08
1.13554e-08
-1.67414e-08
1.31939e-08
-1.7568e-08
1.50753e-08
-1.82356e-08
1.69839e-08
-1.87508e-08
1.89057e-08
-1.91203e-08
2.08277e-08
-1.9351e-08
2.27385e-08
-1.94499e-08
2.46276e-08
-1.94239e-08
2.64858e-08
-1.92799e-08
2.83048e-08
-1.90246e-08
3.00771e-08
-1.86648e-08
3.1796e-08
-1.82069e-08
3.34556e-08
-1.76572e-08
3.50503e-08
-1.70217e-08
3.65753e-08
-1.63062e-08
3.80261e-08
-1.55163e-08
3.93986e-08
-1.46574e-08
4.06889e-08
-1.37346e-08
4.18935e-08
-1.2753e-08
4.30089e-08
-1.17172e-08
4.40321e-08
-1.0632e-08
4.49597e-08
-9.50176e-09
4.57889e-08
-8.33096e-09
4.65167e-08
-7.12393e-09
4.71404e-08
-5.88499e-09
4.76571e-08
-4.61846e-09
4.80641e-08
-3.32869e-09
4.8359e-08
-2.02011e-09
4.85392e-08
-6.97259e-10
4.86025e-08
6.35204e-10
4.85469e-08
1.97245e-09
4.83704e-08
3.30945e-09
4.80714e-08
4.641e-09
4.76487e-08
5.96162e-09
4.71014e-08
7.26562e-09
4.64291e-08
8.54701e-09
4.56317e-08
9.79958e-09
4.47099e-08
1.10168e-08
4.36649e-08
1.2192e-08
4.24987e-08
1.3318e-08
4.12139e-08
1.43876e-08
3.9814e-08
1.53933e-08
3.83033e-08
1.63275e-08
3.66871e-08
1.71823e-08
3.49718e-08
1.79495e-08
3.31647e-08
1.86213e-08
3.12743e-08
1.91894e-08
2.93101e-08
1.96457e-08
2.72831e-08
1.99821e-08
2.52052e-08
2.01908e-08
2.30898e-08
2.02639e-08
2.09515e-08
2.0194e-08
1.88064e-08
1.99739e-08
1.66717e-08
1.9597e-08
1.45661e-08
1.90571e-08
1.25096e-08
1.83484e-08
1.05237e-08
1.74662e-08
8.6311e-09
1.64062e-08
6.85586e-09
1.51651e-08
5.22336e-09
1.37405e-08
3.76026e-09
1.21309e-08
2.49443e-09
1.03361e-08
1.45488e-09
8.35691e-09
6.71741e-10
6.19545e-09
1.76111e-10
3.85515e-09
1.34105e-09
1.69987e-10
-1.49377e-09
6.41402e-10
-4.25517e-09
1.37765e-09
-6.79056e-09
2.34437e-09
-9.1015e-09
3.50946e-09
-1.1191e-08
4.84307e-09
-1.30632e-08
6.31765e-09
-1.47234e-08
7.90783e-09
-1.61775e-08
9.59047e-09
-1.74325e-08
1.13445e-08
-1.84955e-08
1.31509e-08
-1.93743e-08
1.49924e-08
-2.00771e-08
1.68538e-08
-2.06122e-08
1.87215e-08
-2.09879e-08
2.05832e-08
-2.12127e-08
2.24283e-08
-2.1295e-08
2.42475e-08
-2.1243e-08
2.60325e-08
-2.10648e-08
2.77761e-08
-2.07682e-08
2.94721e-08
-2.03608e-08
3.11149e-08
-1.98498e-08
3.26999e-08
-1.92421e-08
3.42227e-08
-1.85444e-08
3.56795e-08
-1.7763e-08
3.70671e-08
-1.69038e-08
3.83822e-08
-1.59725e-08
3.96219e-08
-1.49744e-08
4.07835e-08
-1.39146e-08
4.18643e-08
-1.27981e-08
4.28617e-08
-1.16294e-08
4.3773e-08
-1.04131e-08
4.45955e-08
-9.15349e-09
4.53266e-08
-7.85497e-09
4.59633e-08
-6.52176e-09
4.6503e-08
-5.15812e-09
4.69426e-08
-3.76836e-09
4.72794e-08
-2.35688e-09
4.75104e-08
-9.28221e-10
4.76326e-08
5.12924e-10
4.76434e-08
1.96165e-09
4.75401e-08
3.4128e-09
4.73201e-08
4.86098e-09
4.69813e-08
6.30048e-09
4.65216e-08
7.72527e-09
4.59396e-08
9.12901e-09
4.52342e-08
1.0505e-08
4.44048e-08
1.18462e-08
4.34514e-08
1.31453e-08
4.23749e-08
1.43945e-08
4.11766e-08
1.55858e-08
3.98591e-08
1.67109e-08
3.84256e-08
1.7761e-08
3.68805e-08
1.87274e-08
3.52291e-08
1.9601e-08
3.34779e-08
2.03724e-08
3.16349e-08
2.10324e-08
2.97091e-08
2.15716e-08
2.77109e-08
2.19804e-08
2.56521e-08
2.22496e-08
2.3546e-08
2.23699e-08
2.14075e-08
2.23325e-08
1.92528e-08
2.21286e-08
1.70998e-08
2.17501e-08
1.49678e-08
2.1189e-08
1.28779e-08
2.04383e-08
1.08527e-08
1.94915e-08
8.91624e-09
1.83427e-08
7.09418e-09
1.69872e-08
5.4137e-09
1.54209e-08
3.90343e-09
1.36412e-08
2.59338e-09
1.16461e-08
1.51489e-09
9.4354e-09
7.00531e-10
7.00981e-09
1.84002e-10
4.37168e-09
1.52506e-09
1.71917e-10
-1.66568e-09
6.45804e-10
-4.72905e-09
1.38218e-09
-7.52693e-09
2.34424e-09
-1.00636e-08
3.49791e-09
-1.23447e-08
4.8118e-09
-1.43771e-08
6.25715e-09
-1.61687e-08
7.80786e-09
-1.77283e-08
9.44035e-09
-1.90649e-08
1.11335e-08
-2.01886e-08
1.28684e-08
-2.11092e-08
1.46284e-08
-2.18372e-08
1.6399e-08
-2.23828e-08
1.81674e-08
-2.27564e-08
1.99227e-08
-2.2968e-08
2.16555e-08
-2.30278e-08
2.33578e-08
-2.29453e-08
2.50228e-08
-2.27298e-08
2.66449e-08
-2.23904e-08
2.82195e-08
-2.19354e-08
2.97425e-08
-2.13729e-08
3.12109e-08
-2.07105e-08
3.26219e-08
-1.99554e-08
3.39731e-08
-1.91142e-08
3.52625e-08
-1.81932e-08
3.64882e-08
-1.71982e-08
3.76486e-08
-1.61347e-08
3.87418e-08
-1.50078e-08
3.97661e-08
-1.38223e-08
4.07194e-08
-1.25827e-08
4.15998e-08
-1.12934e-08
4.24049e-08
-9.95859e-09
4.31322e-08
-8.58233e-09
4.37791e-08
-7.16865e-09
4.43426e-08
-5.7216e-09
4.48195e-08
-4.24529e-09
4.52066e-08
-2.74393e-09
4.55003e-08
-1.2219e-09
4.5697e-08
3.16209e-10
4.57931e-08
1.86554e-09
4.57849e-08
3.42096e-09
4.56689e-08
4.97697e-09
4.54417e-08
6.52773e-09
4.51e-08
8.06698e-09
4.46409e-08
9.58808e-09
4.4062e-08
1.10839e-08
4.33612e-08
1.2547e-08
4.25373e-08
1.39693e-08
4.15894e-08
1.53424e-08
4.05176e-08
1.66576e-08
3.9323e-08
1.79055e-08
3.80075e-08
1.90765e-08
3.65741e-08
2.01608e-08
3.50271e-08
2.1148e-08
3.3372e-08
2.20275e-08
3.16157e-08
2.27888e-08
2.97664e-08
2.34209e-08
2.78339e-08
2.39128e-08
2.58297e-08
2.42538e-08
2.37667e-08
2.44329e-08
2.16598e-08
2.44394e-08
1.95253e-08
2.42631e-08
1.73816e-08
2.38938e-08
1.52486e-08
2.3322e-08
1.31482e-08
2.25387e-08
1.11041e-08
2.15356e-08
9.14172e-09
2.03051e-08
7.28827e-09
1.88406e-08
5.57275e-09
1.71364e-08
4.02581e-09
1.51881e-08
2.67971e-09
1.29922e-08
1.56823e-09
1.05469e-08
7.2659e-10
7.85145e-09
1.91291e-10
4.90698e-09
1.71635e-09
1.71518e-10
-1.8372e-09
6.40634e-10
-5.19816e-09
1.36483e-09
-8.25113e-09
2.30486e-09
-1.10036e-08
3.42472e-09
-1.34645e-08
4.6916e-09
-1.5644e-08
6.07585e-09
-1.7553e-08
7.55088e-09
-1.92033e-08
9.09303e-09
-2.06071e-08
1.06815e-08
-2.1777e-08
1.2298e-08
-2.27258e-08
1.3927e-08
-2.34662e-08
1.55551e-08
-2.40108e-08
1.71709e-08
-2.43722e-08
1.87652e-08