/*--------------------------------*- C++ -*----------------------------------*\
  =========                 |
  \\      /  F ield         | OpenFOAM: The Open Source CFD Toolbox
   \\    /   O peration     | Website:  https://openfoam.org
    \\  /    A nd           | Version:  12
     \\/     M anipulation  |
\*---------------------------------------------------------------------------*/
FoamFile
{
    format      ascii;
    class       volScalarField;
    location    "6.5";
    object      epsilon;
}
// * * * * * * * * * * * * * * * * * * * * * * * * * * * * * * * * * * * * * //

dimensions      [0 2 -3 0 0 0 0];

internalField   nonuniform List<scalar> 
5625
(
9.78947e-10
1.84862e-09
3.91883e-09
6.39049e-09
9.17529e-09
1.22066e-08
1.54358e-08
1.88255e-08
2.2345e-08
2.59679e-08
2.96705e-08
3.34309e-08
3.72288e-08
4.10449e-08
4.48606e-08
4.86584e-08
5.24212e-08
5.61327e-08
5.97769e-08
6.33387e-08
6.68035e-08
7.01571e-08
7.33861e-08
7.64775e-08
7.94193e-08
8.21997e-08
8.4808e-08
8.7234e-08
8.94681e-08
9.15017e-08
9.33269e-08
9.49365e-08
9.63241e-08
9.74843e-08
9.84123e-08
9.91043e-08
9.95574e-08
9.97696e-08
9.97398e-08
9.94677e-08
9.89534e-08
9.81985e-08
9.72056e-08
9.59778e-08
9.45195e-08
9.28356e-08
9.09322e-08
8.88161e-08
8.6495e-08
8.39776e-08
8.12732e-08
7.83921e-08
7.53454e-08
7.2145e-08
6.88035e-08
6.53343e-08
6.17517e-08
5.80705e-08
5.43065e-08
5.0476e-08
4.65963e-08
4.26853e-08
3.87618e-08
3.48457e-08
3.09577e-08
2.712e-08
2.33563e-08
1.96925e-08
1.61575e-08
1.27845e-08
9.61409e-09
6.69843e-09
4.10863e-09
1.93838e-09
1.02647e-09
6.61824e-09
3.60031e-09
3.50426e-09
4.18597e-09
5.23474e-09
6.50372e-09
7.92239e-09
9.45016e-09
1.10603e-08
1.27333e-08
1.44537e-08
1.62084e-08
1.79859e-08
1.9776e-08
2.15689e-08
2.33558e-08
2.5128e-08
2.68775e-08
2.85964e-08
3.02775e-08
3.19136e-08
3.34978e-08
3.50237e-08
3.64852e-08
3.78762e-08
3.91915e-08
4.04256e-08
4.15737e-08
4.26313e-08
4.35943e-08
4.44588e-08
4.52215e-08
4.58792e-08
4.64294e-08
4.68698e-08
4.71985e-08
4.74141e-08
4.75158e-08
4.75028e-08
4.73751e-08
4.71328e-08
4.67765e-08
4.63075e-08
4.57273e-08
4.50379e-08
4.42417e-08
4.33415e-08
4.23407e-08
4.12429e-08
4.00522e-08
3.87733e-08
3.74109e-08
3.59704e-08
3.44576e-08
3.28785e-08
3.12397e-08
2.95481e-08
2.78109e-08
2.60358e-08
2.4231e-08
2.24049e-08
2.05666e-08
1.87258e-08
1.68927e-08
1.50786e-08
1.32958e-08
1.15584e-08
9.88305e-09
8.29082e-09
6.81022e-09
5.48435e-09
4.38765e-09
3.67454e-09
3.77607e-09
6.94106e-09
1.47101e-08
7.21039e-09
5.56078e-09
5.25048e-09
5.50477e-09
6.07067e-09
6.8342e-09
7.73342e-09
8.73022e-09
9.79892e-09
1.09209e-08
1.20818e-08
1.32701e-08
1.44758e-08
1.56904e-08
1.69063e-08
1.81165e-08
1.93146e-08
2.04945e-08
2.16505e-08
2.27775e-08
2.38702e-08
2.4924e-08
2.59344e-08
2.6897e-08
2.78079e-08
2.86634e-08
2.94599e-08
3.01942e-08
3.08632e-08
3.14644e-08
3.19952e-08
3.24535e-08
3.28372e-08
3.31449e-08
3.33752e-08
3.35271e-08
3.35998e-08
3.35929e-08
3.35063e-08
3.334e-08
3.30946e-08
3.27708e-08
3.23697e-08
3.18928e-08
3.13417e-08
3.07186e-08
3.00256e-08
2.92656e-08
2.84414e-08
2.75563e-08
2.66139e-08
2.56181e-08
2.45732e-08
2.34835e-08
2.23541e-08
2.119e-08
1.99967e-08
1.87804e-08
1.75472e-08
1.6304e-08
1.50583e-08
1.38184e-08
1.25934e-08
1.13938e-08
1.02322e-08
9.1238e-09
8.08853e-09
7.15356e-09
6.35915e-09
5.77051e-09
5.50743e-09
5.83552e-09
7.5678e-09
1.54382e-08
2.43119e-08
1.16632e-08
8.45699e-09
7.29104e-09
6.93474e-09
7.00539e-09
7.33866e-09
7.8486e-09
8.4839e-09
9.21098e-09
1.00062e-08
1.0852e-08
1.17348e-08
1.26434e-08
1.35687e-08
1.45027e-08
1.54385e-08
1.63699e-08
1.7291e-08
1.81967e-08
1.90823e-08
1.99432e-08
2.07752e-08
2.15744e-08
2.23372e-08
2.30601e-08
2.37399e-08
2.43737e-08
2.49588e-08
2.54925e-08
2.59727e-08
2.63972e-08
2.67643e-08
2.70722e-08
2.73197e-08
2.75057e-08
2.76291e-08
2.76894e-08
2.76863e-08
2.76196e-08
2.74892e-08
2.72957e-08
2.70396e-08
2.6722e-08
2.63438e-08
2.59066e-08
2.54121e-08
2.48623e-08
2.42593e-08
2.36058e-08
2.29045e-08
2.21586e-08
2.13713e-08
2.05465e-08
1.96881e-08
1.88004e-08
1.78881e-08
1.69564e-08
1.60107e-08
1.50572e-08
1.41026e-08
1.31543e-08
1.22209e-08
1.13124e-08
1.04405e-08
9.61973e-09
8.86876e-09
8.21247e-09
7.68626e-09
7.34416e-09
7.27656e-09
7.65603e-09
8.88446e-09
1.22545e-08
2.55429e-08
3.49734e-08
1.66566e-08
1.18149e-08
9.81587e-09
8.9089e-09
8.56048e-09
8.5478e-09
8.75754e-09
9.12399e-09
9.60498e-09
1.01715e-08
1.08024e-08
1.14816e-08
1.21964e-08
1.29362e-08
1.36922e-08
1.44571e-08
1.52241e-08
1.59875e-08
1.6742e-08
1.74829e-08
1.82057e-08
1.89064e-08
1.95814e-08
2.0227e-08
2.08402e-08
2.1418e-08
2.19575e-08
2.24564e-08
2.29122e-08
2.33229e-08
2.36865e-08
2.40014e-08
2.42662e-08
2.44795e-08
2.46403e-08
2.47479e-08
2.48015e-08
2.48009e-08
2.4746e-08
2.46366e-08
2.44733e-08
2.42565e-08
2.39871e-08
2.36661e-08
2.32949e-08
2.2875e-08
2.24083e-08
2.18968e-08
2.13429e-08
2.07493e-08
2.01189e-08
1.94548e-08
1.87608e-08
1.80406e-08
1.72985e-08
1.65391e-08
1.57677e-08
1.49899e-08
1.42119e-08
1.34409e-08
1.26851e-08
1.19537e-08
1.1258e-08
1.06115e-08
1.00313e-08
9.53988e-09
9.16769e-09
8.95905e-09
8.9831e-09
9.35881e-09
1.03205e-08
1.24289e-08
1.75257e-08
3.6797e-08
4.64024e-08
2.20295e-08
1.54738e-08
1.2635e-08
1.11989e-08
1.04665e-08
1.01497e-08
1.01048e-08
1.02497e-08
1.05331e-08
1.09203e-08
1.13861e-08
1.19118e-08
1.24829e-08
1.30874e-08
1.37157e-08
1.43595e-08
1.50117e-08
1.56661e-08
1.63171e-08
1.69597e-08
1.75895e-08
1.82024e-08
1.87946e-08
1.93627e-08
1.99035e-08
2.04142e-08
2.0892e-08
2.13346e-08
2.17396e-08
2.21051e-08
2.24292e-08
2.27104e-08
2.29472e-08
2.31384e-08
2.3283e-08
2.33802e-08
2.34295e-08
2.34304e-08
2.33831e-08
2.32872e-08
2.31432e-08
2.29517e-08
2.27135e-08
2.24295e-08
2.21011e-08
2.17298e-08
2.13173e-08
2.08658e-08
2.03775e-08
1.98551e-08
1.93015e-08
1.872e-08
1.81141e-08
1.74878e-08
1.68456e-08
1.61922e-08
1.55329e-08
1.48739e-08
1.42219e-08
1.35844e-08
1.29705e-08
1.23907e-08
1.18577e-08
1.13869e-08
1.09983e-08
1.07179e-08
1.05825e-08
1.0646e-08
1.09946e-08
1.17796e-08
1.33041e-08
1.63043e-08
2.32183e-08
4.89068e-08
5.83785e-08
2.76696e-08
1.93379e-08
1.56469e-08
1.36899e-08
1.25919e-08
1.1995e-08
1.17226e-08
1.1675e-08
1.17907e-08
1.20286e-08
1.23596e-08
1.27622e-08
1.32197e-08
1.37188e-08
1.42488e-08
1.48006e-08
1.53665e-08
1.59397e-08
1.65143e-08
1.70851e-08
1.76474e-08
1.81971e-08
1.87301e-08
1.92431e-08
1.97327e-08
2.01961e-08
2.06306e-08
2.10337e-08
2.14032e-08
2.17371e-08
2.20336e-08
2.22911e-08
2.25082e-08
2.26838e-08
2.28168e-08
2.29065e-08
2.29523e-08
2.29539e-08
2.29114e-08
2.28244e-08
2.26934e-08
2.2519e-08
2.2302e-08
2.20433e-08
2.17444e-08
2.14067e-08
2.1032e-08
2.06224e-08
2.01804e-08
1.97085e-08
1.92098e-08
1.86877e-08
1.81458e-08
1.75883e-08
1.70197e-08
1.64453e-08
1.58707e-08
1.53025e-08
1.4748e-08
1.42155e-08
1.37148e-08
1.32575e-08
1.28578e-08
1.25332e-08
1.23064e-08
1.22082e-08
1.22815e-08
1.25912e-08
1.3242e-08
1.44201e-08
1.65027e-08
2.0413e-08
2.92193e-08
6.16511e-08
7.07217e-08
3.34885e-08
2.33379e-08
1.87848e-08
1.63108e-08
1.48586e-08
1.39975e-08
1.35157e-08
1.32953e-08
1.32638e-08
1.33732e-08
1.35903e-08
1.38905e-08
1.4255e-08
1.46691e-08
1.51207e-08
1.55999e-08
1.60983e-08
1.66088e-08
1.71249e-08
1.76411e-08
1.81525e-08
1.86547e-08
1.91435e-08
1.96155e-08
2.00672e-08
2.04957e-08
2.08982e-08
2.12722e-08
2.16156e-08
2.19263e-08
2.22024e-08
2.24424e-08
2.26449e-08
2.28086e-08
2.29328e-08
2.30165e-08
2.30592e-08
2.30607e-08
2.30208e-08
2.29395e-08
2.28172e-08
2.26544e-08
2.2452e-08
2.2211e-08
2.19328e-08
2.16189e-08
2.12713e-08
2.0892e-08
2.04836e-08
2.00489e-08
1.9591e-08
1.91134e-08
1.86201e-08
1.81154e-08
1.76042e-08
1.70918e-08
1.65845e-08
1.60891e-08
1.56135e-08
1.51668e-08
1.47598e-08
1.44053e-08
1.4119e-08
1.39208e-08
1.38365e-08
1.39012e-08
1.41652e-08
1.47047e-08
1.56441e-08
1.72067e-08
1.98475e-08
2.46841e-08
3.54386e-08
7.48474e-08
8.32791e-08
3.94122e-08
2.74183e-08
2.19987e-08
1.90116e-08
1.7214e-08
1.61001e-08
1.54226e-08
1.50439e-08
1.48803e-08
1.4877e-08
1.49957e-08
1.5209e-08
1.54958e-08
1.58397e-08
1.62275e-08
1.66484e-08
1.70933e-08
1.75543e-08
1.80247e-08
1.84986e-08
1.89708e-08
1.94366e-08
1.98918e-08
2.03326e-08
2.07556e-08
2.11577e-08
2.15361e-08
2.18882e-08
2.22118e-08
2.25047e-08
2.27652e-08
2.29917e-08
2.31827e-08
2.33371e-08
2.34539e-08
2.35324e-08
2.3572e-08
2.35723e-08
2.35335e-08
2.34554e-08
2.33384e-08
2.31832e-08
2.29907e-08
2.2762e-08
2.24984e-08
2.22017e-08
2.18737e-08
2.15168e-08
2.11335e-08
2.07267e-08
2.02998e-08
1.98564e-08
1.94007e-08
1.89372e-08
1.84712e-08
1.80085e-08
1.75555e-08
1.71196e-08
1.67095e-08
1.63349e-08
1.60077e-08
1.57418e-08
1.55547e-08
1.54686e-08
1.55127e-08
1.57267e-08
1.61687e-08
1.69266e-08
1.81456e-08
2.0087e-08
2.32861e-08
2.90598e-08
4.1799e-08
8.83361e-08
9.59174e-08
4.53768e-08
3.15329e-08
2.52483e-08
2.17538e-08
1.96188e-08
1.8262e-08
1.73995e-08
1.68742e-08
1.65907e-08
1.64868e-08
1.65196e-08
1.66581e-08
1.68792e-08
1.71647e-08
1.75002e-08
1.78738e-08
1.82757e-08
1.86976e-08
1.91321e-08
1.95731e-08
2.00149e-08
2.04527e-08
2.08821e-08
2.12991e-08
2.17002e-08
2.20822e-08
2.24421e-08
2.27773e-08
2.30856e-08
2.33648e-08
2.36131e-08
2.38287e-08
2.40104e-08
2.4157e-08
2.42674e-08
2.4341e-08
2.43771e-08
2.43756e-08
2.43365e-08
2.42595e-08
2.41454e-08
2.39948e-08
2.38085e-08
2.35878e-08
2.33342e-08
2.30493e-08
2.27352e-08
2.23943e-08
2.20294e-08
2.16434e-08
2.12399e-08
2.08228e-08
2.03963e-08
1.99655e-08
1.95357e-08
1.91132e-08
1.87048e-08
1.83186e-08
1.79636e-08
1.76506e-08
1.73924e-08
1.72042e-08
1.71055e-08
1.71206e-08
1.72821e-08
1.76353e-08
1.82454e-08
1.92129e-08
2.0704e-08
2.30192e-08
2.67749e-08
3.34898e-08
4.82314e-08
1.01973e-07
1.08521e-07
5.13269e-08
3.56419e-08
2.85e-08
2.45061e-08
2.20423e-08
2.04517e-08
1.94138e-08
1.87518e-08
1.83584e-08
1.81641e-08
1.81211e-08
1.81949e-08
1.836e-08
1.85967e-08
1.88891e-08
1.92244e-08
1.9592e-08
1.99829e-08
2.03894e-08
2.08048e-08
2.12233e-08
2.16397e-08
2.20494e-08
2.24483e-08
2.28327e-08
2.31993e-08
2.3545e-08
2.38673e-08
2.41636e-08
2.44319e-08
2.46703e-08
2.48771e-08
2.5051e-08
2.51907e-08
2.52952e-08
2.53639e-08
2.53962e-08
2.53919e-08
2.53512e-08
2.52737e-08
2.51603e-08
2.50115e-08
2.48285e-08
2.46124e-08
2.43648e-08
2.40876e-08
2.37828e-08
2.3453e-08
2.31011e-08
2.27303e-08
2.23443e-08
2.1947e-08
2.15433e-08
2.11381e-08
2.07373e-08
2.03475e-08
1.99759e-08
1.96313e-08
1.93232e-08
1.90634e-08
1.88655e-08
1.87464e-08
1.8727e-08
1.88345e-08
1.9105e-08
1.95887e-08
2.03588e-08
2.15284e-08
2.32847e-08
2.59677e-08
3.02752e-08
3.79283e-08
5.46714e-08
1.15623e-07
1.20987e-07
5.72145e-08
3.97113e-08
3.17255e-08
2.72427e-08
2.44595e-08
2.26442e-08
2.14399e-08
2.065e-08
2.01555e-08
1.98795e-08
1.97692e-08
1.97869e-08
1.99043e-08
2.01001e-08
2.03571e-08
2.06615e-08
2.10019e-08
2.13685e-08
2.17534e-08
2.21493e-08
2.25501e-08
2.29504e-08
2.33454e-08
2.37307e-08
2.41025e-08
2.44574e-08
2.47923e-08
2.51045e-08
2.53915e-08
2.5651e-08
2.58813e-08
2.60807e-08
2.62476e-08
2.6381e-08
2.64799e-08
2.65436e-08
2.65715e-08
2.65636e-08
2.65199e-08
2.64404e-08
2.63256e-08
2.61765e-08
2.59941e-08
2.57797e-08
2.5535e-08
2.52618e-08
2.49625e-08
2.46397e-08
2.42964e-08
2.39361e-08
2.35625e-08
2.318e-08
2.27933e-08
2.24081e-08
2.20303e-08
2.16669e-08
2.13258e-08
2.1016e-08
2.0748e-08
2.05343e-08
2.03895e-08
2.03321e-08
2.03847e-08
2.0577e-08
2.0949e-08
2.15558e-08
2.24786e-08
2.38429e-08
2.58573e-08
2.89007e-08
3.37517e-08
4.23323e-08
6.10586e-08
1.2916e-07
1.33232e-07
6.29986e-08
4.37123e-08
3.49011e-08
2.99424e-08
2.68503e-08
2.48195e-08
2.34575e-08
2.25479e-08
2.19604e-08
2.16104e-08
2.14403e-08
2.1409e-08
2.14858e-08
2.16475e-08
2.18757e-08
2.21554e-08
2.24744e-08
2.28225e-08
2.3191e-08
2.35724e-08
2.39602e-08
2.43487e-08
2.47328e-08
2.51081e-08
2.54706e-08
2.58168e-08
2.61435e-08
2.64478e-08
2.67273e-08
2.69797e-08
2.72031e-08
2.73959e-08
2.75565e-08
2.76839e-08
2.77771e-08
2.78354e-08
2.78584e-08
2.78459e-08
2.7798e-08
2.77148e-08
2.7597e-08
2.74455e-08
2.72614e-08
2.70461e-08
2.68013e-08
2.65292e-08
2.6232e-08
2.59127e-08
2.55742e-08
2.52203e-08
2.48549e-08
2.44826e-08
2.41085e-08
2.37382e-08
2.33783e-08
2.30361e-08
2.27199e-08
2.24393e-08
2.22055e-08
2.20317e-08
2.19339e-08
2.19318e-08
2.20498e-08
2.23205e-08
2.27872e-08
2.35102e-08
2.45785e-08
2.613e-08
2.83943e-08
3.17886e-08
3.71712e-08
4.66614e-08
6.73351e-08
1.4246e-07
1.45183e-07
6.86455e-08
4.76211e-08
3.80075e-08
3.25878e-08
2.91983e-08
2.69617e-08
2.54505e-08
2.44292e-08
2.37559e-08
2.33389e-08
2.31157e-08
2.30418e-08
2.30842e-08
2.32176e-08
2.34224e-08
2.36827e-08
2.39854e-08
2.43196e-08
2.46761e-08
2.50471e-08
2.54256e-08
2.58058e-08
2.61822e-08
2.65504e-08
2.69062e-08
2.72459e-08
2.75663e-08
2.78644e-08
2.81378e-08
2.83841e-08
2.86014e-08
2.87881e-08
2.89427e-08
2.9064e-08
2.91512e-08
2.92036e-08
2.92207e-08
2.92027e-08
2.91493e-08
2.9061e-08
2.89384e-08
2.87825e-08
2.85946e-08
2.8376e-08
2.81287e-08
2.78548e-08
2.75569e-08
2.72378e-08
2.69009e-08
2.65499e-08
2.6189e-08
2.58231e-08
2.54573e-08
2.50978e-08
2.47514e-08
2.44256e-08
2.41295e-08
2.38731e-08
2.36683e-08
2.35292e-08
2.34729e-08
2.35202e-08
2.36978e-08
2.40408e-08
2.45957e-08
2.54281e-08
2.66346e-08
2.83653e-08
3.08701e-08
3.46038e-08
4.05021e-08
5.08764e-08
7.3445e-08
1.55408e-07
1.56785e-07
7.4129e-08
5.14195e-08
4.10296e-08
3.51656e-08
3.14911e-08
2.90586e-08
2.74067e-08
2.62812e-08
2.5529e-08
2.50515e-08
2.47812e-08
2.46704e-08
2.46836e-08
2.47937e-08
2.498e-08
2.52254e-08
2.55159e-08
2.58401e-08
2.61882e-08
2.65521e-08
2.69244e-08
2.72989e-08
2.76702e-08
2.80335e-08
2.83844e-08
2.87193e-08
2.90347e-08
2.93278e-08
2.95958e-08
2.98366e-08
3.00482e-08
3.02289e-08
3.03773e-08
3.04922e-08
3.05729e-08
3.06185e-08
3.06289e-08
3.06041e-08
3.0544e-08
3.0449e-08
3.03199e-08
3.01578e-08
2.99639e-08
2.97399e-08
2.94877e-08
2.92096e-08
2.89082e-08
2.85866e-08
2.82482e-08
2.7897e-08
2.75373e-08
2.71742e-08
2.68133e-08
2.64607e-08
2.61238e-08
2.58105e-08
2.55302e-08
2.52935e-08
2.51131e-08
2.50038e-08
2.49838e-08
2.50753e-08
2.53071e-08
2.57164e-08
2.63532e-08
2.72882e-08
2.86253e-08
3.05263e-08
3.32608e-08
3.73198e-08
4.37139e-08
5.49393e-08
7.93336e-08
1.67886e-07
1.67998e-07
7.94303e-08
5.50943e-08
4.39568e-08
3.76665e-08
3.37198e-08
3.11016e-08
2.93173e-08
2.80949e-08
2.72705e-08
2.67382e-08
2.64263e-08
2.62836e-08
2.62723e-08
2.63635e-08
2.65353e-08
2.67694e-08
2.70512e-08
2.73686e-08
2.77113e-08
2.80706e-08
2.8439e-08
2.88101e-08
2.9178e-08
2.95379e-08
2.98853e-08
3.02164e-08
3.05277e-08
3.08162e-08
3.10793e-08
3.13148e-08
3.15205e-08
3.16949e-08
3.18366e-08
3.19445e-08
3.20177e-08
3.20556e-08
3.2058e-08
3.20251e-08
3.19567e-08
3.18534e-08
3.17161e-08
3.15458e-08
3.1344e-08
3.11124e-08
3.0853e-08
3.05683e-08
3.02609e-08
2.99342e-08
2.95916e-08
2.92373e-08
2.88759e-08
2.85126e-08
2.81532e-08
2.78043e-08
2.74733e-08
2.71687e-08
2.69003e-08
2.66794e-08
2.6519e-08
2.64351e-08
2.64468e-08
2.65775e-08
2.6858e-08
2.73278e-08
2.80401e-08
2.90705e-08
3.05299e-08
3.25913e-08
3.55432e-08
3.99111e-08
4.67767e-08
5.8813e-08
8.49477e-08
1.79782e-07
1.788e-07
8.45389e-08
5.86382e-08
4.6783e-08
4.00849e-08
3.58792e-08
3.30853e-08
3.1177e-08
2.98647e-08
2.8974e-08
2.83926e-08
2.80439e-08
2.78737e-08
2.78421e-08
2.79181e-08
2.80787e-08
2.83047e-08
2.85807e-08
2.88937e-08
2.92332e-08
2.959e-08
2.99563e-08
3.03252e-08
3.0691e-08
3.10485e-08
3.1393e-08
3.17208e-08
3.20282e-08
3.23122e-08
3.25702e-08
3.27999e-08
3.29992e-08
3.31666e-08
3.33007e-08
3.34004e-08
3.3465e-08
3.34939e-08
3.34869e-08
3.34442e-08
3.33658e-08
3.32524e-08
3.31049e-08
3.29246e-08
3.27128e-08
3.24715e-08
3.22027e-08
3.19091e-08
3.15934e-08
3.1259e-08
3.09097e-08
3.05497e-08
3.01838e-08
2.98174e-08
2.94566e-08
2.91082e-08
2.878e-08
2.84808e-08
2.82208e-08
2.80118e-08
2.78676e-08
2.78048e-08
2.78435e-08
2.80086e-08
2.83325e-08
2.88568e-08
2.96381e-08
3.07562e-08
3.23289e-08
3.45398e-08
3.76951e-08
4.23528e-08
4.96618e-08
6.24612e-08
9.02349e-08
1.90986e-07
1.89187e-07
8.94527e-08
6.20496e-08
4.95069e-08
4.24195e-08
3.79677e-08
3.5008e-08
3.29836e-08
3.1588e-08
3.06368e-08
3.00111e-08
2.96301e-08
2.94365e-08
2.93879e-08
2.9452e-08
2.96043e-08
2.98247e-08
3.00969e-08
3.04076e-08
3.07455e-08
3.11011e-08
3.14663e-08
3.18341e-08
3.21983e-08
3.25537e-08
3.28955e-08
3.32198e-08
3.3523e-08
3.3802e-08
3.40541e-08
3.42771e-08
3.4469e-08
3.46281e-08
3.47532e-08
3.48433e-08
3.48976e-08
3.49156e-08
3.48975e-08
3.48431e-08
3.47528e-08
3.46273e-08
3.44676e-08
3.4275e-08
3.40511e-08
3.37979e-08
3.35175e-08
3.32126e-08
3.28862e-08
3.25419e-08
3.21834e-08
3.18152e-08
3.14423e-08
3.10702e-08
3.07052e-08
3.03545e-08
3.0026e-08
2.97291e-08
2.94741e-08
2.92735e-08
2.91416e-08
2.90959e-08
2.91572e-08
2.93519e-08
2.97137e-08
3.02865e-08
3.11297e-08
3.23274e-08
3.40037e-08
3.63519e-08
3.96948e-08
4.46206e-08
5.23406e-08
6.58483e-08
9.51436e-08
2.01389e-07
1.99173e-07
9.41783e-08
6.53331e-08
5.2132e-08
4.46731e-08
3.99875e-08
3.68713e-08
3.47382e-08
3.32656e-08
3.22591e-08
3.15936e-08
3.11842e-08
3.09705e-08
3.0908e-08
3.09629e-08
3.11091e-08
3.13259e-08
3.15961e-08
3.19057e-08
3.22431e-08
3.25984e-08
3.2963e-08
3.33298e-08
3.36924e-08
3.40455e-08
3.43841e-08
3.47042e-08
3.50023e-08
3.52751e-08
3.552e-08
3.57348e-08
3.59175e-08
3.60666e-08
3.61808e-08
3.62592e-08
3.63012e-08
3.63063e-08
3.62748e-08
3.62064e-08
3.61018e-08
3.59619e-08
3.57877e-08
3.55805e-08
3.53421e-08
3.50746e-08
3.47802e-08
3.44618e-08
3.41224e-08
3.37657e-08
3.33957e-08
3.30169e-08
3.26345e-08
3.22542e-08
3.18824e-08
3.15267e-08
3.11952e-08
3.08974e-08
3.06443e-08
3.04487e-08
3.03256e-08
3.02929e-08
3.03724e-08
3.05917e-08
3.0986e-08
3.16009e-08
3.24987e-08
3.37673e-08
3.55364e-08
3.80085e-08
4.15215e-08
4.6691e-08
5.47855e-08
6.89392e-08
9.96232e-08
2.10882e-07
2.0879e-07
9.87314e-08
6.84993e-08
5.46666e-08
4.68526e-08
4.19446e-08
3.86805e-08
3.64455e-08
3.49013e-08
3.38441e-08
3.31429e-08
3.27085e-08
3.24776e-08
3.24038e-08
3.24515e-08
3.25934e-08
3.2808e-08
3.30774e-08
3.33868e-08
3.37243e-08
3.40794e-08
3.44435e-08
3.48089e-08
3.51694e-08
3.55192e-08
3.58535e-08
3.61681e-08
3.64594e-08
3.67243e-08
3.69601e-08
3.71646e-08
3.73359e-08
3.74725e-08
3.75734e-08
3.76375e-08
3.76645e-08
3.7654e-08
3.76063e-08
3.75213e-08
3.73997e-08
3.72426e-08
3.70512e-08
3.68268e-08
3.65713e-08
3.62869e-08
3.59761e-08
3.56416e-08
3.52868e-08
3.49153e-08
3.45313e-08
3.41395e-08
3.37452e-08
3.33542e-08
3.29732e-08
3.26098e-08
3.22725e-08
3.19711e-08
3.17169e-08
3.1523e-08
3.14049e-08
3.13813e-08
3.14746e-08
3.17135e-08
3.21344e-08
3.27848e-08
3.37294e-08
3.50594e-08
3.69098e-08
3.94911e-08
4.31547e-08
4.8541e-08
5.69693e-08
7.16996e-08
1.03624e-07
2.19362e-07
2.18091e-07
1.03136e-07
7.15654e-08
5.71242e-08
4.89691e-08
4.38488e-08
4.04441e-08
3.81131e-08
3.65021e-08
3.53983e-08
3.46647e-08
3.42082e-08
3.39626e-08
3.38795e-08
3.39217e-08
3.40608e-08
3.42742e-08
3.45433e-08
3.4853e-08
3.51905e-08
3.55452e-08
3.5908e-08
3.62713e-08
3.66284e-08
3.69735e-08
3.73017e-08
3.76088e-08
3.78911e-08
3.81456e-08
3.83697e-08
3.85611e-08
3.87181e-08
3.88392e-08
3.89235e-08
3.89702e-08
3.89789e-08
3.89497e-08
3.88824e-08
3.87774e-08
3.86357e-08
3.84583e-08
3.82465e-08
3.80019e-08
3.77264e-08
3.74223e-08
3.70921e-08
3.67389e-08
3.6366e-08
3.59772e-08
3.55767e-08
3.51695e-08
3.47607e-08
3.43566e-08
3.39639e-08
3.35902e-08
3.32445e-08
3.29367e-08
3.26783e-08
3.24828e-08
3.23662e-08
3.23477e-08
3.24502e-08
3.27036e-08
3.31452e-08
3.3824e-08
3.4807e-08
3.61883e-08
3.81074e-08
4.07819e-08
4.45749e-08
5.01483e-08
5.88656e-08
7.40963e-08
1.07097e-07
2.26724e-07
2.27148e-07
1.07427e-07
7.45544e-08
5.95229e-08
5.10382e-08
4.57133e-08
4.21742e-08
3.9752e-08
3.80782e-08
3.69311e-08
3.61679e-08
3.56915e-08
3.54333e-08
3.53424e-08
3.53804e-08
3.55175e-08
3.57304e-08
3.59996e-08
3.63093e-08
3.66465e-08
3.7e-08
3.73606e-08
3.77202e-08
3.80721e-08
3.84105e-08
3.87303e-08
3.90272e-08
3.92977e-08
3.95386e-08
3.97476e-08
3.99223e-08
4.00613e-08
4.01632e-08
4.02271e-08
4.02524e-08
4.0239e-08
4.01868e-08
4.0096e-08
3.99673e-08
3.98017e-08
3.96002e-08
3.93644e-08
3.9096e-08
3.87971e-08
3.847e-08
3.81174e-08
3.77425e-08
3.73486e-08
3.69397e-08
3.65201e-08
3.60947e-08
3.56691e-08
3.52492e-08
3.48422e-08
3.44558e-08
3.40989e-08
3.37818e-08
3.35162e-08
3.33159e-08
3.31971e-08
3.31795e-08
3.32866e-08
3.35491e-08
3.40051e-08
3.4705e-08
3.57175e-08
3.71393e-08
3.91136e-08
4.1864e-08
4.57634e-08
5.14916e-08
6.04492e-08
7.60969e-08
1.09997e-07
2.32871e-07
2.36049e-07
1.11646e-07
7.74956e-08
6.1886e-08
5.30793e-08
4.75554e-08
4.38861e-08
4.13762e-08
3.96425e-08
3.84546e-08
3.76639e-08
3.71697e-08
3.69002e-08
3.68029e-08
3.68376e-08
3.69734e-08
3.7186e-08
3.74551e-08
3.77645e-08
3.81005e-08
3.84517e-08
3.88084e-08
3.91625e-08
3.95069e-08
3.98358e-08
4.01441e-08
4.04276e-08
4.06826e-08
4.09061e-08
4.10958e-08
4.12496e-08
4.13661e-08
4.14442e-08
4.1483e-08
4.14821e-08
4.14419e-08
4.1362e-08
4.12431e-08
4.1086e-08
4.08919e-08
4.0662e-08
4.03981e-08
4.01018e-08
3.97756e-08
3.94218e-08
3.90432e-08
3.86432e-08
3.82251e-08
3.7793e-08
3.73513e-08
3.6905e-08
3.64596e-08
3.60214e-08
3.55974e-08
3.51955e-08
3.48247e-08
3.44954e-08
3.42195e-08
3.40109e-08
3.38862e-08
3.38654e-08
3.39723e-08
3.42382e-08
3.47021e-08
3.54153e-08
3.64478e-08
3.78986e-08
3.99137e-08
4.27213e-08
4.67023e-08
5.25506e-08
6.16959e-08
7.76709e-08
1.12278e-07
2.37707e-07
2.44905e-07
1.15845e-07
8.04242e-08
6.4241e-08
5.51156e-08
4.93954e-08
4.55983e-08
4.30027e-08
4.1211e-08
3.99839e-08
3.91673e-08
3.86565e-08
3.83769e-08
3.8274e-08
3.83061e-08
3.84409e-08
3.86533e-08
3.89221e-08
3.92304e-08
3.95641e-08
3.99114e-08
4.02623e-08
4.06084e-08
4.09425e-08
4.12587e-08
4.15519e-08
4.18179e-08
4.2053e-08
4.22545e-08
4.242e-08
4.25477e-08
4.26364e-08
4.2685e-08
4.26932e-08
4.26609e-08
4.25879e-08
4.24748e-08
4.23223e-08
4.21315e-08
4.19037e-08
4.16403e-08
4.13432e-08
4.10144e-08
4.06563e-08
4.02715e-08
3.98629e-08
3.94338e-08
3.89878e-08
3.85291e-08
3.8062e-08
3.75916e-08
3.71236e-08
3.66641e-08
3.62202e-08
3.57999e-08
3.54123e-08
3.50677e-08
3.47782e-08
3.45578e-08
3.44234e-08
3.43949e-08
3.44966e-08
3.47601e-08
3.5225e-08
3.59433e-08
3.6986e-08
3.84534e-08
4.04939e-08
4.3339e-08
4.7375e-08
5.33063e-08
6.25831e-08
7.87896e-08
1.13899e-07
2.41144e-07
2.53838e-07
1.20081e-07
8.33805e-08
6.66198e-08
5.7174e-08
5.12569e-08
4.7332e-08
4.46511e-08
4.2802e-08
4.15367e-08
4.06951e-08
4.01685e-08
3.98797e-08
3.97719e-08
3.98019e-08
3.9936e-08
4.0148e-08
4.0416e-08
4.07224e-08
4.10525e-08
4.1394e-08
4.17367e-08
4.2072e-08
4.23925e-08
4.26921e-08
4.29659e-08
4.32096e-08
4.34197e-08
4.35936e-08
4.37291e-08
4.38247e-08
4.38793e-08
4.38922e-08
4.38634e-08
4.37927e-08
4.36806e-08
4.35278e-08
4.33354e-08
4.31046e-08
4.28369e-08
4.25341e-08
4.21982e-08
4.18314e-08
4.14362e-08
4.10154e-08
4.05721e-08
4.01095e-08
3.96315e-08
3.91421e-08
3.86459e-08
3.81479e-08
3.76537e-08
3.71696e-08
3.67027e-08
3.62609e-08
3.58533e-08
3.54902e-08
3.51837e-08
3.49479e-08
3.47995e-08
3.47588e-08
3.48502e-08
3.51052e-08
3.55639e-08
3.62786e-08
3.7321e-08
3.87922e-08
4.08419e-08
4.37035e-08
4.77667e-08
5.37415e-08
6.30905e-08
7.94268e-08
1.14821e-07
2.431e-07
2.62988e-07
1.2442e-07
8.64097e-08
6.90578e-08
5.92844e-08
5.31661e-08
4.91109e-08
4.63435e-08
4.44365e-08
4.31328e-08
4.22665e-08
4.17247e-08
4.14274e-08
4.13154e-08
4.13437e-08
4.14774e-08
4.16889e-08
4.19557e-08
4.22592e-08
4.25842e-08
4.29179e-08
4.32498e-08
4.3571e-08
4.3874e-08
4.41527e-08
4.4402e-08
4.46179e-08
4.4797e-08
4.49369e-08
4.50358e-08
4.50922e-08
4.51055e-08
4.50754e-08
4.50019e-08
4.48854e-08
4.47266e-08
4.45267e-08
4.4287e-08
4.4009e-08
4.36945e-08
4.33454e-08
4.29642e-08
4.25531e-08
4.21148e-08
4.16523e-08
4.11688e-08
4.06677e-08
4.01527e-08
3.96282e-08
3.90986e-08
3.85689e-08
3.80448e-08
3.75325e-08
3.7039e-08
3.65722e-08
3.61411e-08
3.5756e-08
3.54288e-08
3.51736e-08
3.50071e-08
3.49494e-08
3.50249e-08
3.5265e-08
3.571e-08
3.64122e-08
3.74434e-08
3.8905e-08
4.09468e-08
4.3803e-08
4.78639e-08
5.38412e-08
6.31999e-08
7.95597e-08
1.15011e-07
2.43506e-07
2.72508e-07
1.28935e-07
8.95609e-08
7.15938e-08
6.14793e-08
5.51517e-08
5.09611e-08
4.81038e-08
4.61371e-08
4.47943e-08
4.39032e-08
4.33467e-08
4.30414e-08
4.29259e-08
4.29533e-08
4.3087e-08
4.32982e-08
4.35634e-08
4.38631e-08
4.41814e-08
4.45052e-08
4.48233e-08
4.51267e-08
4.54078e-08
4.56605e-08
4.58796e-08
4.60614e-08
4.62027e-08
4.63013e-08
4.63557e-08
4.63649e-08
4.63287e-08
4.6247e-08
4.61202e-08
4.59492e-08
4.57353e-08
4.54797e-08
4.51843e-08
4.48509e-08
4.44816e-08
4.40787e-08
4.36446e-08
4.31821e-08
4.26939e-08
4.21833e-08
4.16534e-08
4.11079e-08
4.05506e-08
3.99857e-08
3.94178e-08
3.88519e-08
3.82935e-08
3.77489e-08
3.72248e-08
3.67292e-08
3.62707e-08
3.58596e-08
3.55078e-08
3.5229e-08
3.50397e-08
3.49601e-08
3.50143e-08
3.52335e-08
3.56575e-08
3.63385e-08
3.73477e-08
3.8786e-08
4.08028e-08
4.3631e-08
4.76594e-08
5.35964e-08
6.29001e-08
7.9173e-08
1.14447e-07
2.42313e-07
2.82559e-07
1.33701e-07
9.28864e-08
7.42687e-08
6.37932e-08
5.72438e-08
5.29098e-08
4.99577e-08
4.79284e-08
4.6545e-08
4.56287e-08
4.50578e-08
4.47455e-08
4.46276e-08
4.46551e-08
4.47897e-08
4.50012e-08
4.52646e-08
4.55598e-08
4.58699e-08
4.61813e-08
4.64825e-08
4.67641e-08
4.70183e-08
4.72391e-08
4.74215e-08
4.75619e-08
4.76575e-08
4.77064e-08
4.77074e-08
4.76603e-08
4.75649e-08
4.74218e-08
4.72321e-08
4.6997e-08
4.67182e-08
4.63975e-08
4.6037e-08
4.5639e-08
4.52059e-08
4.47404e-08
4.42452e-08
4.37233e-08
4.31776e-08
4.26115e-08
4.20284e-08
4.1432e-08
4.08262e-08
4.02151e-08
3.96034e-08
3.8996e-08
3.83984e-08
3.78166e-08
3.72576e-08
3.67289e-08
3.62395e-08
3.5799e-08
3.5419e-08
3.51129e-08
3.48969e-08
3.47904e-08
3.48175e-08
3.50083e-08
3.54026e-08
3.60519e-08
3.70267e-08
3.84268e-08
4.03997e-08
4.3176e-08
4.714e-08
5.2992e-08
6.21735e-08
7.8245e-08
1.13097e-07
2.39452e-07
2.93311e-07
1.38798e-07
9.64405e-08
7.7125e-08
6.62615e-08
5.94736e-08
5.49855e-08
5.19319e-08
4.9836e-08
4.841e-08
4.74682e-08
4.68836e-08
4.65656e-08
4.6447e-08
4.64764e-08
4.66134e-08
4.6826e-08
4.7088e-08
4.73781e-08
4.76786e-08
4.79751e-08
4.82557e-08
4.85108e-08
4.87324e-08
4.89147e-08
4.90528e-08
4.91434e-08
4.91841e-08
4.91736e-08
4.91112e-08
4.89971e-08
4.88318e-08
4.86166e-08
4.83529e-08
4.80428e-08
4.76882e-08
4.72916e-08
4.68556e-08
4.63828e-08
4.58762e-08
4.53386e-08
4.47731e-08
4.41829e-08
4.35714e-08
4.29418e-08
4.22979e-08
4.16433e-08
4.0982e-08
4.03183e-08
3.96567e-08
3.90022e-08
3.83605e-08
3.77373e-08
3.7139e-08
3.6573e-08
3.60473e-08
3.55719e-08
3.51578e-08
3.48184e-08
3.45692e-08
3.44295e-08
3.44227e-08
3.45782e-08
3.49349e-08
3.55434e-08
3.64725e-08
3.78201e-08
3.97312e-08
4.2432e-08
4.62998e-08
5.2022e-08
6.10131e-08
7.67665e-08
1.10947e-07
2.34894e-07
3.04935e-07
1.44306e-07
1.00278e-07
8.02055e-08
6.89202e-08
6.18727e-08
5.7217e-08
5.40535e-08
5.18862e-08
5.04157e-08
4.94483e-08
4.88513e-08
4.85298e-08
4.84131e-08
4.84469e-08
4.85886e-08
4.8804e-08
4.90653e-08
4.93499e-08
4.96392e-08
4.9918e-08
5.01738e-08
5.03968e-08
5.05792e-08
5.0715e-08
5.07999e-08
5.08308e-08
5.08062e-08
5.07251e-08
5.05875e-08
5.03944e-08
5.01471e-08
4.98474e-08
4.94976e-08
4.91002e-08
4.86579e-08
4.81738e-08
4.76508e-08
4.70922e-08
4.65013e-08
4.58813e-08
4.52356e-08
4.45677e-08
4.38812e-08
4.31795e-08
4.24665e-08
4.1746e-08
4.1022e-08
4.02988e-08
3.95812e-08
3.88738e-08
3.81814e-08
3.75099e-08
3.68658e-08
3.62561e-08
3.56892e-08
3.51741e-08
3.47216e-08
3.43443e-08
3.40575e-08
3.38794e-08
3.3833e-08
3.39465e-08
3.42576e-08
3.48154e-08
3.56872e-08
3.6968e-08
3.8799e-08
4.14005e-08
4.51401e-08
5.06872e-08
5.94192e-08
7.47374e-08
1.07997e-07
2.28639e-07
3.17601e-07
1.50305e-07
1.04454e-07
8.35523e-08
7.18045e-08
6.44721e-08
5.96327e-08
5.63495e-08
5.41057e-08
5.25889e-08
5.15965e-08
5.09894e-08
5.06679e-08
5.05569e-08
5.05988e-08
5.07483e-08
5.09687e-08
5.12304e-08
5.15092e-08
5.17854e-08
5.20429e-08
5.22688e-08
5.24531e-08
5.2588e-08
5.26677e-08
5.26886e-08
5.26484e-08
5.25459e-08
5.23811e-08
5.2155e-08
5.18692e-08
5.1526e-08
5.1128e-08
5.06784e-08
5.01803e-08
4.96373e-08
4.90529e-08
4.84307e-08
4.77745e-08
4.70879e-08
4.63746e-08
4.56384e-08
4.4883e-08
4.4112e-08
4.33293e-08
4.25387e-08
4.17442e-08
4.095e-08
4.016e-08
3.93787e-08
3.86107e-08
3.78613e-08
3.7136e-08
3.6441e-08
3.57829e-08
3.51696e-08
3.46099e-08
3.41139e-08
3.36938e-08
3.3364e-08
3.3142e-08
3.30497e-08
3.31144e-08
3.33719e-08
3.38699e-08
3.46728e-08
3.58727e-08
3.76057e-08
4.00845e-08
4.36644e-08
4.89919e-08
5.73972e-08
7.21644e-08
1.04256e-07
2.20705e-07
3.31473e-07
1.56872e-07
1.09019e-07
8.72057e-08
7.49478e-08
6.73011e-08
6.22599e-08
5.88464e-08
5.6521e-08
5.49567e-08
5.39411e-08
5.33277e-08
5.3011e-08
5.29111e-08
5.2966e-08
5.31272e-08
5.33554e-08
5.36187e-08
5.38911e-08
5.41515e-08
5.4383e-08
5.45723e-08
5.47092e-08
5.4786e-08
5.47982e-08
5.47422e-08
5.46167e-08
5.44214e-08
5.41576e-08
5.38272e-08
5.34329e-08
5.29781e-08
5.24664e-08
5.19019e-08
5.12885e-08
5.06306e-08
4.99324e-08
4.91981e-08
4.8432e-08
4.76381e-08
4.68205e-08
4.59833e-08
4.51303e-08
4.42655e-08
4.33929e-08
4.25164e-08
4.16399e-08
4.07674e-08
3.99031e-08
3.90514e-08
3.8217e-08
3.74046e-08
3.66198e-08
3.58682e-08
3.51564e-08
3.44916e-08
3.38822e-08
3.33378e-08
3.28699e-08
3.24919e-08
3.22207e-08
3.20767e-08
3.20861e-08
3.22825e-08
3.27117e-08
3.34351e-08
3.45406e-08
3.61584e-08
3.84923e-08
4.18821e-08
4.69468e-08
5.49597e-08
6.90636e-08
9.97479e-08
2.11142e-07
3.46705e-07
1.64079e-07
1.14022e-07
9.12023e-08
7.83805e-08
7.03867e-08
6.51238e-08
6.15691e-08
5.91575e-08
5.75459e-08
5.65106e-08
5.58965e-08
5.55914e-08
5.55092e-08
5.55833e-08
5.57612e-08
5.60002e-08
5.62659e-08
5.65301e-08
5.67705e-08
5.69693e-08
5.71128e-08
5.71905e-08
5.71965e-08
5.71261e-08
5.69769e-08
5.67487e-08
5.64428e-08
5.60616e-08
5.56085e-08
5.50875e-08
5.45033e-08
5.38607e-08
5.31646e-08
5.24201e-08
5.16324e-08
5.08063e-08
4.99467e-08
4.90583e-08
4.81455e-08
4.72129e-08
4.62646e-08
4.53048e-08
4.43375e-08
4.33668e-08
4.23965e-08
4.14307e-08
4.04733e-08
3.95284e-08
3.86004e-08
3.76937e-08
3.68129e-08
3.59632e-08
3.51501e-08
3.43796e-08
3.36587e-08
3.2995e-08
3.23978e-08
3.18774e-08
3.14468e-08
3.11213e-08
3.09203e-08
3.08684e-08
3.09972e-08
3.13494e-08
3.19835e-08
3.29823e-08