/*--------------------------------*- C++ -*----------------------------------*\
  =========                 |
  \\      /  F ield         | OpenFOAM: The Open Source CFD Toolbox
   \\    /   O peration     | Website:  https://openfoam.org
    \\  /    A nd           | Version:  12
     \\/     M anipulation  |
\*---------------------------------------------------------------------------*/
FoamFile
{
    format      ascii;
    class       volScalarField;
    location    "6.5";
    object      nut;
}
// * * * * * * * * * * * * * * * * * * * * * * * * * * * * * * * * * * * * * //

dimensions      [0 2 -1 0 0 0 0];

internalField   nonuniform List<scalar> 
5625
(
1.7119e-17
5.17233e-16
1.09647e-15
1.78802e-15
2.56719e-15
3.41533e-15
4.31884e-15
5.26726e-15
6.25201e-15
7.26568e-15
8.30164e-15
9.35379e-15
1.04164e-14
1.14841e-14
1.25517e-14
1.36143e-14
1.46672e-14
1.57056e-14
1.67252e-14
1.77218e-14
1.86912e-14
1.96295e-14
2.0533e-14
2.1398e-14
2.2221e-14
2.2999e-14
2.37288e-14
2.44075e-14
2.50326e-14
2.56016e-14
2.61123e-14
2.65626e-14
2.69509e-14
2.72755e-14
2.75351e-14
2.77287e-14
2.78555e-14
2.79149e-14
2.79065e-14
2.78304e-14
2.76865e-14
2.74753e-14
2.71975e-14
2.68539e-14
2.64459e-14
2.59747e-14
2.54422e-14
2.48501e-14
2.42007e-14
2.34963e-14
2.27396e-14
2.19335e-14
2.10811e-14
2.01856e-14
1.92507e-14
1.828e-14
1.72776e-14
1.62477e-14
1.51945e-14
1.41228e-14
1.30373e-14
1.1943e-14
1.08453e-14
9.74954e-15
8.66172e-15
7.58796e-15
6.53491e-15
5.50981e-15
4.52073e-15
3.577e-15
2.68995e-15
1.87417e-15
1.14956e-15
5.42344e-16
1.79499e-17
1.15734e-16
1.68558e-14
8.99762e-14
2.10425e-13
3.53905e-13
5.09014e-13
6.71682e-13
8.40179e-13
1.01342e-12
1.1905e-12
1.37056e-12
1.55275e-12
1.73625e-12
1.92023e-12
2.10391e-12
2.28648e-12
2.46719e-12
2.64529e-12
2.82004e-12
2.99074e-12
3.15671e-12
3.31729e-12
3.47185e-12
3.61978e-12
3.76051e-12
3.89348e-12
4.0182e-12
4.13417e-12
4.24095e-12
4.33813e-12
4.42534e-12
4.50222e-12
4.56849e-12
4.62389e-12
4.66819e-12
4.7012e-12
4.7228e-12
4.73287e-12
4.73135e-12
4.71825e-12
4.69357e-12
4.65741e-12
4.60987e-12
4.55112e-12
4.48136e-12
4.40082e-12
4.3098e-12
4.20861e-12
4.09761e-12
3.97723e-12
3.84789e-12
3.71008e-12
3.56432e-12
3.41116e-12
3.25121e-12
3.08508e-12
2.91343e-12
2.73696e-12
2.55638e-12
2.37246e-12
2.18596e-12
1.99769e-12
1.8085e-12
1.61924e-12
1.43079e-12
1.24405e-12
1.05995e-12
8.79447e-13
7.03546e-13
5.33445e-13
3.71033e-13
2.20657e-13
9.43578e-14
1.76772e-14
1.21378e-16
2.57237e-16
4.22079e-14
2.8808e-13
8.60657e-13
1.73867e-12
2.83155e-12
4.05787e-12
5.36519e-12
6.72303e-12
8.11344e-12
9.52487e-12
1.09489e-11
1.23786e-11
1.38079e-11
1.52309e-11
1.66421e-11
1.80361e-11
1.94076e-11
2.07513e-11
2.20623e-11
2.33354e-11
2.45661e-11
2.57495e-11
2.68814e-11
2.79574e-11
2.89735e-11
2.99259e-11
3.08111e-11
3.16257e-11
3.23667e-11
3.30313e-11
3.3617e-11
3.41215e-11
3.4543e-11
3.48798e-11
3.51305e-11
3.52942e-11
3.537e-11
3.53577e-11
3.52572e-11
3.50685e-11
3.47923e-11
3.44294e-11
3.3981e-11
3.34486e-11
3.2834e-11
3.21393e-11
3.13669e-11
3.05194e-11
2.95999e-11
2.86115e-11
2.75579e-11
2.64428e-11
2.52703e-11
2.40446e-11
2.27702e-11
2.1452e-11
2.00947e-11
1.87037e-11
1.7284e-11
1.58413e-11
1.43812e-11
1.29096e-11
1.14326e-11
9.95689e-12
8.49005e-12
7.04129e-12
5.62323e-12
4.25538e-12
2.97044e-12
1.82429e-12
9.03081e-13
3.02285e-13
4.42932e-14
2.69968e-16
4.25145e-16
7.15107e-14
5.21309e-13
1.71272e-12
3.82785e-12
6.82638e-12
1.05399e-11
1.47752e-11
1.93688e-11
2.41988e-11
2.91786e-11
3.42471e-11
3.93596e-11
4.44816e-11
4.95848e-11
5.46452e-11
5.96408e-11
6.45517e-11
6.93588e-11
7.40443e-11
7.85906e-11
8.29811e-11
8.71999e-11
9.12315e-11
9.50614e-11
9.86757e-11
1.02061e-10
1.05206e-10
1.08098e-10
1.10728e-10
1.13085e-10
1.15161e-10
1.16948e-10
1.1844e-10
1.19632e-10
1.20518e-10
1.21095e-10
1.21361e-10
1.21314e-10
1.20955e-10
1.20284e-10
1.19302e-10
1.18013e-10
1.1642e-10
1.1453e-10
1.12347e-10
1.0988e-10
1.07135e-10
1.04124e-10
1.00854e-10
9.7338e-11
9.35873e-11
8.96148e-11
8.54341e-11
8.10597e-11
7.6507e-11
7.1792e-11
6.69318e-11
6.19444e-11
5.68489e-11
5.16658e-11
4.64177e-11
4.11303e-11
3.58335e-11
3.05647e-11
2.53727e-11
2.03242e-11
1.55129e-11
1.10701e-11
7.17099e-12
4.02112e-12
1.7991e-12
5.47599e-13
7.51251e-14
4.46669e-16
6.11585e-16
1.03745e-13
7.74547e-13
2.6461e-12
6.21018e-12
1.16651e-11
1.89279e-11
2.77396e-11
3.7778e-11
4.87325e-11
6.03378e-11
7.23807e-11
8.46937e-11
9.71454e-11
1.09631e-10
1.22066e-10
1.34378e-10
1.46503e-10
1.58387e-10
1.69978e-10
1.81229e-10
1.92097e-10
2.02538e-10
2.12515e-10
2.21992e-10
2.30933e-10
2.39306e-10
2.47081e-10
2.54231e-10
2.6073e-10
2.66554e-10
2.71682e-10
2.76097e-10
2.79782e-10
2.82723e-10
2.84911e-10
2.86336e-10
2.86992e-10
2.86878e-10
2.85993e-10
2.84336e-10
2.81913e-10
2.78732e-10
2.74801e-10
2.70134e-10
2.64744e-10
2.58648e-10
2.51867e-10
2.44422e-10
2.36337e-10
2.27638e-10
2.18355e-10
2.08518e-10
1.98162e-10
1.87322e-10
1.76038e-10
1.64351e-10
1.52308e-10
1.39959e-10
1.27361e-10
1.14578e-10
1.01686e-10
8.87776e-11
7.59653e-11
6.33927e-11
5.12423e-11
3.97469e-11
2.91952e-11
1.99232e-11
1.22775e-11
6.53497e-12
2.78397e-12
8.14837e-13
1.09148e-13
6.4347e-16
8.11447e-16
1.38166e-13
1.04267e-12
3.62851e-12
8.73067e-12
1.68813e-11
2.82373e-11
4.26324e-11
5.96923e-11
7.89487e-11
9.99249e-11
1.22183e-10
1.45343e-10
1.69084e-10
1.9314e-10
2.17289e-10
2.41344e-10
2.65144e-10
2.88551e-10
3.11442e-10
3.33708e-10
3.55248e-10
3.75971e-10
3.95792e-10
4.14632e-10
4.32419e-10
4.49085e-10
4.64568e-10
4.78809e-10
4.91758e-10
5.03367e-10
5.13594e-10
5.22402e-10
5.29758e-10
5.35636e-10
5.40014e-10
5.42874e-10
5.44206e-10
5.44004e-10
5.42269e-10
5.38996e-10
5.34199e-10
5.2789e-10
5.20089e-10
5.1082e-10
5.0011e-10
4.87995e-10
4.74511e-10
4.59703e-10
4.4362e-10
4.26314e-10
4.07846e-10
3.8828e-10
3.67689e-10
3.46149e-10
3.2375e-10
3.00586e-10
2.76767e-10
2.52417e-10
2.27681e-10
2.02727e-10
1.77754e-10
1.53004e-10
1.28768e-10
1.05401e-10
8.33222e-11
6.30167e-11
4.50073e-11
2.98037e-11
1.78111e-11
9.20751e-12
3.82523e-12
1.09896e-12
1.4562e-13
8.55235e-16
1.02088e-15
1.74165e-13
1.32171e-12
4.6449e-12
1.13308e-11
2.22793e-11
3.79664e-11
5.84384e-11
8.33952e-11
1.12312e-10
1.44553e-10
1.7946e-10
2.16404e-10
2.54816e-10
2.94194e-10
3.34103e-10
3.74166e-10
4.14055e-10
4.53488e-10
4.92213e-10
5.30007e-10
5.66672e-10
6.02027e-10
6.35908e-10
6.68166e-10
6.98662e-10
7.27272e-10
7.5388e-10
7.78382e-10
8.00682e-10
8.20695e-10
8.38344e-10
8.53563e-10
8.66293e-10
8.76486e-10
8.84102e-10
8.89111e-10
8.9149e-10
8.91227e-10
8.8833e-10
8.82781e-10
8.74607e-10
8.63829e-10
8.50481e-10
8.34603e-10
8.16245e-10
7.95466e-10
7.72334e-10
7.46928e-10
7.19334e-10
6.89653e-10
6.57993e-10
6.24479e-10
5.89249e-10
5.52457e-10
5.14275e-10
4.749e-10
4.34554e-10
3.93497e-10
3.5203e-10
3.10505e-10
2.69336e-10
2.29008e-10
1.90082e-10
1.53197e-10
1.19055e-10
8.83935e-11
6.19171e-11
4.02022e-11
2.3574e-11
1.19804e-11
4.90811e-12
1.39604e-12
1.83934e-13
1.0781e-15
1.23673e-15
2.11226e-13
1.6081e-12
5.68357e-12
1.39775e-11
2.77648e-11
4.78712e-11
7.46181e-11
1.07869e-10
1.47136e-10
1.91707e-10
2.40754e-10
2.93422e-10
3.48882e-10
4.06364e-10
4.65169e-10
5.24675e-10
5.84327e-10
6.43635e-10
7.02164e-10
7.59523e-10
8.15366e-10
8.69378e-10
9.21275e-10
9.70798e-10
1.01771e-09
1.06181e-09
1.10289e-09
1.14077e-09
1.17531e-09
1.20635e-09
1.23377e-09
1.25745e-09
1.27731e-09
1.29325e-09
1.30522e-09
1.31316e-09
1.31703e-09
1.31682e-09
1.31252e-09
1.30412e-09
1.29164e-09
1.27513e-09
1.25464e-09
1.23023e-09
1.20198e-09
1.16998e-09
1.13435e-09
1.09522e-09
1.05273e-09
1.00704e-09
9.58356e-10
9.06877e-10
8.52847e-10
7.96536e-10
7.38256e-10
6.78359e-10
6.1725e-10
5.55392e-10
4.9332e-10
4.31645e-10
3.71068e-10
3.1238e-10
2.5646e-10
2.04254e-10
1.56737e-10
1.14846e-10
7.93784e-11
5.08722e-11
2.94719e-11
1.48208e-11
6.021e-12
1.70252e-12
2.23567e-13
1.30886e-15
1.45632e-15
2.48902e-13
1.89867e-12
6.73405e-12
1.66449e-11
3.32775e-11
5.78132e-11
9.08728e-11
1.3253e-10
1.824e-10
2.3976e-10
3.03679e-10
3.73113e-10
4.47001e-10
5.24306e-10
6.04055e-10
6.85349e-10
7.6737e-10
8.49378e-10
9.30708e-10
1.01076e-09
1.08899e-09
1.1649e-09
1.23807e-09
1.30807e-09
1.37454e-09
1.43716e-09
1.49561e-09
1.54963e-09
1.59896e-09
1.64338e-09
1.68271e-09
1.71675e-09
1.74537e-09
1.76843e-09
1.78584e-09
1.7975e-09
1.80337e-09
1.8034e-09
1.7976e-09
1.78592e-09
1.76842e-09
1.74515e-09
1.71617e-09
1.68159e-09
1.64151e-09
1.5961e-09
1.54551e-09
1.48995e-09
1.42964e-09
1.36485e-09
1.29587e-09
1.22303e-09
1.14673e-09
1.0674e-09
9.85538e-10
9.01701e-10
8.16536e-10
7.30773e-10
6.45237e-10
5.6086e-10
4.78676e-10
3.99814e-10
3.25483e-10
2.56919e-10
1.95328e-10
1.41779e-10
9.70857e-11
6.16725e-11
3.54434e-11
1.77023e-11
7.15307e-12
2.0151e-12
2.64055e-13
1.54474e-15
1.67733e-15
2.86802e-13
2.19053e-12
7.7867e-12
1.931e-11
3.87699e-11
6.76965e-11
1.07014e-10
1.57024e-10
2.17479e-10
2.87692e-10
3.66674e-10
4.53247e-10
5.46144e-10
6.44089e-10
7.45841e-10
8.50225e-10
9.56144e-10
1.06259e-09
1.16864e-09
1.27345e-09
1.37626e-09
1.47635e-09
1.57311e-09
1.66594e-09
1.75432e-09
1.83776e-09
1.91583e-09
1.98812e-09
2.05429e-09
2.114e-09
2.16698e-09
2.21296e-09
2.25174e-09
2.28311e-09
2.30693e-09
2.32307e-09
2.33144e-09
2.33198e-09
2.3247e-09
2.30953e-09
2.28652e-09
2.25575e-09
2.21732e-09
2.17135e-09
2.11802e-09
2.05754e-09
1.99013e-09
1.9161e-09
1.83577e-09
1.74952e-09
1.65779e-09
1.56107e-09
1.45994e-09
1.35503e-09
1.24707e-09
1.13688e-09
1.02539e-09
9.13645e-10
8.02802e-10
6.94141e-10
5.89051e-10
4.89009e-10
3.95534e-10
3.10126e-10
2.34171e-10
1.68816e-10
1.14839e-10
7.25007e-11
4.14373e-11
2.06e-11
8.29393e-12
2.33065e-12
3.04972e-13
1.78321e-15
1.89773e-15
3.2458e-13
2.48113e-12
8.83282e-12
2.19521e-11
4.42003e-11
7.74444e-11
1.22903e-10
1.81109e-10
2.51963e-10
3.3484e-10
4.28724e-10
5.32338e-10
6.44249e-10
7.62966e-10
8.87003e-10
1.01492e-09
1.14535e-09
1.27701e-09
1.40871e-09
1.53935e-09
1.66792e-09
1.7935e-09
1.91523e-09
2.03234e-09
2.1441e-09
2.24987e-09
2.34906e-09
2.44111e-09
2.52554e-09
2.60191e-09
2.66982e-09
2.72892e-09
2.77892e-09
2.81954e-09
2.85058e-09
2.87185e-09
2.88322e-09
2.88459e-09
2.87599e-09
2.85729e-09
2.82857e-09
2.78992e-09
2.74147e-09
2.68338e-09
2.61589e-09
2.53927e-09
2.45384e-09
2.36e-09
2.2582e-09
2.14897e-09
2.03289e-09
1.91067e-09
1.78307e-09
1.65098e-09
1.51539e-09
1.37741e-09
1.23829e-09
1.09941e-09
9.62281e-10
8.28556e-10
6.99976e-10
5.78352e-10
4.65497e-10
3.63142e-10
2.72808e-10
1.95686e-10
1.3248e-10
8.32686e-11
4.74055e-11
2.34899e-11
9.43348e-12
2.64622e-12
3.4592e-13
2.02191e-15
2.11575e-15
3.61937e-13
2.76821e-12
9.86462e-12
2.45526e-11
4.95322e-11
8.69919e-11
1.38431e-10
2.04604e-10
2.8556e-10
3.80746e-10
4.89138e-10
6.09382e-10
7.39913e-10
8.79046e-10
1.02508e-09
1.17632e-09
1.33115e-09
1.48802e-09
1.64549e-09
1.80219e-09
1.95688e-09
2.10838e-09
2.25562e-09
2.39761e-09
2.53345e-09
2.66228e-09
2.78335e-09
2.89596e-09
2.99947e-09
3.0933e-09
3.17694e-09
3.24993e-09
3.31187e-09
3.36241e-09
3.40126e-09
3.42818e-09
3.44298e-09
3.44554e-09
3.43587e-09
3.41378e-09
3.37939e-09
3.33278e-09
3.27412e-09
3.20363e-09
3.12158e-09
3.02833e-09
2.92431e-09
2.81001e-09
2.68604e-09
2.55306e-09
2.41186e-09
2.26334e-09
2.10851e-09
1.94849e-09
1.78459e-09
1.61822e-09
1.45096e-09
1.28456e-09
1.12088e-09
9.61932e-10
8.09818e-10
6.66662e-10
5.34552e-10
4.15411e-10
3.10878e-10
2.22161e-10
1.49871e-10
9.38933e-11
5.33013e-11
2.63484e-11
1.05619e-11
2.95897e-12
3.86521e-13
2.25863e-15
2.32988e-15
3.98615e-13
3.04984e-12
1.08754e-11
2.7095e-11
5.47334e-11
9.6283e-11
1.53506e-10
2.27365e-10
3.1805e-10
4.25079e-10
5.47431e-10
6.83685e-10
8.32166e-10
9.9102e-10
1.15835e-09
1.33224e-09
1.51083e-09
1.69234e-09
1.87506e-09
2.05739e-09
2.23783e-09
2.41499e-09
2.58756e-09
2.75435e-09
2.91424e-09
3.0662e-09
3.2093e-09
3.34265e-09
3.46549e-09
3.57707e-09
3.67677e-09
3.764e-09
3.83826e-09
3.89909e-09
3.94614e-09
3.97908e-09
3.99767e-09
4.00174e-09
3.9913e-09
3.9661e-09
3.92626e-09
3.87189e-09
3.80317e-09
3.72036e-09
3.62382e-09
3.51397e-09
3.39133e-09
3.25654e-09
3.11032e-09
2.95352e-09
2.78713e-09
2.61224e-09
2.43013e-09
2.24219e-09
2.05001e-09
1.85534e-09
1.6601e-09
1.46638e-09
1.27643e-09
1.09259e-09
9.17306e-10
7.53006e-10
6.02029e-10
4.6647e-10
3.4807e-10
2.48035e-10
1.66879e-10
1.04293e-10
5.90784e-11
2.9152e-11
1.16696e-11
3.26616e-12
4.26412e-13
2.49123e-15
2.53887e-15
4.34402e-13
3.3244e-12
1.18594e-11
2.95658e-11
5.9777e-11
1.05271e-10
1.68055e-10
2.4928e-10
3.49265e-10
4.67594e-10
6.03249e-10
7.54754e-10
9.20328e-10
1.09798e-09
1.28563e-09
1.48116e-09
1.6825e-09
1.88763e-09
2.09462e-09
2.30164e-09
2.50695e-09
2.70894e-09
2.9061e-09
3.09702e-09
3.28038e-09
3.45497e-09
3.61968e-09
3.77345e-09
3.91536e-09
4.04454e-09
4.1602e-09
4.26164e-09
4.34826e-09
4.41949e-09
4.47489e-09
4.51406e-09
4.5367e-09
4.54257e-09
4.53168e-09
4.50372e-09
4.4588e-09
4.39705e-09
4.31868e-09
4.22398e-09
4.11337e-09
3.98735e-09
3.84655e-09
3.69172e-09
3.52374e-09
3.34362e-09
3.15254e-09
2.95183e-09
2.743e-09
2.52773e-09
2.3079e-09
2.08558e-09
1.86304e-09
1.6427e-09
1.42717e-09
1.21915e-09
1.02138e-09
8.36593e-10
6.67345e-10
5.15902e-10
3.84091e-10
2.7311e-10
1.83373e-10
1.14388e-10
6.46906e-11
3.18778e-11
1.27472e-11
3.56511e-12
4.6524e-13
2.71764e-15
2.74176e-15
4.69132e-13
3.59062e-12
1.28123e-11
3.1954e-11
6.46415e-11
1.13919e-10
1.82018e-10
2.7026e-10
3.79079e-10
5.08113e-10
6.56342e-10
8.22244e-10
1.00393e-09
1.19931e-09
1.40611e-09
1.62204e-09
1.84484e-09
2.07228e-09
2.30222e-09
2.53261e-09
2.76151e-09
2.9871e-09
3.20766e-09
3.42158e-09
3.62737e-09
3.82363e-09
4.00907e-09
4.1825e-09
4.34281e-09
4.489e-09
4.62016e-09
4.73546e-09
4.83418e-09
4.91565e-09
4.97935e-09
5.02478e-09
5.0516e-09
5.05947e-09
5.04845e-09
5.01812e-09
4.96858e-09
4.89998e-09
4.81255e-09
4.70663e-09
4.58267e-09
4.44126e-09
4.28312e-09
4.10913e-09
3.92029e-09
3.71781e-09
3.50303e-09
3.27752e-09
3.04303e-09
2.80151e-09
2.55512e-09
2.30626e-09
2.05751e-09
1.81165e-09
1.5716e-09
1.3404e-09
1.1211e-09
9.16699e-10
7.2996e-10
5.63313e-10
4.18659e-10
2.97189e-10
1.99225e-10
1.24097e-10
7.0092e-11
3.45027e-11
1.37854e-11
3.8532e-12
5.02661e-13
2.93585e-15
2.93786e-15
5.02687e-13
3.84762e-12
1.37309e-11
3.4252e-11
6.93118e-11
1.22201e-10
1.95355e-10
2.90247e-10
4.07406e-10
5.46516e-10
7.06548e-10
8.8593e-10
1.08269e-09
1.2946e-09
1.51925e-09
1.7542e-09
1.99699e-09
2.24522e-09
2.49654e-09
2.74872e-09
2.99963e-09
3.24725e-09
3.48968e-09
3.72514e-09
3.95195e-09
4.16855e-09
4.37349e-09
4.56543e-09
4.74311e-09
4.9054e-09
5.05126e-09
5.17975e-09
5.29002e-09
5.38133e-09
5.45304e-09
5.50461e-09
5.53559e-09
5.5456e-09
5.5347e-09
5.50237e-09
5.44871e-09
5.37389e-09
5.27813e-09
5.16181e-09
5.02544e-09
4.86967e-09
4.69531e-09
4.50334e-09
4.29493e-09
4.0714e-09
3.83432e-09
3.58544e-09
3.32674e-09
3.06044e-09
2.78898e-09
2.51505e-09
2.24155e-09
1.97157e-09
1.70835e-09
1.45524e-09
1.21559e-09
9.9264e-10
7.89354e-10
6.08313e-10
4.51493e-10
3.20078e-10
2.14304e-10
1.33339e-10
7.52367e-11
3.7004e-11
1.4775e-11
4.12785e-12
5.38339e-13
3.14389e-15
3.12677e-15
5.35001e-13
4.09488e-12
1.46134e-11
3.64554e-11
7.37793e-11
1.30103e-10
2.08044e-10
3.09207e-10
4.34202e-10
5.82741e-10
7.53782e-10
9.45697e-10
1.15643e-09
1.38363e-09
1.62477e-09
1.87725e-09
2.13844e-09
2.40578e-09
2.67676e-09
2.94896e-09
3.22008e-09
3.48793e-09
3.75045e-09
4.0057e-09
4.25183e-09
4.48714e-09
4.71003e-09
4.91902e-09
5.11273e-09
5.2899e-09
5.44937e-09
5.5901e-09
5.71113e-09
5.81163e-09
5.89088e-09
5.94825e-09
5.98323e-09
5.9954e-09
5.98479e-09
5.95079e-09
5.89352e-09
5.81312e-09
5.70985e-09
5.58408e-09
5.43639e-09
5.26747e-09
5.07823e-09
4.86974e-09
4.64328e-09
4.40035e-09
4.14265e-09
3.87215e-09
3.59103e-09
3.30177e-09
3.00705e-09
2.70984e-09
2.41333e-09
2.12092e-09
1.83614e-09
1.56263e-09
1.30401e-09
1.06375e-09
8.45013e-10
6.50518e-10
4.82312e-10
3.41579e-10
2.2848e-10
1.42032e-10
8.00789e-11
3.93592e-11
1.57069e-11
4.38653e-12
5.71941e-13
3.33982e-15
3.30843e-15
5.66058e-13
4.33229e-12
1.54594e-11
3.85633e-11
7.80428e-11
1.37623e-10
2.20083e-10
3.2714e-10
4.59466e-10
6.16787e-10
7.98037e-10
1.00153e-09
1.22512e-09
1.46635e-09
1.72257e-09
1.99103e-09
2.26897e-09
2.55367e-09
2.84245e-09
3.13276e-09
3.42214e-09
3.70825e-09
3.98888e-09
4.26194e-09
4.52546e-09
4.7776e-09
5.01664e-09
5.24097e-09
5.4491e-09
5.63966e-09
5.81139e-09
5.96315e-09
6.0939e-09
6.20272e-09
6.2888e-09
6.35147e-09
6.39012e-09
6.40433e-09
6.39408e-09
6.35868e-09
6.29825e-09
6.21293e-09
6.10297e-09
5.96879e-09
5.81096e-09
5.63025e-09
5.42763e-09
5.20425e-09
4.96151e-09
4.70103e-09
4.42467e-09
4.13457e-09
3.8331e-09
3.52295e-09
3.20706e-09
2.88864e-09
2.57114e-09
2.25823e-09
1.95374e-09
1.66154e-09
1.38553e-09
1.12937e-09
8.96425e-10
6.8954e-10
5.10833e-10
3.61495e-10
2.4162e-10
1.50097e-10
8.45729e-11
4.15458e-11
1.65724e-11
4.62674e-12
6.03141e-13
3.52174e-15
3.48306e-15
5.95903e-13
4.56018e-12
1.62701e-11
4.05788e-11
8.21084e-11
1.44773e-10
2.31492e-10
3.44076e-10
4.83239e-10
6.4871e-10
8.39388e-10
1.05352e-09
1.28886e-09
1.54287e-09
1.81275e-09
2.09564e-09
2.38863e-09
2.68887e-09
2.99355e-09
3.29997e-09
3.60554e-09
3.9078e-09
4.20439e-09
4.49313e-09
4.77191e-09
5.03879e-09
5.29195e-09
5.52966e-09
5.75036e-09
5.95258e-09
6.13498e-09
6.29632e-09
6.4355e-09
6.55154e-09
6.64355e-09
6.71081e-09
6.75263e-09
6.76862e-09
6.75867e-09
6.72203e-09
6.65884e-09
6.56921e-09
6.4534e-09
6.31184e-09
6.14512e-09
5.95406e-09
5.73968e-09
5.5032e-09
5.24611e-09
4.97014e-09
4.67729e-09
4.36982e-09
4.05031e-09
3.72161e-09
3.38688e-09
3.04956e-09
2.71332e-09
2.38209e-09
2.05993e-09
1.75097e-09
1.45931e-09
1.18884e-09
9.43074e-10
7.24989e-10
5.36772e-10
3.79625e-10
2.53594e-10
1.5745e-10
8.8673e-11
4.35414e-11
1.73623e-11
4.84601e-12
6.31618e-13
3.68776e-15
3.65126e-15
6.24632e-13
4.7793e-12
1.70482e-11
4.25087e-11
8.59905e-11
1.51577e-10
2.42312e-10
3.60076e-10
5.05612e-10
6.78632e-10
8.77987e-10
1.10185e-09
1.34788e-09
1.61342e-09
1.89558e-09
2.19134e-09
2.49769e-09
2.81164e-09
3.13026e-09
3.45073e-09
3.77035e-09
4.08654e-09
4.39684e-09
4.69897e-09
4.99072e-09
5.27008e-09
5.53512e-09
5.78407e-09
6.01526e-09
6.22718e-09
6.4184e-09
6.58765e-09
6.73375e-09
6.85568e-09
6.95251e-09
7.02343e-09
7.06777e-09
7.08508e-09
7.07524e-09
7.0374e-09
6.97174e-09
6.87836e-09
6.7575e-09
6.6096e-09
6.43527e-09
6.23535e-09
6.01091e-09
5.76322e-09
5.49385e-09
5.2046e-09
4.89759e-09
4.5752e-09
4.24016e-09
3.89546e-09
3.54445e-09
3.19075e-09
2.83825e-09
2.49108e-09
2.15352e-09
1.8299e-09
1.52455e-09
1.2415e-09
9.84446e-10
7.56474e-10
5.59842e-10
3.95771e-10
2.64268e-10
1.64012e-10
9.23341e-11
4.53241e-11
1.80681e-11
5.04191e-12
6.57057e-13
3.83605e-15
3.81393e-15
6.52404e-13
4.99086e-12
1.77981e-11
4.4364e-11
8.97113e-11
1.58077e-10
2.52607e-10
3.75239e-10
5.2672e-10
7.06733e-10
9.14065e-10
1.1468e-09
1.40251e-09
1.6784e-09
1.97148e-09
2.2786e-09
2.59663e-09
2.92246e-09
3.25305e-09
3.58548e-09
3.91695e-09
4.24477e-09
4.56643e-09
4.87953e-09
5.18183e-09
5.47123e-09
5.74575e-09
6.00357e-09
6.24298e-09
6.46241e-09
6.6604e-09
6.83565e-09
6.98694e-09
7.11321e-09
7.21351e-09
7.28697e-09
7.33299e-09
7.35102e-09
7.34091e-09
7.30178e-09
7.23385e-09
7.13718e-09
7.01201e-09
6.85878e-09
6.67811e-09
6.47086e-09
6.23811e-09
5.98119e-09
5.7017e-09
5.40152e-09
5.08284e-09
4.74814e-09
4.40025e-09
4.0423e-09
3.67777e-09
3.31043e-09
2.94436e-09
2.58383e-09
2.23332e-09
1.89735e-09
1.58041e-09
1.28669e-09
1.02002e-09
7.83604e-10
5.79759e-10
4.09734e-10
2.73514e-10
1.69702e-10
9.55116e-11
4.68721e-11
1.86812e-11
5.21206e-12
6.79148e-13
3.96481e-15
3.97232e-15
6.79431e-13
5.1965e-12
1.85256e-11
4.61595e-11
9.3301e-11
1.64325e-10
2.62465e-10
3.89692e-10
5.46745e-10
7.33256e-10
9.47934e-10
1.18876e-09
1.45319e-09
1.73833e-09
2.04103e-09
2.35804e-09
2.68611e-09
3.02201e-09
3.36262e-09
3.70489e-09
4.04595e-09
4.38306e-09
4.71361e-09
5.03518e-09
5.34546e-09
5.64231e-09
5.92374e-09
6.18789e-09
6.43304e-09
6.6576e-09
6.8601e-09
7.03921e-09
7.19373e-09
7.32258e-09
7.42478e-09
7.49951e-09
7.54613e-09
7.56409e-09
7.55315e-09
7.51253e-09
7.44239e-09
7.34281e-09
7.214e-09
7.0564e-09
6.87064e-09
6.65757e-09
6.4183e-09
6.15418e-09
5.86683e-09
5.55817e-09
5.23044e-09
4.88618e-09
4.5283e-09
4.16002e-09
3.78491e-09
3.40687e-09
3.03009e-09
2.65899e-09
2.29819e-09
1.95235e-09
1.6261e-09
1.32377e-09
1.0493e-09
8.05995e-10
5.96242e-10
4.21319e-10
2.812e-10
1.74441e-10
9.81618e-11
4.81645e-11
1.91932e-11
5.35418e-12
6.97596e-13
4.07231e-15
4.12801e-15
7.05984e-13
5.3983e-12
1.92382e-11
4.7914e-11
9.67982e-11
1.7039e-10
2.71994e-10
4.036e-10
5.65914e-10
7.58502e-10
9.79975e-10
1.2282e-09
1.5005e-09
1.79383e-09
2.10495e-09
2.43045e-09
2.76696e-09
3.11116e-09
3.45981e-09
3.80981e-09
4.15819e-09
4.50216e-09
4.83909e-09
5.16649e-09
5.48206e-09
5.78365e-09
6.06925e-09
6.33702e-09
6.58524e-09
6.81233e-09
7.01686e-09
7.19751e-09
7.35309e-09
7.48254e-09
7.58487e-09
7.65938e-09
7.70532e-09
7.72227e-09
7.7098e-09
7.6673e-09
7.59491e-09
7.49266e-09
7.3608e-09
7.19973e-09
7.0101e-09
6.79274e-09
6.54876e-09
6.2795e-09
5.9866e-09
5.672e-09
5.33794e-09
4.98701e-09
4.62213e-09
4.24659e-09
3.86402e-09
3.47839e-09
3.09396e-09
2.71526e-09
2.34699e-09
1.99394e-09
1.66082e-09
1.35209e-09
1.07178e-09
8.2327e-10
6.09016e-10
4.30334e-10
2.87204e-10
1.78153e-10
1.00243e-10
4.91808e-11
1.95961e-11
5.46605e-12
7.12114e-13
4.15689e-15
4.28288e-15
7.32388e-13
5.59875e-12
1.99449e-11
4.965e-11
1.00249e-10
1.76354e-10
2.81326e-10
4.17154e-10
5.84497e-10
7.82827e-10
1.01064e-09
1.26566e-09
1.54506e-09
1.84566e-09
2.16405e-09
2.4967e-09
2.84012e-09
3.19087e-09
3.54563e-09
3.90121e-09
4.2546e-09
4.60297e-09
4.94365e-09
5.27418e-09
5.59224e-09
5.89569e-09
6.18258e-09
6.45108e-09
6.69952e-09
6.92638e-09
7.13026e-09
7.30991e-09
7.46418e-09
7.59203e-09
7.69261e-09
7.76515e-09
7.80899e-09
7.82378e-09
7.80892e-09
7.76405e-09
7.68922e-09
7.58448e-09
7.45005e-09
7.28636e-09
7.09402e-09
6.87387e-09
6.62698e-09
6.35468e-09
6.05861e-09
5.74067e-09
5.4031e-09
5.04848e-09
4.67973e-09
4.30015e-09
3.91339e-09
3.52343e-09
3.13458e-09
2.75141e-09
2.37867e-09
2.02122e-09
1.68384e-09
1.37106e-09
1.08699e-09
8.3507e-10
6.1782e-10
4.36597e-10
2.91405e-10
1.80767e-10
1.01714e-10
4.99018e-11
1.98826e-11
5.54562e-12
7.22437e-13
4.217e-15
4.43912e-15
7.59016e-13
5.80073e-12
2.06561e-11
5.13936e-11
1.03706e-10
1.8231e-10
2.90611e-10
4.30578e-10
6.02799e-10
8.06634e-10
1.04043e-09
1.30175e-09
1.5876e-09
1.89461e-09
2.21923e-09
2.55777e-09
2.90661e-09
3.26219e-09
3.62112e-09
3.98014e-09
4.33619e-09
4.68643e-09
5.02819e-09
5.35901e-09
5.67663e-09
5.97896e-09
6.26409e-09
6.53028e-09
6.77594e-09
6.99962e-09
7.20001e-09
7.37594e-09
7.52633e-09
7.65027e-09
7.74695e-09
7.81566e-09
7.85579e-09
7.86713e-09
7.8489e-09
7.80102e-09
7.72345e-09
7.61627e-09
7.47971e-09
7.31417e-09
7.12026e-09
6.89878e-09
6.65078e-09
6.37757e-09
6.08071e-09
5.76209e-09
5.4239e-09
5.06867e-09
4.69929e-09
4.31901e-09
3.93144e-09
3.54056e-09
3.15066e-09
2.7663e-09
2.39225e-09
2.03336e-09
1.69446e-09
1.38012e-09
1.09449e-09
8.41062e-10
6.22411e-10
4.39941e-10
2.93693e-10
1.82214e-10
1.02539e-10
5.03098e-11
2.00455e-11
5.59097e-12
7.28319e-13
4.25122e-15
4.59916e-15
7.86287e-13
6.00747e-12
2.13833e-11
5.3174e-11
1.07229e-10
1.88364e-10
3.00015e-10
4.44117e-10
6.21161e-10
8.30364e-10
1.0699e-09
1.33714e-09
1.62887e-09
1.94156e-09
2.27143e-09
2.61465e-09
2.96746e-09
3.3262e-09
3.68735e-09
4.04763e-09
4.40395e-09
4.75346e-09
5.09352e-09
5.42172e-09
5.73586e-09
6.03394e-09
6.31415e-09
6.57484e-09
6.81455e-09
7.03195e-09
7.22586e-09
7.39518e-09
7.53902e-09
7.65656e-09
7.74707e-09
7.80992e-09
7.84468e-09
7.85105e-09
7.8284e-09
7.77677e-09
7.69609e-09
7.58646e-09
7.44811e-09
7.28145e-09
7.08704e-09
6.86568e-09
6.61836e-09
6.34634e-09
6.05113e-09
5.73453e-09
5.39865e-09
5.04595e-09
4.67924e-09
4.30169e-09
3.91683e-09
3.52856e-09
3.1411e-09
2.75895e-09
2.38685e-09
2.02962e-09
1.69207e-09
1.37877e-09
1.09388e-09
8.40945e-10
6.2257e-10
4.40213e-10
2.93969e-10
1.82435e-10
1.02686e-10
5.03891e-11
2.00789e-11
5.60045e-12
7.29548e-13
4.25832e-15
4.76566e-15
8.14659e-13
6.2225e-12
2.21393e-11
5.50234e-11
1.10883e-10
1.94631e-10
3.09722e-10
4.58036e-10
6.39944e-10
8.54488e-10
1.09963e-09
1.3725e-09
1.66968e-09
1.98736e-09
2.32159e-09
2.66834e-09
3.0237e-09
3.38388e-09
3.7453e-09
4.10463e-09
4.45876e-09
4.80486e-09
5.14036e-09
5.46291e-09
5.77042e-09
6.06101e-09
6.33299e-09
6.58488e-09
6.81537e-09
7.02327e-09
7.20754e-09
7.36733e-09
7.50183e-09
7.61034e-09
7.69228e-09
7.74718e-09
7.77478e-09
7.77462e-09
7.74646e-09
7.69026e-09
7.60603e-09
7.49387e-09
7.35406e-09
7.187e-09
6.99326e-09
6.77356e-09
6.52883e-09
6.26025e-09
5.96921e-09
5.65744e-09
5.32693e-09
4.98001e-09
4.61936e-09
4.24803e-09
3.86943e-09
3.48732e-09
3.10582e-09
2.72931e-09
2.36244e-09
2.00996e-09
1.6766e-09
1.36693e-09
1.08509e-09
8.34643e-10
6.18228e-10
4.37357e-10
2.92192e-10
1.81402e-10
1.02136e-10
5.01314e-11
1.99792e-11
5.57307e-12
7.25986e-13
4.23746e-15
4.94146e-15
8.44619e-13
6.44959e-12
2.29376e-11
5.69759e-11
1.14739e-10
2.01233e-10
3.19924e-10
4.72616e-10
6.59527e-10
8.79488e-10
1.1302e-09
1.40854e-09
1.71078e-09
2.03286e-09
2.37059e-09
2.71973e-09
3.07621e-09
3.43612e-09
3.79581e-09
4.15189e-09
4.50129e-09
4.84122e-09
5.16918e-09
5.48296e-09
5.78058e-09
6.06033e-09
6.3207e-09
6.56039e-09
6.77827e-09
6.97337e-09
7.14487e-09
7.29205e-09
7.41425e-09
7.51103e-09
7.58204e-09
7.62694e-09
7.64552e-09
7.63742e-09
7.60263e-09
7.54115e-09
7.45302e-09
7.33841e-09
7.19758e-09
7.03087e-09
6.83881e-09
6.62209e-09
6.38159e-09
6.11839e-09
5.83381e-09
5.52944e-09
5.20714e-09
4.86908e-09
4.51778e-09
4.1561e-09
3.78725e-09
3.41486e-09
3.04287e-09
2.67554e-09
2.31734e-09
1.97288e-09
1.64682e-09
1.34363e-09
1.06739e-09
8.21633e-10
6.09028e-10
4.31141e-10
2.88219e-10
1.79034e-10
1.0085e-10
4.95177e-11
1.97396e-11
5.507e-12
7.17416e-13
4.18744e-15
5.12951e-15
8.76678e-13
6.69266e-12
2.37926e-11
5.90674e-11
1.18868e-10
2.08297e-10
3.30819e-10
4.88141e-10
6.80293e-10
9.05846e-10
1.1622e-09
1.4459e-09
1.75289e-09
2.07882e-09
2.4192e-09
2.76959e-09
3.12572e-09
3.48358e-09
3.83944e-09
4.1899e-09
4.53193e-09
4.86282e-09
5.18018e-09
5.48194e-09
5.76633e-09
6.03181e-09
6.27711e-09
6.50115e-09
6.70303e-09
6.88202e-09
7.03747e-09
7.16891e-09
7.27608e-09
7.35866e-09
7.41641e-09
7.44919e-09
7.45687e-09
7.43941e-09
7.39683e-09
7.32918e-09
7.2366e-09
7.11927e-09
6.97748e-09
6.81162e-09
6.62219e-09
6.40981e-09
6.17528e-09
5.91958e-09
5.64388e-09
5.3496e-09
5.03841e-09
4.71233e-09
4.37368e-09
4.02515e-09
3.66977e-09
3.31088e-09
2.95219e-09
2.59771e-09
2.25172e-09
1.91864e-09
1.60295e-09
1.30902e-09
1.04085e-09
8.01932e-10
5.94956e-10
4.2154e-10
2.82025e-10
1.75311e-10
9.88132e-11
4.85415e-11
1.93573e-11
5.40155e-12
7.03748e-13
4.10775e-15
5.33281e-15
9.11352e-13
6.95574e-12
2.47188e-11
6.13345e-11
1.23345e-10
2.15952e-10
3.4261e-10
5.04897e-10
7.02615e-10
9.34023e-10
1.19616e-09
1.48517e-09
1.79664e-09
2.12585e-09
2.46801e-09
2.81844e-09
3.17269e-09
3.52661e-09
3.87644e-09
4.21879e-09
4.55069e-09
4.86954e-09
5.17313e-09
5.45957e-09
5.72731e-09
5.97507e-09
6.20182e-09
6.40676e-09
6.58927e-09
6.7488e-09
6.88513e-09
6.9981e-09
7.08748e-09
7.1533e-09
7.19553e-09
7.21419e-09
7.20935e-09
7.18114e-09
7.12968e-09
7.05516e-09
6.95776e-09
6.83775e-09
6.69542e-09
6.53115e-09
6.34541e-09
6.13876e-09
5.9119e-09
5.66567e-09
5.40109e-09
5.11946e-09
4.82231e-09
4.5114e-09
4.18879e-09
3.85689e-09
3.51844e-09
3.17652e-09
2.83458e-09
2.49637e-09
2.16589e-09
1.84735e-09
1.54501e-09
1.26308e-09
1.00545e-09
7.75526e-10
5.76003e-10
4.08547e-10
2.73606e-10
1.70232e-10
9.6026e-11
4.72026e-11
1.88324e-11
5.25671e-12
6.84982e-13
3.99836e-15
5.55434e-15
9.49156e-13
7.24283e-12
2.57306e-11
6.38138e-11
1.28243e-10
2.24325e-10
3.5549e-10
5.23156e-10
7.26842e-10
9.64434e-10
1.23254e-09
1.52685e-09
1.8425e-09
2.17439e-09
2.51739e-09
2.86655e-09
3.21723e-09
3.5652e-09
3.90665e-09
4.23825e-09
4.55712e-09
4.86084e-09
5.14738e-09
5.41514e-09
5.6628e-09
5.88937e-09
6.09415e-09
6.27663e-09
6.43642e-09
6.57353e-09
6.68791e-09
6.77949e-09
6.84862e-09
6.89544e-09
6.92014e-09
6.92298e-09
6.90422e-09
6.86413e-09
6.80299e-09
6.72108e-09
6.61869e-09
6.49612e-09
6.35369e-09
6.19177e-09
6.01078e-09
5.81123e-09
5.59367e-09
5.35888e-09
5.10776e-09
4.84135e-09
4.56093e-09
4.26803e-09
3.96445e-09
3.65232e-09
3.33406e-09
3.01246e-09
2.69063e-09
2.372e-09
2.06027e-09
1.75936e-09
1.47328e-09
1.20602e-09
9.61325e-10
7.42508e-10
5.52226e-10
3.92197e-10
2.62982e-10
1.63809e-10
9.24946e-11
4.55043e-11
1.81663e-11
5.07289e-12
6.61173e-13
3.85963e-15
5.79697e-15
9.90579e-13
7.55776e-12
2.68421e-11
6.65408e-11
1.33634e-10
2.33539e-10
3.69643e-10
5.43165e-10
7.5328e-10
9.97427e-10
1.2717e-09
1.57125e-09
1.89074e-09
2.22461e-09
2.56736e-09
2.91379e-09
3.25906e-09
3.59887e-09
3.92942e-09
4.24746e-09
4.55028e-09
4.83566e-09
5.10187e-09
5.34753e-09
5.57168e-09
5.7737e-09
5.9532e-09
6.10995e-09
6.24418e-09
6.35602e-09
6.44555e-09
6.51355e-09
6.56029e-09
6.5862e-09
6.59175e-09
6.57741e-09
6.54365e-09
6.49089e-09
6.41956e-09
6.33004e-09
6.22269e-09
6.09787e-09
5.95592e-09
5.79719e-09
5.62206e-09
5.43095e-09
5.22438e-09
5.00292e-09
4.76728e-09
4.51831e-09
4.25708e-09
3.98483e-09
3.70309e-09
3.41365e-09
3.11862e-09
2.82041e-09
2.52178e-09
2.22581e-09
1.93583e-09
1.65544e-09
1.38836e-09
1.13829e-09
9.0881e-10
7.03105e-10
5.2378e-10
3.72591e-10
2.50217e-10
1.56077e-10
8.82386e-11
4.34559e-11
1.73626e-11
4.85117e-12
6.32465e-13
3.6924e-15
6.06337e-15
1.03607e-12
7.90411e-12
2.80664e-11
6.95485e-11
1.39584e-10
2.43704e-10
3.85232e-10
5.65136e-10
7.82174e-10
1.03325e-09
1.31385e-09
1.61854e-09
1.94139e-09
2.27638e-09
2.61762e-09
2.95962e-09
3.29743e-09
3.62666e-09
3.94359e-09
4.24511e-09
4.52872e-09
4.79253e-09
5.03501e-09
5.25522e-09
5.45257e-09
5.62683e-09
5.7779e-09
5.90622e-09
6.01213e-09
6.0959e-09
6.15884e-09
6.20126e-09
6.2239e-09
6.2275e-09
6.21276e-09
6.18039e-09
6.13102e-09
6.06524e-09
5.98361e-09
5.88659e-09
5.77463e-09
5.64812e-09
5.50741e-09
5.35283e-09
5.18472e-09
5.00343e-09
4.80933e-09
4.60287e-09
4.38456e-09
4.15507e-09
3.91519e-09
3.66591e-09
3.40845e-09
3.14426e-09
2.87508e-09
2.60296e-09
2.33027e-09
2.05966e-09
1.79412e-09
1.53684e-09
1.29119e-09
1.06062e-09
8.48446e-10
6.57707e-10
4.90933e-10
3.49905e-10