/*--------------------------------*- C++ -*----------------------------------*\
  =========                 |
  \\      /  F ield         | OpenFOAM: The Open Source CFD Toolbox
   \\    /   O peration     | Website:  https://openfoam.org
    \\  /    A nd           | Version:  12
     \\/     M anipulation  |
\*---------------------------------------------------------------------------*/
FoamFile
{
    format      ascii;
    class       volScalarField;
    location    "6";
    object      epsilon;
}
// * * * * * * * * * * * * * * * * * * * * * * * * * * * * * * * * * * * * * //

dimensions      [0 2 -3 0 0 0 0];

internalField   nonuniform List<scalar> 
18225
(
9.07268e-07
6.14022e-06
1.36885e-05
2.27072e-05
3.28058e-05
4.37353e-05
5.5308e-05
6.73678e-05
7.97782e-05
9.2417e-05
0.000105175
0.000117957
0.000130682
0.000143287
0.000155728
0.000167984
0.000180056
0.000191976
0.000203799
0.000215613
0.00022754
0.000239732
0.000252378
0.000265705
0.000279979
0.000295509
0.000312647
0.000331794
0.000353403
0.000377979
0.000406088
0.000438355
0.000475469
0.00051819
0.000567342
0.000623823
0.000688603
0.000762718
0.000847277
0.000943453
0.00105248
0.00117566
0.00131432
0.00146987
0.00164374
0.00183739
0.00205231
0.00229002
0.00255205
0.00283992
0.00315518
0.00349934
0.0038739
0.00428033
0.00472006
0.00519446
0.00570482
0.00625237
0.00683823
0.00746342
0.00812887
0.00883539
0.00958365
0.0103742
0.0112076
0.0120842
0.0130041
0.0139676
0.0149746
0.0160252
0.0171193
0.0182565
0.0194366
0.0206591
0.0219236
0.0232294
0.0245757
0.0259615
0.0273858
0.0288472
0.030344
0.0318743
0.0334358
0.0350257
0.0366407
0.0382767
0.0399293
0.0415929
0.0432609
0.044926
0.0465792
0.0482104
0.0498077
0.0513579
0.0528456
0.054254
0.0555643
0.0567552
0.0578028
0.0586816
0.0593636
0.0597982
0.0599821
0.0599654
0.0596362
0.0589753
0.0579725
0.056621
0.0549193
0.0528737
0.0505004
0.0478262
0.0448886
0.0417352
0.0384219
0.0350111
0.0315678
0.0281571
0.0248404
0.0216721
0.0186974
0.0159503
0.013453
0.0112164
0.00924031
0.00751596
0.00602729
0.00475351
0.00367052
0.00275359
0.00197909
0.00132681
0.000783185
0.000347511
5.12534e-05
1.71443e-06
3.34462e-06
6.71169e-06
1.08921e-05
1.56183e-05
2.07515e-05
2.61954e-05
3.18734e-05
3.77195e-05
4.36754e-05
4.96893e-05
5.57161e-05
6.17179e-05
6.76648e-05
7.35365e-05
7.93229e-05
8.50253e-05
9.06576e-05
9.62472e-05
0.000101836
0.000107479
0.000113252
0.000119241
0.000125556
0.00013232
0.000139682
0.000147806
0.000156884
0.000167128
0.000178779
0.000192104
0.000207397
0.000224988
0.000245232
0.000268523
0.000295284
0.000325974
0.000361086
0.000401143
0.000446701
0.000498348
0.000556696
0.000622384
0.000696075
0.000778449
0.000870205
0.000972056
0.00108473
0.00120894
0.00134545
0.00149498
0.00165826
0.00183603
0.00202899
0.00223785
0.00246326
0.00270589
0.00296633
0.00324514
0.00354286
0.00385995
0.00419683
0.00455389
0.00493144
0.00532974
0.00574903
0.00618946
0.00665115
0.00713419
0.00763859
0.00816435
0.0087114
0.00927962
0.00986884
0.0104788
0.0111093
0.0117598
0.01243
0.0131192
0.0138267
0.0145517
0.0152932
0.0160499
0.0168202
0.0176025
0.0183946
0.0191941
0.0199981
0.0208031
0.0216053
0.0224001
0.0231822
0.0239457
0.0246837
0.0253889
0.0260528
0.026666
0.0272185
0.0276987
0.0280945
0.0283929
0.0285709
0.0286311
0.0285886
0.028398
0.0280502
0.0275414
0.0268693
0.0260345
0.025041
0.0238973
0.0226165
0.0212166
0.0197198
0.0181522
0.0165421
0.0149194
0.0133137
0.011753
0.0102619
0.0088613
0.00756674
0.0063886
0.00533199
0.00439716
0.00358021
0.00287396
0.00226893
0.00175405
0.00131796
0.000949899
0.000640926
0.000386038
0.000189775
9.68072e-05
3.64248e-06
3.25481e-06
5.16143e-06
7.8641e-06
1.10218e-05
1.44933e-05
1.81955e-05
2.20681e-05
2.60623e-05
3.01364e-05
3.42539e-05
3.83835e-05
4.24991e-05
4.65802e-05
5.06132e-05
5.45911e-05
5.85152e-05
6.23952e-05
6.625e-05
7.01085e-05
7.40097e-05
7.80039e-05
8.21527e-05
8.65301e-05
9.12231e-05
9.63324e-05
0.000101974
0.000108278
0.000115393
0.000123485
0.000132739
0.000143361
0.000155576
0.000169635
0.000185808
0.000204391
0.000225704
0.000250089
0.000277913
0.000309564
0.000345454
0.000386014
0.000431695
0.000482964
0.000540307
0.000604221
0.000675218
0.000753821
0.00084056
0.000935975
0.00104061
0.00115501
0.00127972
0.0014153
0.00156227
0.00172116
0.0018925
0.00207677
0.00227445
0.00248599
0.00271183
0.00295235
0.00320792
0.00347888
0.00376553
0.00406813
0.00438692
0.0047221
0.00507383
0.00544221
0.00582733
0.00622921
0.00664781
0.00708306
0.00753478
0.00800274
0.0084866
0.00898594
0.00950018
0.0100286
0.0105705
0.0111246
0.0116899
0.0122648
0.0128477
0.0134364
0.0140289
0.0146223
0.0152136
0.0157995
0.016376
0.0169388
0.0174831
0.0180034
0.0184941
0.0189488
0.0193607
0.0197223
0.0200258
0.0202632
0.0204237
0.0204952
0.0204863
0.0203943
0.0201978
0.0198917
0.0194746
0.0189468
0.0183102
0.0175691
0.0167306
0.0158047
0.0148041
0.0137441
0.0126421
0.0115169
0.0103879
0.00927424
0.0081938
0.00716255
0.00619377
0.00529761
0.00448082
0.00374684
0.00309596
0.00252576
0.00203166
0.00160752
0.00124616
0.000940257
0.000683076
0.000469689
0.000299517
0.000184855
0.000205289
5.95929e-06
3.89406e-06
4.86205e-06
6.74453e-06
9.09289e-06
1.17372e-05
1.45885e-05
1.75885e-05
2.06935e-05
2.38679e-05
2.70816e-05
3.03094e-05
3.35304e-05
3.67287e-05
3.98934e-05
4.30196e-05
4.61082e-05
4.91673e-05
5.22119e-05
5.52649e-05
5.83574e-05
6.1529e-05
6.48287e-05
6.83152e-05
7.20575e-05
7.61355e-05
8.06412e-05
8.56789e-05
9.13667e-05
9.78369e-05
0.000105238
0.000113733
0.000123504
0.000134752
0.000147694
0.000162569
0.000179634
0.000199169
0.00022147
0.000246855
0.000275662
0.000308245
0.000344978
0.000386253
0.000432477
0.000484072
0.000541477
0.000605144
0.000675539
0.000753139
0.000838435
0.000931926
0.00103412
0.00114554
0.0012667
0.00139812
0.00154032
0.00169384
0.00185916
0.00203681
0.00222726
0.00243098
0.00264844
0.00288006
0.00312626
0.00338739
0.00366381
0.00395583
0.00426369
0.0045876
0.00492768
0.005284
0.00565653
0.00604517
0.00644969
0.00686975
0.00730487
0.00775444
0.00821764
0.00869353
0.00918093
0.00967847
0.0101846
0.0106974
0.0112148
0.0117346
0.012254
0.0127702
0.01328
0.0137798
0.0142659
0.0147341
0.0151801
0.0155992
0.0159864
0.0163364
0.0166438
0.0169029
0.0171074
0.0172511
0.0173226
0.0173282
0.0172608
0.0171207
0.0168956
0.0165825
0.0161814
0.0156937
0.0151221
0.0144709
0.0137466
0.0129576
0.0121145
0.0112296
0.0103167
0.00939036
0.00846559
0.00755701
0.0066782
0.00584117
0.00505581
0.00432962
0.00366755
0.00307206
0.00254325
0.00207921
0.00167643
0.00133025
0.00103532
0.000786341
0.000578793
0.000410366
0.000284222
0.0002205
0.000334703
8.59342e-06
4.88754e-06
5.0989e-06
6.39165e-06
8.19927e-06
1.03151e-05
1.26369e-05
1.51028e-05
1.76691e-05
2.03022e-05
2.29751e-05
2.56654e-05
2.83551e-05
3.10308e-05
3.36833e-05
3.63087e-05
3.8908e-05
4.14882e-05
4.40622e-05
4.66496e-05
4.92769e-05
5.19779e-05
5.47942e-05
5.77759e-05
6.09818e-05
6.44804e-05
6.83503e-05
7.2681e-05
7.75739e-05
8.3143e-05
8.95159e-05
9.68347e-05
0.000105257
0.000114956
0.000126124
0.000138967
0.000153715
0.000170611
0.00018992
0.000211927
0.000236935
0.000265265
0.000297259
0.000333279
0.000373704
0.000418934
0.000469386
0.0005255
0.000587734
0.000656564
0.000732489
0.000816026
0.00090771
0.0010081
0.00111775
0.00123727
0.00136724
0.00150827
0.00166097
0.00182596
0.00200384
0.00219522
0.00240068
0.00262079
0.00285609
0.00310707
0.0033742
0.00365787
0.0039584
0.00427602
0.00461083
0.00496283
0.0053319
0.00571774
0.00611991
0.00653776
0.00697047
0.00741698
0.00787603
0.00834614
0.0088256
0.00931246
0.00980459
0.0102996
0.0107949
0.0112877
0.011775
0.0122538
0.0127206
0.013172
0.0136043
0.0140138
0.0143968
0.0147493
0.0150674
0.0153468
0.0155835
0.0157732
0.0159107
0.0159861
0.0160063
0.0159653
0.0158585
0.0156869
0.0154419
0.0151214
0.0147255
0.0142555
0.0137136
0.0131034
0.0124305
0.0117022
0.0109277
0.0101179
0.00928509
0.00844252
0.00760364
0.0067816
0.00598854
0.00523505
0.00452972
0.00387889
0.00328655
0.00275449
0.00228243
0.00186844
0.00150929
0.0012009
0.000938813
0.000718834
0.000537916
0.000395782
0.000298903
0.000275177
0.000480162
1.14954e-05
6.10531e-06
5.64162e-06
6.45322e-06
7.84649e-06
9.57477e-06
1.152e-05
1.36136e-05
1.58096e-05
1.80742e-05
2.03814e-05
2.27103e-05
2.50446e-05
2.73721e-05
2.96848e-05
3.19795e-05
3.42572e-05
3.65243e-05
3.87925e-05
4.10794e-05
4.34085e-05
4.58101e-05
4.83213e-05
5.09869e-05
5.38596e-05
5.70006e-05
6.04805e-05
6.43802e-05
6.8791e-05
7.38162e-05
7.95718e-05
8.61873e-05
9.38067e-05
0.00010259
0.000112713
0.000124369
0.00013777
0.000153146
0.000170747
0.000190844
0.000213728
0.000239711
0.000269127
0.000302336
0.000339716
0.000381675
0.000428643
0.000481077
0.000539464
0.000604319
0.000676184
0.000755636
0.000843279
0.00093975
0.00104571
0.00116186
0.00128891
0.0014276
0.00157869
0.00174293
0.0019211
0.00211395
0.00232222
0.00254663
0.00278784
0.00304646
0.00332301
0.00361793
0.00393156
0.00426401
0.0046152
0.00498478
0.00537247
0.00577761
0.00619931
0.00663641
0.00708749
0.00755087
0.00802463
0.0085066
0.00899441
0.00948546
0.00997702
0.0104662
0.0109501
0.0114255
0.0118895
0.0123389
0.0127706
0.0131814
0.0135679
0.0139275
0.0142576
0.0145555
0.0148184
0.0150435
0.0152281
0.01537
0.0154606
0.0154966
0.015491
0.0154274
0.0153061
0.0151271
0.0148833
0.0145719
0.014192
0.0137431
0.0132257
0.0126427
0.0119983
0.0112986
0.0105521
0.00976912
0.00896166
0.00814298
0.00732686
0.00652682
0.00575541
0.00502354
0.00433993
0.00371087
0.00314014
0.00262913
0.00217724
0.00178227
0.00144076
0.00114863
0.000901682
0.000696259
0.000530275
0.000405063
0.000330184
0.000341083
0.000637871
1.46342e-05
7.48883e-06
6.38939e-06
6.78062e-06
7.83029e-06
9.25047e-06
1.09051e-05
1.27177e-05
1.46388e-05
1.66331e-05
1.86744e-05
2.07425e-05
2.28216e-05
2.49005e-05
2.6972e-05
2.90331e-05
3.1085e-05
3.31338e-05
3.51905e-05
3.72712e-05
3.93979e-05
4.15985e-05
4.39074e-05
4.63658e-05
4.90228e-05
5.19352e-05
5.51688e-05
5.87991e-05
6.29117e-05
6.76038e-05
7.2985e-05
7.91781e-05
8.63205e-05
9.4565e-05
0.000104081
0.000115057
0.000127699
0.000142233
0.000158907
0.000177991
0.000199779
0.000224589
0.000252767
0.000284685
0.000320744
0.000361378
0.000407053
0.000458272
0.000515574
0.000579537
0.000650784
0.000729977
0.000817824
0.000915077
0.00102253
0.00114101
0.0012714
0.0014146
0.00157154
0.00174315
0.00193032
0.00213399
0.00235506
0.00259435
0.00285263
0.00313053
0.00342857
0.00374712
0.00408639
0.00444627
0.00482643
0.00522635
0.00564498
0.00608107
0.00653301
0.0069989
0.00747651
0.00796332
0.0084566
0.00895337
0.00945055
0.00994496
0.0104334
0.0109127
0.0113798
0.0118317
0.0122658
0.0126794
0.0130704
0.0134366
0.0137766
0.0140883
0.0143702
0.0146209
0.0148392
0.0150233
0.0151719
0.0152843
0.0153515
0.0153751
0.0153646
0.0153039
0.0151927
0.01503
0.0148087
0.0145242
0.014174
0.0137558
0.0132686
0.0127127
0.0120908
0.0114077
0.010671
0.00989079
0.00907949
0.00825122
0.00742111
0.00660431
0.00581509
0.00506593
0.00436683
0.00372496
0.00314454
0.00262701
0.00217148
0.00177528
0.00143451
0.00114474
0.000901633
0.000701659
0.000543336
0.000429385
0.00037205
0.000414464
0.000804992
1.79908e-05
9.00796e-06
7.29015e-06
7.29837e-06
8.04929e-06
9.21134e-06
1.063e-05
1.22196e-05
1.39262e-05
1.57126e-05
1.75517e-05
1.94229e-05
2.1311e-05
2.3205e-05
2.50981e-05
2.69876e-05
2.88749e-05
3.07659e-05
3.26712e-05
3.46062e-05
3.65918e-05
3.86545e-05
4.08271e-05
4.3149e-05
4.56667e-05
4.84347e-05
5.15161e-05
5.49835e-05
5.89198e-05
6.3419e-05
6.85881e-05
7.45474e-05
8.1432e-05
8.93935e-05
9.8601e-05
0.000109243
0.000121527
0.000135685
0.000151972
0.000170666
0.000192076
0.000216539
0.000244422
0.000276127
0.000312094
0.000352801
0.000398768
0.000450561
0.000508796
0.000574141
0.000647317
0.000729105
0.000820333
0.000921896
0.00103474
0.00115988
0.00129835
0.00145123
0.00161965
0.00180473
0.00200762
0.00222936
0.00247096
0.00273335
0.00301732
0.00332347
0.00365219
0.00400362
0.00437751
0.00477342
0.00519049
0.00562747
0.00608261
0.0065538
0.00703854
0.00753394
0.00803686
0.00854388
0.00905144
0.0095559
0.0100537
0.0105412
0.0110153
0.0114729
0.0119114
0.0123285
0.0127223
0.0130916
0.0134352
0.0137525
0.0140434
0.0143075
0.0145448
0.0147553
0.014939
0.015096
0.0152256
0.0153267
0.0153954
0.0154281
0.0154329
0.0153981
0.015319
0.0151939
0.015015
0.0147756
0.0144707
0.0140957
0.0136472
0.0131234
0.0125249
0.0118552
0.011121
0.0103322
0.00950157
0.00864465
0.0077784
0.00692032
0.00608725
0.00529417
0.00455334
0.00387365
0.00326043
0.00271567
0.00223848
0.00182578
0.0014731
0.00117539
0.00092781
0.000726741
0.000571
0.000464246
0.000421292
0.000493188
0.000979336
2.15539e-05
1.06461e-05
8.3144e-06
7.96344e-06
8.44661e-06
9.38494e-06
1.06052e-05
1.2012e-05
1.35461e-05
1.51677e-05
1.68485e-05
1.85673e-05
2.03087e-05
2.20618e-05
2.382e-05
2.55808e-05
2.73458e-05
2.91208e-05
3.09163e-05
3.27474e-05
3.46345e-05
3.66034e-05
3.86861e-05
4.09209e-05
4.33533e-05
4.60369e-05
4.90336e-05
5.24149e-05
5.62629e-05
6.06714e-05
6.57471e-05
7.1611e-05
7.84e-05
8.6268e-05
9.53884e-05
0.000105955
0.000118185
0.00013232
0.000148629
0.000167411
0.000188994
0.000213745
0.000242067
0.000274403
0.000311244
0.000353128
0.000400645
0.000454442
0.000515232
0.000583789
0.000660958
0.000747658
0.000844884
0.000953697
0.00107523
0.00121067
0.00136127
0.00152832
0.0017131
0.00191693
0.00214108
0.00238675
0.00265502
0.0029468
0.0032628
0.00360345
0.00396886
0.00435873
0.00477234
0.00520852
0.00566563
0.00614147
0.00663333
0.00713803
0.00765201
0.00817136
0.00869196
0.0092096
0.00972008
0.0102194
0.0107037
0.0111698
0.0116147
0.0120362
0.0124326
0.012803
0.0131468
0.0134642
0.0137558
0.0140226
0.014266
0.0144872
0.0146877
0.0148688
0.0150313
0.0151762
0.0153031
0.015411
0.0154976
0.0155617
0.0155982
0.0156062
0.0155759
0.0155041
0.0153819
0.0152003
0.014952
0.01463
0.0142282
0.0137426
0.0131719
0.0125179
0.011786
0.0109857
0.0101303
0.00923634
0.00832277
0.00740971
0.00651701
0.0056628
0.0048623
0.00412689
0.00346375
0.00287597
0.00236305
0.00192174
0.001547
0.00123306
0.00097444
0.000767067
0.000609783
0.000507032
0.000476008
0.000575884
0.00115918
2.53175e-05
1.23941e-05
9.44456e-06
8.7498e-06
8.98754e-06
9.72741e-06
1.07769e-05
1.20304e-05
1.34232e-05
1.49123e-05
1.64672e-05
1.80662e-05
1.96935e-05
2.13381e-05
2.29935e-05
2.46572e-05
2.6331e-05
2.80209e-05
2.97372e-05
3.14953e-05
3.33154e-05
3.52232e-05
3.72505e-05
3.94355e-05
4.18236e-05
4.44684e-05
4.7432e-05
5.07864e-05
5.46147e-05
5.90121e-05
6.40878e-05
6.9966e-05
7.67878e-05
8.47137e-05
9.39247e-05
0.000104625
0.000117046
0.000131445
0.000148112
0.000167371
0.000189583
0.000215151
0.000244524
0.000278199
0.000316728
0.000360726
0.000410871
0.00046791
0.000532668
0.00060605
0.000689047
0.000782735
0.00088828
0.00100694
0.00114003
0.00128897
0.0014552
0.00164022
0.0018455
0.0020725
0.00232262
0.0025971
0.002897
0.00322312
0.00357596
0.00395559
0.00436161
0.00479312
0.00524859
0.00572593
0.00622245
0.00673481
0.00725912
0.00779105
0.00832592
0.00885885
0.00938494
0.0098994
0.0103978
0.0108762
0.0113311
0.01176
0.0121611
0.0125333
0.0128765
0.0131913
0.0134789
0.0137414
0.0139809
0.0142
0.0144016
0.0145882
0.0147624
0.014926
0.0150809
0.0152277
0.0153664
0.015496
0.0156143
0.0157187
0.0158049
0.0158667
0.0158929
0.0158839
0.0158262
0.0157099
0.0155255
0.0152633
0.014915
0.0144743
0.0139376
0.0133049
0.0125802
0.011772
0.0108937
0.00996232
0.00899865
0.00802525
0.00706508
0.00613979
0.00526808
0.0044645
0.00373877
0.00309574
0.00253581
0.00205589
0.00165058
0.00131339
0.00103806
0.000819921
0.000657619
0.000556161
0.000534996
0.000661624
0.00134319
2.92796e-05
1.42469e-05
1.067e-05
9.64097e-06
9.64972e-06
1.02108e-05
1.11111e-05
1.22342e-05
1.35096e-05
1.48909e-05
1.63457e-05
1.78508e-05
1.93895e-05
2.09507e-05
2.2528e-05
2.41189e-05
2.57255e-05
2.73539e-05
2.90149e-05
3.07239e-05
3.25015e-05
3.43738e-05
3.6373e-05
3.85378e-05
4.09144e-05
4.35572e-05
4.65297e-05
4.99056e-05
5.37706e-05
5.8223e-05
6.33761e-05
6.93598e-05
7.63225e-05
8.44337e-05
9.38863e-05
0.000104899
0.00011772
0.00013263
0.000149946
0.000170023
0.000193262
0.000220113
0.00025108
0.000286726
0.000327678
0.000374639
0.000428387
0.000489787
0.000559796
0.000639466
0.000729952
0.000832509
0.000948499
0.00107938
0.00122669
0.00139205
0.00157712
0.00178357
0.00201305
0.00226713
0.00254724
0.00285459
0.00319011
0.00355433
0.00394734
0.00436865
0.00481714
0.00529101
0.00578771
0.00630399
0.00683587
0.00737876
0.0079275
0.0084766
0.00902039
0.00955326
0.0100698
0.0105653
0.0110353
0.0114767
0.011887
0.012265
0.0126102
0.0129235
0.0132065
0.0134617
0.0136921
0.0139014
0.0140933
0.0142715
0.0144401
0.0146024
0.0147615
0.0149197
0.0150785
0.0152387
0.0154
0.015561
0.015719
0.0158705
0.01601
0.0161307
0.0162246
0.0162765
0.016286
0.0162379
0.0161209
0.0159232
0.0156338
0.0152444
0.0147492
0.0141461
0.0134372
0.0126296
0.0117357
0.010773
0.00976307
0.00873061
0.00770154
0.00670108
0.00575179
0.00487194
0.00407451
0.00336675
0.00275062
0.00222367
0.00178039
0.00141373
0.00111663
0.000883705
0.000713242
0.000610637
0.00059748
0.000749761
0.00153035
3.34412e-05
1.62026e-05
1.19845e-05
1.06264e-05
1.04182e-05
1.08164e-05
1.15849e-05
1.25963e-05
1.37739e-05
1.50674e-05
1.64423e-05
1.78738e-05
1.93446e-05
2.08432e-05
2.23627e-05
2.39009e-05
2.54599e-05
2.70462e-05
2.86709e-05
3.03503e-05
3.21054e-05
3.39632e-05
3.59567e-05
3.81258e-05
4.05181e-05
4.31898e-05
4.62066e-05
4.96454e-05
5.35954e-05
5.81598e-05
6.34581e-05
6.96276e-05
7.68266e-05
8.52364e-05
9.50647e-05
0.000106549
0.000119959
0.000135603
0.000153831
0.000175037
0.000199669
0.000228232
0.000261294
0.000299494
0.00034355
0.000394264
0.000452532
0.00051935
0.000595824
0.000683172
0.000782729
0.00089595
0.0010244
0.00116976
0.00133379
0.00151832
0.00172519
0.00195625
0.00221326
0.00249782
0.00281134
0.00315485
0.00352899
0.00393385
0.00436888
0.0048328
0.00532353
0.00583812
0.00637276
0.00692283
0.00748299
0.0080473
0.00860941
0.00916284
0.00970124
0.0102186
0.0107097
0.0111701
0.0115964
0.0119866
0.0123398
0.0126565
0.0129383
0.013188
0.0134088
0.0136054
0.0137821
0.013944
0.0140961
0.014244
0.0143904
0.0145391
0.014693
0.0148547
0.0150259
0.0152066
0.0153963
0.0155929
0.0157934
0.0159934
0.0161864
0.0163651
0.0165206
0.0166428
0.0167147
0.016732
0.0166833
0.0165527
0.0163267
0.015995
0.0155498
0.0149864
0.0143046
0.0135096
0.0126121
0.0116289
0.0105819
0.00949702
0.00840282
0.00732794
0.00629897
0.00533839
0.00446302
0.00368332
0.00300345
0.00242219
0.00193435
0.00153253
0.00120895
0.000957471
0.000775888
0.000669839
0.000662961
0.000839864
0.00171995
3.78055e-05
1.8261e-05
1.33845e-05
1.16994e-05
1.12834e-05
1.15317e-05
1.21824e-05
1.30979e-05
1.41942e-05
1.54169e-05
1.6729e-05
1.81042e-05
1.95242e-05
2.09768e-05
2.24551e-05
2.39567e-05
2.54841e-05
2.70443e-05
2.86491e-05
3.03151e-05
3.20647e-05
3.39258e-05
3.59329e-05
3.81276e-05
4.05596e-05
4.32876e-05
4.63806e-05
4.99194e-05
5.39981e-05
5.87263e-05
6.42311e-05
7.06597e-05
7.81821e-05
8.69945e-05
9.73226e-05
0.000109426
0.000123601
0.000140188
0.000159574
0.000182202
0.000208572
0.000239254
0.000274891
0.000316208
0.000364024
0.000419255
0.00048293
0.000556192
0.000640312
0.00073669
0.000846859
0.000972485
0.00111536
0.00127737
0.0014605
0.00166678
0.00189823
0.00215679
0.00244428
0.00276227
0.00311195
0.00349409
0.00390882
0.00435557
0.00483295
0.00533861
0.00586926
0.0064206
0.00698737
0.0075635
0.00814224
0.00871641
0.0092787
0.00982197
0.0103396
0.0108259
0.011276
0.0116869
0.0120565
0.0123846
0.0126723
0.0129222
0.0131378
0.0133239
0.0134854
0.0136284
0.01376
0.0138851
0.0140076
0.014132
0.0142638
0.0144068
0.0145638
0.0147363
0.0149252
0.0151302
0.0153499
0.0155819
0.0158226
0.0160671
0.0163098
0.0165422
0.0167546
0.016937
0.0170784
0.0171557
0.0171705
0.0171084
0.0169496
0.0166819
0.0162955
0.015783
0.0151415
0.0143735
0.0134875
0.0124985
0.0114275
0.0103013
0.00914999
0.00800548
0.00689836
0.00585561
0.00489855
0.00404152
0.00329169
0.00264974
0.00211131
0.00166898
0.00131442
0.00104072
0.000845129
0.000733405
0.00073114
0.00093167
0.00191156
4.23782e-05
2.04237e-05
1.48688e-05
1.28559e-05
1.22389e-05
1.23478e-05
1.2893e-05
1.3726e-05
1.4755e-05
1.59216e-05
1.71858e-05
1.85196e-05
1.99035e-05
2.13248e-05
2.27761e-05
2.42552e-05
2.5765e-05
2.73129e-05
2.89114e-05
3.05784e-05
3.23372e-05
3.42174e-05
3.62553e-05
3.84947e-05
4.0988e-05
4.37971e-05
4.69953e-05
5.06682e-05
5.49161e-05
5.98563e-05
6.56252e-05
7.23816e-05
8.03098e-05
8.96234e-05
0.000100569
0.000113432
0.000128541
0.000146271
0.000167056
0.000191389
0.000219835
0.000253033
0.000291714
0.0003367
0.000388922
0.000449426
0.000519385
0.000600108
0.000693044
0.00079979
0.000922092
0.00106183
0.00122103
0.0014018
0.00160633
0.0018368
0.00209538
0.00238406
0.00270459
0.00305838
0.00344632
0.00386865
0.00432483
0.00481338
0.00533181
0.0058765
0.00644272
0.00702464
0.00761548
0.00820772
0.00879333
0.00936415
0.00991225
0.0104304
0.0109122
0.0113527
0.0117487
0.0120984
0.0124021
0.0126614
0.0128797
0.0130618
0.013213
0.0133399
0.0134509
0.0135509
0.013644
0.0137374
0.0138374
0.0139489
0.0140756
0.0142205
0.0143856
0.014572
0.01478
0.0150086
0.0152561
0.0155196
0.0157953
0.016078
0.0163614
0.0166383
0.0169009
0.017138
0.017338
0.017485
0.0175551
0.0175592
0.0174703
0.0172723
0.0169533
0.0165032
0.015916
0.0151911
0.0143337
0.013356
0.0122775
0.0111243
0.00992759
0.00872167
0.00754101
0.00641732
0.00537689
0.00443873
0.00361381
0.00290547
0.0023108
0.00182281
0.00143283
0.00113328
0.00092079
0.000801169
0.000801873
0.00102507
0.00210502
4.71666e-05
2.26933e-05
1.64376e-05
1.40939e-05
1.32807e-05
1.32586e-05
1.3709e-05
1.44713e-05
1.54456e-05
1.65689e-05
1.77983e-05
1.91037e-05
2.04646e-05
2.18672e-05
2.33042e-05
2.47733e-05
2.62777e-05
2.78254e-05
2.94301e-05
3.11106e-05
3.2892e-05
3.48056e-05
3.689e-05
3.91917e-05
4.17663e-05
4.468e-05
4.80107e-05
5.18501e-05
5.63058e-05
6.15041e-05
6.75925e-05
7.47432e-05
8.31569e-05
9.30675e-05
0.000104746
0.000118507
0.000134714
0.000153786
0.000176205
0.000202526
0.000233381
0.000269493
0.000311686
0.000360893
0.00041817
0.000484705
0.000561831
0.000651034
0.000753957
0.000872409
0.00100836
0.00116391
0.0013413
0.00154287
0.00177097
0.00202793
0.00231596
0.00263702
0.0029927
0.00338409
0.00381157
0.00427468
0.00477196
0.0053008
0.00585736
0.00643655
0.00703204
0.00763641
0.00824138
0.0088381
0.00941756
0.00997101
0.0104904
0.010969
0.0114013
0.011784
0.0121154
0.0123962
0.0126286
0.0128169
0.0129662
0.0130838
0.0131791
0.0132574
0.0133221
0.0133825
0.0134467
0.0135202
0.0136077
0.0137135
0.0138406
0.0139911
0.0141664
0.0143669
0.0145921
0.0148409
0.0151112
0.0153998
0.0157031
0.016016
0.0163325
0.0166457
0.0169468
0.0172266
0.0174757
0.0176825
0.0178251
0.0178854
0.0178678
0.0177441
0.0175003
0.0171237
0.0166047
0.015939
0.0151283
0.014181
0.0131135
0.0119503
0.0107227
0.00946646
0.00821963
0.00701858
0.00589502
0.00487331
0.00396909
0.0031892
0.00253293
0.0019942
0.00156434
0.00123523
0.00100289
0.000873116
0.000875142
0.00112006
0.00230043
5.21797e-05
2.50735e-05
1.8092e-05
1.54128e-05
1.44066e-05
1.42603e-05
1.46257e-05
1.53274e-05
1.62581e-05
1.73497e-05
1.85559e-05
1.98448e-05
2.11942e-05
2.25898e-05
2.40237e-05
2.54939e-05
2.70038e-05
2.85625e-05
3.01845e-05
3.18902e-05
3.37064e-05
3.56667e-05
3.78123e-05
4.0193e-05
4.28683e-05
4.5909e-05
4.93986e-05
5.3436e-05
5.81373e-05
6.36389e-05
7.01011e-05
7.77115e-05
8.66898e-05
9.72924e-05
0.000109818
0.000124615
0.000142085
0.000162697
0.000186988
0.000215579
0.000249181
0.000288608
0.000334788
0.000388777
0.000451766
0.000525101
0.000610288
0.000709002
0.000823095
0.000954595
0.00110569
0.00127873
0.00147615
0.00170047
0.0019542
0.00223974
0.00255926
0.00291458
0.00330699
0.00373708
0.00420452
0.00470794
0.00524471
0.00581086
0.00640103
0.00700847
0.0076252
0.00824225
0.00884997
0.00943851
0.00999827
0.0105205
0.0109976
0.0114238
0.0117955
0.0121111
0.0123713
0.0125792
0.0127393
0.0128586
0.0129451
0.0130087
0.0130517
0.0130833
0.0131127
0.0131462
0.0131914
0.0132527
0.0133342
0.0134391
0.0135697
0.0137271
0.0139121
0.0141244
0.0143632
0.0146268
0.0149132
0.0152193
0.0155417
0.0158758
0.0162163
0.0165568
0.0168898
0.0172064
0.0174964
0.0177484
0.0179488
0.0180805
0.0181289
0.0180846
0.0179224
0.0176289
0.0171907
0.0166001
0.015854
0.0149565
0.0139199
0.0127657
0.0115239
0.0102311
0.00892793
0.00765534
0.00645067
0.00534431
0.00435742
0.00350129
0.00277821
0.00218366
0.00170938
0.00134686
0.00109159
0.000949361
0.000951035
0.00121677
0.00249807
5.74278e-05
2.75689e-05
1.98343e-05
1.68132e-05
1.56156e-05
1.53509e-05
1.56396e-05
1.62897e-05
1.71871e-05
1.82575e-05
1.94513e-05
2.07343e-05
2.20828e-05
2.34818e-05
2.49229e-05
2.64043e-05
2.79299e-05
2.95096e-05
3.11593e-05
3.2901e-05
3.47637e-05
3.67834e-05
3.90044e-05
4.14803e-05
4.4275e-05
4.74647e-05
5.11396e-05
5.54063e-05
6.03905e-05
6.62405e-05
7.31309e-05
8.12668e-05
9.08888e-05
0.000102279
0.000115768
0.000131739
0.000150641
0.000172994
0.000199398
0.000230548
0.000267242
0.000310393
0.000361047
0.000420389
0.000489764
0.000570684
0.00066484
0.000774113
0.00090057
0.00104646
0.00121421
0.00140638
0.0016256
0.00187454
0.0021558
0.00247176
0.00282449
0.0032155
0.00364562
0.00411473
0.00462162
0.00516373
0.00573708
0.00633612
0.00695382
0.00758173
0.00821024
0.00882898
0.00942725
0.0099946
0.0105214
0.0109994
0.0114223
0.0117859
0.0120887
0.0123316
0.0125178
0.0126527
0.012743
0.0128044
0.0128333
0.0128421
0.0128426
0.0128416
0.0128463
0.0128611
0.0128946
0.0129498
0.0130297
0.0131366
0.0132716
0.0134353
0.0136277
0.0138481
0.0140953
0.0143676
0.014663
0.0149788
0.0153118
0.0156583
0.0160138
0.0163728
0.0167287
0.0170739
0.0173992
0.0176943
0.0179463
0.0181398
0.0182509
0.0182818
0.0182128
0.0180102
0.0176637
0.0171619
0.0164975
0.0156689
0.0146834
0.0135584
0.012321
0.0110075
0.00966011
0.00832392
0.00704197
0.00585117
0.0047791
0.00384248
0.00304751
0.00239201
0.00186858
0.00146863
0.00118718
0.00103014
0.00102973
0.0013154
0.00269843
6.29228e-05
3.01847e-05
2.16676e-05
1.82964e-05
1.6908e-05
1.65296e-05
1.67488e-05
1.73557e-05
1.82289e-05
1.92878e-05
2.0479e-05
2.1766e-05
2.31235e-05
2.45354e-05
2.59933e-05
2.74952e-05
2.90459e-05
3.06562e-05
3.23434e-05
3.41315e-05
3.60518e-05
3.81432e-05
4.04536e-05
4.30407e-05
4.59735e-05
4.93343e-05
5.32206e-05
5.7748e-05
6.3053e-05
6.92972e-05
7.66709e-05
8.53989e-05
9.57455e-05
0.000108021
0.00012259
0.000139879
0.000160384
0.000184684
0.00021345
0.000247456
0.000287596
0.000334894
0.00039052
0.000455805
0.000532256
0.000621564
0.000725619
0.000846514
0.00098654
0.00114818
0.00133406
0.00154696
0.00178967
0.00206496
0.00237545
0.00272341
0.00311065
0.00353825
0.00400637
0.00451402
0.00505882
0.00563686
0.00624256
0.00686871
0.0075065
0.00814581
0.00877559
0.00938433
0.0099607
0.0104942
0.0109757
0.0113983
0.0117574
0.0120511
0.0122803
0.0124485
0.0125612
0.01263
0.0126594
0.0126607
0.0126386
0.0126074
0.0125753
0.0125506
0.0125405
0.0125428
0.0125703
0.0126236
0.0127045
0.0128142
0.0129532
0.0131212
0.0133178
0.0135418
0.0137921
0.014067
0.0143646
0.0146827
0.0150187
0.0153697
0.015732
0.0161013
0.0164721
0.016838
0.0171911
0.0175222
0.01782
0.0180703
0.018257
0.0183489
0.0183602
0.0182626
0.0180181
0.0176167
0.0170488
0.016307
0.0153924
0.0143172
0.0131042
0.0117876
0.0104103
0.00902062
0.00766705
0.00639347
0.00523463
0.00421373
0.00334195
0.00262026
0.00204278
0.00160117
0.0012901
0.00111575
0.00111146
0.00141625
0.00290213
6.86778e-05
3.29269e-05
2.35954e-05
1.98648e-05
1.82849e-05
1.77966e-05
1.79525e-05
1.85238e-05
1.93815e-05
2.04378e-05
2.16356e-05
2.29356e-05
2.43112e-05
2.57451e-05
2.72286e-05
2.876e-05
3.03446e-05
3.19945e-05
3.37286e-05
3.55731e-05
3.75619e-05
3.97373e-05
4.21509e-05
4.48653e-05
4.79551e-05
5.15093e-05
5.56337e-05
6.04539e-05
6.61184e-05
7.28034e-05
8.07172e-05
9.01058e-05
0.00010126
0.000114521
0.000130292
0.000149045
0.00017133
0.000197791
0.000229174
0.000266344
0.000310297
0.000362177
0.000423292
0.000495127
0.000579363
0.000677882
0.000792784
0.000926378
0.00108118
0.0012599
0.00146537
0.00170054
0.00196833
0.00227154
0.00261271
0.0029939
0.0034165
0.003881
0.00438669
0.00493146
0.0055116
0.00612163
0.00675426
0.00740048
0.00804977
0.00869049
0.0093104
0.00989729
0.0104397
0.0109277
0.0113534
0.0117117
0.0120002
0.0122197
0.0123738
0.0124689
0.0125145
0.0125222
0.0124923
0.0124445
0.0123838
0.0123221
0.012267
0.0122266
0.0122078
0.0122045
0.0122297
0.0122838
0.0123668
0.012479
0.0126204
0.0127901
0.0129872
0.0132106
0.013459
0.0137309
0.0140249
0.0143391
0.0146717
0.0150205
0.0153828
0.0157552
0.0161337
0.016513
0.0168867
0.0172467
0.0175834
0.0178838
0.0181338
0.0183107
0.0183898
0.0183798
0.0182503
0.0179604
0.0175012
0.0168619
0.0160368
0.0150316
0.0138636
0.0125631
0.0111723
0.00974127
0.00832377
0.00697061
0.0057245
0.00461612
0.00366278
0.00286961
0.00223296
0.00174521
0.00140087
0.00120654
0.00119654
0.00151967
0.00310992
7.47072e-05
3.58022e-05
2.56221e-05
2.15211e-05
1.97481e-05
1.91528e-05
1.92511e-05
1.97937e-05
2.06437e-05
2.17058e-05
2.29188e-05
2.42406e-05
2.56426e-05
2.7107e-05
2.86245e-05
3.01937e-05
3.18207e-05
3.3519e-05
3.53092e-05
3.72201e-05
3.92883e-05
4.15598e-05
4.40907e-05
4.69486e-05
5.02146e-05
5.39852e-05
5.83752e-05
6.35212e-05
6.95851e-05
7.67592e-05
8.52714e-05
9.53915e-05
0.000107439
0.00012179
0.00013889
0.000159259
0.000183508
0.000212351
0.000246618
0.00028727
0.000335416
0.000392329
0.000459466
0.000538478
0.000631227
0.000739801
0.00086651
0.00101389
0.00118468
0.00138179
0.00160827
0.00186716
0.00216147
0.00249396
0.00286697
0.00328221
0.00374052
0.00424157
0.00478358
0.00536315
0.00597502
0.00661199
0.00726499
0.00792322
0.00857459
0.00920618
0.00980496
0.0103585
0.0108559
0.0112884
0.0116498
0.0119373
0.0121516
0.012296
0.0123755
0.0124055
0.0123893
0.0123373
0.0122616
0.012175
0.0120852
0.0120019
0.0119322
0.0118834
0.0118608
0.011856
0.0118818
0.0119379
0.0120231
0.0121369
0.0122787
0.0124474
0.0126418
0.0128608
0.0131032
0.0133678
0.0136535
0.0139591
0.0142832
0.0146246
0.0149813
0.0153511
0.0157311
0.0161173
0.0165045
0.0168863