/*--------------------------------*- C++ -*----------------------------------*\
  =========                 |
  \\      /  F ield         | OpenFOAM: The Open Source CFD Toolbox
   \\    /   O peration     | Website:  https://openfoam.org
    \\  /    A nd           | Version:  12
     \\/     M anipulation  |
\*---------------------------------------------------------------------------*/
FoamFile
{
    format      ascii;
    class       volScalarField;
    location    "6";
    object      k;
}
// * * * * * * * * * * * * * * * * * * * * * * * * * * * * * * * * * * * * * //

dimensions      [0 2 -2 0 0 0 0];

internalField   nonuniform List<scalar> 
18225
(
2.49198e-10
1.68652e-09
3.75978e-09
6.23696e-09
9.01071e-09
1.20127e-08
1.51914e-08
1.85039e-08
2.19126e-08
2.53842e-08
2.88885e-08
3.23993e-08
3.58946e-08
3.93569e-08
4.27743e-08
4.61407e-08
4.9457e-08
5.27311e-08
5.59788e-08
5.92243e-08
6.25005e-08
6.58496e-08
6.93235e-08
7.29844e-08
7.69056e-08
8.11715e-08
8.58792e-08
9.11387e-08
9.70742e-08
1.03825e-07
1.11545e-07
1.20408e-07
1.30601e-07
1.42334e-07
1.55834e-07
1.71345e-07
1.89136e-07
2.0949e-07
2.32711e-07
2.59122e-07
2.89063e-07
3.22887e-07
3.60965e-07
4.03678e-07
4.5142e-07
5.04593e-07
5.63607e-07
6.28877e-07
7.00823e-07
7.79865e-07
8.66425e-07
9.60918e-07
1.06376e-06
1.17535e-06
1.29607e-06
1.42632e-06
1.56644e-06
1.71676e-06
1.8776e-06
2.04923e-06
2.23192e-06
2.42588e-06
2.63129e-06
2.84833e-06
3.07711e-06
3.31773e-06
3.57026e-06
3.83475e-06
4.11119e-06
4.39959e-06
4.69991e-06
5.01208e-06
5.33602e-06
5.67162e-06
6.01872e-06
6.37715e-06
6.74671e-06
7.12712e-06
7.51809e-06
7.91923e-06
8.33011e-06
8.75018e-06
9.17881e-06
9.61523e-06
1.00585e-05
1.05076e-05
1.09613e-05
1.14179e-05
1.18758e-05
1.23329e-05
1.27867e-05
1.32344e-05
1.36729e-05
1.40984e-05
1.45068e-05
1.48934e-05
1.52531e-05
1.55801e-05
1.58676e-05
1.61089e-05
1.62961e-05
1.64155e-05
1.6466e-05
1.64614e-05
1.63711e-05
1.61897e-05
1.59145e-05
1.55435e-05
1.50764e-05
1.4515e-05
1.38635e-05
1.31294e-05
1.23231e-05
1.14574e-05
1.05479e-05
9.6116e-06
8.66637e-06
7.73009e-06
6.81958e-06
5.94981e-06
5.13316e-06
4.379e-06
3.69344e-06
3.07939e-06
2.53689e-06
2.06349e-06
1.65479e-06
1.30508e-06
1.00775e-06
7.56005e-07
5.43365e-07
3.64279e-07
2.15027e-07
9.54106e-08
1.40718e-08
1.8836e-09
1.50207e-08
3.37392e-08
5.60617e-08
8.10436e-08
1.08075e-07
1.36695e-07
1.66517e-07
1.97205e-07
2.28457e-07
2.60004e-07
2.91608e-07
3.23071e-07
3.54236e-07
3.84995e-07
4.15294e-07
4.4514e-07
4.74605e-07
5.0383e-07
5.33034e-07
5.62512e-07
5.92644e-07
6.23897e-07
6.5683e-07
6.92103e-07
7.30476e-07
7.72822e-07
8.20132e-07
8.73523e-07
9.34245e-07
1.00369e-06
1.08341e-06
1.17511e-06
1.28066e-06
1.40211e-06
1.54166e-06
1.70171e-06
1.88483e-06
2.09376e-06
2.33139e-06
2.60079e-06
2.90513e-06
3.24776e-06
3.63211e-06
4.06172e-06
4.54021e-06
5.07127e-06
5.65863e-06
6.30608e-06
7.01739e-06
7.79635e-06
8.64673e-06
9.57222e-06
1.05764e-05
1.16629e-05
1.28351e-05
1.40961e-05
1.54489e-05
1.68964e-05
1.8441e-05
2.00851e-05
2.18306e-05
2.36793e-05
2.56324e-05
2.76913e-05
2.98567e-05
3.21293e-05
3.45095e-05
3.69972e-05
3.95925e-05
4.2295e-05
4.51041e-05
4.80191e-05
5.10389e-05
5.41622e-05
5.73875e-05
6.07128e-05
6.41357e-05
6.76536e-05
7.12629e-05
7.49599e-05
7.87395e-05
8.25962e-05
8.65229e-05
9.05116e-05
9.45524e-05
9.86341e-05
0.000102743
0.000106863
0.000110976
0.00011506
0.000119089
0.000123036
0.000126866
0.000130542
0.000134023
0.000137262
0.000140206
0.000142798
0.000144972
0.000146654
0.000147713
0.00014815
0.0001481
0.000147274
0.000145629
0.000143141
0.000139793
0.000135582
0.000130523
0.000124658
0.000118051
0.000110796
0.000103011
9.48317e-05
8.64129e-05
7.79149e-05
6.94977e-05
6.13125e-05
5.34935e-05
4.6152e-05
3.93719e-05
3.32082e-05
2.76873e-05
2.28095e-05
1.85528e-05
1.48777e-05
1.17321e-05
9.05799e-06
6.79405e-06
4.88178e-06
3.27101e-06
1.92783e-06
8.49139e-07
1.06315e-07
4.00189e-09
3.43169e-08
7.75827e-08
1.29183e-07
1.86921e-07
2.49389e-07
3.15519e-07
3.84425e-07
4.55326e-07
5.27526e-07
6.00401e-07
6.73406e-07
7.46079e-07
8.18057e-07
8.89091e-07
9.59054e-07
1.02796e-06
1.09598e-06
1.16343e-06
1.23082e-06
1.29884e-06
1.36835e-06
1.44044e-06
1.51639e-06
1.59773e-06
1.68622e-06
1.78386e-06
1.89295e-06
2.01606e-06
2.15608e-06
2.31623e-06
2.50009e-06
2.71159e-06
2.95505e-06
3.23519e-06
3.55714e-06
3.92642e-06
4.34896e-06
4.83109e-06
5.37952e-06
6.0013e-06
6.70382e-06
7.49478e-06
8.38212e-06
9.37405e-06
1.04789e-05
1.17053e-05
1.30619e-05
1.45574e-05
1.62006e-05
1.80002e-05
1.99651e-05
2.21038e-05
2.44247e-05
2.69361e-05
2.96458e-05
3.25613e-05
3.56898e-05
3.90376e-05
4.26108e-05
4.64148e-05
5.04541e-05
5.4733e-05
5.92549e-05
6.40224e-05
6.90378e-05
7.43025e-05
7.98175e-05
8.55832e-05
9.15993e-05
9.78651e-05
0.000104379
0.00011114
0.000118145
0.00012539
0.000132872
0.000140586
0.000148526
0.000156684
0.000165054
0.000173624
0.000182382
0.000191315
0.000200406
0.000209635
0.000218977
0.000228408
0.000237892
0.000247395
0.000256871
0.00026627
0.000275534
0.000284595
0.000293377
0.000301795
0.000309752
0.000317142
0.000323847
0.000329733
0.000334658
0.00033846
0.000340816
0.000341746
0.000341586
0.000339627
0.000335785
0.000330007
0.000322255
0.000312521
0.000300841
0.000287307
0.000272068
0.000255339
0.000237387
0.000218531
0.000199123
0.000179533
0.00016013
0.000141263
0.000123241
0.000106321
9.06956e-05
7.64923e-05
6.37712e-05
5.25326e-05
4.27257e-05
3.42594e-05
2.70142e-05
2.08545e-05
1.56391e-05
1.1233e-05
7.52061e-06
4.42375e-06
1.93616e-06
2.25452e-07
6.5473e-09
5.75452e-08
1.30723e-07
2.18111e-07
3.15921e-07
4.21745e-07
5.33771e-07
6.5049e-07
7.70585e-07
8.92871e-07
1.01629e-06
1.13992e-06
1.26297e-06
1.38483e-06
1.50507e-06
1.62348e-06
1.74008e-06
1.85514e-06
1.96923e-06
2.08318e-06
2.19815e-06
2.31562e-06
2.43743e-06
2.56574e-06
2.70314e-06
2.85259e-06
3.01751e-06
3.20176e-06
3.40971e-06
3.64624e-06
3.9168e-06
4.22745e-06
4.58485e-06
4.99631e-06
5.46985e-06
6.01412e-06
6.63852e-06
7.35308e-06
8.16855e-06
9.09629e-06
1.01483e-05
1.13371e-05
1.26757e-05
1.41778e-05
1.58571e-05
1.7728e-05
1.9805e-05
2.21028e-05
2.46364e-05
2.74207e-05
3.04707e-05
3.38013e-05
3.74274e-05
4.13633e-05
4.56232e-05
5.02206e-05
5.51685e-05
6.0479e-05
6.61636e-05
7.22325e-05
7.86952e-05
8.556e-05
9.28339e-05
0.000100523
0.000108633
0.000117166
0.000126126
0.000135514
0.000145331
0.000155575
0.000166246
0.00017734
0.000188852
0.000200778
0.000213111
0.000225841
0.000238958
0.00025245
0.000266303
0.0002805
0.00029502
0.000309841
0.000324937
0.000340275
0.00035582
0.000371531
0.00038736
0.000403251
0.000419141
0.000434957
0.000450615
0.00046602
0.00048106
0.000495613
0.000509538
0.000522682
0.00053487
0.000545911
0.000555594
0.000563685
0.000569928
0.000573742
0.000575199
0.000574903
0.000571601
0.00056516
0.000555493
0.000542529
0.000526245
0.00050669
0.000484008
0.000458444
0.000430347
0.000400167
0.000368436
0.00033575
0.000302735
0.00027002
0.000238197
0.000207795
0.000179249
0.000152889
0.000128931
0.000107477
8.85257e-05
7.19919e-05
5.77203e-05
4.55086e-05
3.51268e-05
2.6336e-05
1.89082e-05
1.26484e-05
7.42622e-06
3.23522e-06
3.67576e-07
9.44134e-09
8.38158e-08
1.91062e-07
3.19361e-07
4.63045e-07
6.18531e-07
7.83136e-07
9.54638e-07
1.13109e-06
1.31075e-06
1.49207e-06
1.67366e-06
1.85439e-06
2.03333e-06
2.20985e-06
2.38364e-06
2.55472e-06
2.72351e-06
2.8908e-06
3.05784e-06
3.22632e-06
3.39843e-06
3.57682e-06
3.76472e-06
3.96589e-06
4.18469e-06
4.42613e-06
4.69588e-06
5.00035e-06
5.34673e-06
5.743e-06
6.19806e-06
6.72171e-06
7.3247e-06
8.01879e-06
8.81675e-06
9.73237e-06
1.07805e-05
1.19768e-05
1.33382e-05
1.48823e-05
1.66275e-05
1.85932e-05
2.07994e-05
2.32665e-05
2.60157e-05
2.90686e-05
3.24469e-05
3.61727e-05
4.02684e-05
4.47563e-05
4.96585e-05
5.49971e-05
6.07938e-05
6.70696e-05
7.38451e-05
8.11398e-05
8.8972e-05
9.73589e-05
0.000106316
0.000115858
0.000125998
0.000136746
0.000148111
0.0001601
0.00017272
0.000185972
0.000199859
0.00021438
0.000229531
0.000245308
0.000261703
0.000278706
0.000296305
0.000314484
0.000333225
0.000352507
0.000372304
0.00039259
0.000413333
0.000434496
0.000456041
0.000477922
0.000500091
0.00052249
0.000545058
0.000567725
0.000590412
0.000613032
0.000635485
0.000657657
0.000679418
0.000700624
0.000721108
0.000740686
0.000759148
0.000776263
0.000791769
0.000805387
0.000816796
0.000825628
0.000831071
0.000833147
0.000832847
0.00082831
0.000819302
0.000805689
0.000787347
0.000764212
0.000736324
0.000703861
0.00066715
0.000626676
0.000583079
0.000537124
0.000489682
0.000441674
0.000394031
0.000347635
0.000303273
0.0002616
0.00022311
0.000188125
0.0001568
0.000129135
0.000105004
8.41794e-05
6.63629e-05
5.12168e-05
3.83911e-05
2.75522e-05
1.84162e-05
1.07954e-05
4.68754e-06
5.27321e-07
1.26297e-08
1.12654e-07
2.5744e-07
4.30966e-07
6.25452e-07
8.35979e-07
1.05888e-06
1.29113e-06
1.53009e-06
1.77337e-06
2.01887e-06
2.26471e-06
2.50933e-06
2.75147e-06
2.99029e-06
3.22533e-06
3.45663e-06
3.68473e-06
3.91073e-06
4.1363e-06
4.36374e-06
4.59597e-06
4.83663e-06
5.09005e-06
5.36133e-06
5.65637e-06
5.98195e-06
6.34573e-06
6.7564e-06
7.22367e-06
7.75839e-06
8.37257e-06
9.0795e-06
9.89377e-06
1.08313e-05
1.19095e-05
1.3147e-05
1.4564e-05
1.61818e-05
1.80234e-05
2.01128e-05
2.24751e-05
2.51366e-05
2.81246e-05
3.14671e-05
3.5193e-05
3.93318e-05
4.39133e-05
4.89679e-05
5.45263e-05
6.06191e-05
6.72771e-05
7.45307e-05
8.24099e-05
9.09441e-05
0.000100162
0.00011009
0.000120755
0.00013218
0.000144387
0.000157396
0.000171225
0.000185888
0.000201396
0.000217759
0.000234982
0.000253067
0.000272012
0.000291812
0.000312458
0.000333935
0.000356226
0.000379308
0.000403154
0.000427732
0.000453006
0.000478933
0.00050547
0.000532566
0.000560167
0.000588216
0.000616651
0.000645405
0.000674408
0.000703585
0.000732857
0.000762135
0.000791326
0.000820325
0.000849019
0.000877277
0.000904954
0.000931882
0.000957872
0.000982709
0.00100615
0.00102791
0.00104769
0.00106514
0.00107985
0.00109137
0.00109874
0.00110168
0.00110169
0.00109641
0.00108533
0.00106827
0.00104502
0.00101545
0.000979555
0.000937504
0.000889683
0.000836689
0.000779338
0.000718634
0.000655731
0.000591875
0.000528331
0.000466313
0.000406915
0.000351048
0.000299406
0.000252446
0.000210391
0.000173253
0.000140863
0.000112916
8.90095e-05
6.86875e-05
5.14777e-05
3.69315e-05
2.46688e-05
1.44421e-05
6.25643e-06
7.00519e-07
1.60782e-08
1.43781e-07
3.29167e-07
5.51729e-07
8.01387e-07
1.07175e-06
1.35806e-06
1.65641e-06
1.96336e-06
2.27586e-06
2.59117e-06
2.90687e-06
3.22092e-06
3.53172e-06
3.83814e-06
4.13961e-06
4.43616e-06
4.72848e-06
5.01797e-06
5.30677e-06
5.59784e-06
5.89493e-06
6.20271e-06
6.52673e-06
6.87354e-06
7.25073e-06
7.66697e-06
8.13214e-06
8.65737e-06
9.25513e-06
9.93937e-06
1.07256e-05
1.16308e-05
1.26738e-05
1.38751e-05
1.52571e-05
1.68439e-05
1.86614e-05
2.07375e-05
2.31015e-05
2.57845e-05
2.88191e-05
3.22395e-05
3.60809e-05
4.03798e-05
4.51737e-05
5.05009e-05
5.64005e-05
6.29122e-05
7.00759e-05
7.79322e-05
8.65211e-05
9.58829e-05
0.000106057
0.000117083
0.000128997
0.000141836
0.000155634
0.000170422
0.000186229
0.00020308
0.000220996
0.000239995
0.00026009
0.000281288
0.000303591
0.000326997
0.000351494
0.000377067
0.000403691
0.000431335
0.00045996
0.000489521
0.000519965
0.000551232
0.000583256
0.000615966
0.000649286
0.000683137
0.000717436
0.0007521
0.000787043
0.000822181
0.000857426
0.000892693
0.000927894
0.000962937
0.00099773
0.00103217
0.00106615
0.00109953
0.00113219
0.00116396
0.00119464
0.00122401
0.0012518
0.00127772
0.00130141
0.00132247
0.00134043
0.00135473
0.00136445
0.00136876
0.00136939
0.00136415
0.00135183
0.00133222
0.00130501
0.00126997
0.00122701
0.00117624
0.00111809
0.00105321
0.000982564
0.00090738
0.000829083
0.000749246
0.000669488
0.000591387
0.000516378
0.000445674
0.000380211
0.000320617
0.000267213
0.000220037
0.00017889
0.00014339
0.000113025
8.72132e-05
6.53531e-05
4.68733e-05
3.12925e-05
1.83014e-05
7.91543e-06
8.84052e-07
1.97659e-08
1.77028e-07
4.05821e-07
6.80901e-07
9.89739e-07
1.32435e-06
1.67879e-06
2.04816e-06
2.4282e-06
2.81508e-06
3.20539e-06
3.59612e-06
3.98471e-06
4.36915e-06
4.74803e-06
5.12062e-06
5.48696e-06
5.84788e-06
6.20513e-06
6.56135e-06
6.92018e-06
7.2863e-06
7.66546e-06
8.06455e-06
8.49166e-06
8.9562e-06
9.4689e-06
1.0042e-05
1.06893e-05
1.14261e-05
1.227e-05
1.32398e-05
1.4357e-05
1.56448e-05
1.71287e-05
1.88364e-05
2.07981e-05
2.3046e-05
2.56147e-05
2.85409e-05
3.18636e-05
3.56234e-05
3.9863e-05
4.46266e-05
4.99601e-05
5.59105e-05
6.25261e-05
6.98562e-05
7.79508e-05
8.68607e-05
9.6637e-05
0.000107331
0.000118993
0.000131674
0.000145424
0.000160289
0.000176316
0.000193547
0.000212021
0.000231772
0.000252831
0.000275221
0.00029896
0.000324057
0.000350515
0.000378326
0.000407473
0.000437929
0.000469656
0.000502605
0.000536713
0.000571909
0.000608111
0.000645228
0.000683158
0.000721796
0.000761031
0.000800749
0.000840839
0.000881189
0.000921691
0.000962246
0.00100276
0.00104314
0.0010833
0.00112318
0.00116269
0.00120177
0.00124034
0.00127832
0.00131561
0.00135209
0.00138763
0.00142204
0.00145511
0.00148657
0.0015161
0.00154332
0.00156777
0.00158891
0.0016061
0.0016186
0.0016248
0.00162642
0.00162207
0.00160945
0.00158835
0.00155836
0.00151911
0.00147039
0.00141225
0.00134507
0.00126955
0.00118675
0.00109806
0.00100514
0.000909887
0.000814255
0.000720196
0.000629516
0.000543766
0.000464169
0.000391568
0.000326418
0.000268816
0.000218553
0.000175179
0.000138077
0.00010654
7.98277e-05
5.72429e-05
3.81989e-05
2.23236e-05
9.64395e-06
1.07552e-06
2.36806e-08
2.12293e-07
4.87148e-07
8.1803e-07
1.18982e-06
1.59284e-06
2.01986e-06
2.46493e-06
2.92287e-06
3.38903e-06
3.85925e-06
4.32987e-06
4.79779e-06
5.26053e-06
5.71639e-06
6.16446e-06
6.60477e-06
7.03833e-06
7.46722e-06
7.89464e-06
8.32497e-06
8.76385e-06
9.21822e-06
9.69638e-06
1.02081e-05
1.07647e-05
1.13792e-05
1.20662e-05
1.28424e-05
1.37264e-05
1.47392e-05
1.59038e-05
1.72459e-05
1.87937e-05
2.05781e-05
2.26327e-05
2.49939e-05
2.77011e-05
3.07961e-05
3.43237e-05
3.83311e-05
4.28682e-05
4.79869e-05
5.37414e-05
6.01877e-05
6.73835e-05
7.53881e-05
8.42622e-05
9.40675e-05
0.000104866
0.000116722
0.000129698
0.000143857
0.000159261
0.000175972
0.000194047
0.000213541
0.000234506
0.000256988
0.000281025
0.000306649
0.000333882
0.000362738
0.000393217
0.000425307
0.000458982
0.000494201
0.000530907
0.000569027
0.000608471
0.000649133
0.000690894
0.000733621
0.00077717
0.000821391
0.000866129
0.00091123
0.000956544
0.00100193
0.00104725
0.00109239
0.00113725
0.00118174
0.00122579
0.00126936
0.0013124
0.00135488
0.00139677
0.00143805
0.00147869
0.00151862
0.00155778
0.00159606
0.00163331
0.00166931
0.00170381
0.00173646
0.00176685
0.00179448
0.00181874
0.00183894
0.00185433
0.00186298
0.00186591
0.00186315
0.00185112
0.00182956
0.00179797
0.00175585
0.00170286
0.00163894
0.00156439
0.00147991
0.00138658
0.00128591
0.00117975
0.00107024
0.000959653
0.000850309
0.000744384
0.000643797
0.000550095
0.000464384
0.000387302
0.000319046
0.000259428
0.000207953
0.000163911
0.000126468
9.47528e-05
6.79343e-05
4.53185e-05
2.64692e-05
1.14256e-05
1.27303e-06
2.78155e-08
2.49524e-07
5.73016e-07
9.62867e-07
1.40125e-06
1.87669e-06
2.38058e-06
2.90586e-06
3.44634e-06
3.9965e-06
4.55136e-06
5.10656e-06
5.65838e-06
6.20388e-06
6.741e-06
7.26865e-06
7.78685e-06
8.29679e-06
8.80091e-06
9.303e-06
9.80825e-06
1.03233e-05
1.08564e-05
1.14173e-05
1.20176e-05
1.26707e-05
1.33918e-05
1.41984e-05
1.51101e-05
1.6149e-05
1.73398e-05
1.87098e-05
2.02896e-05
2.21124e-05
2.4215e-05
2.66374e-05
2.94228e-05
3.2618e-05
3.62732e-05
4.04415e-05
4.51796e-05
5.05469e-05
5.66058e-05
6.34212e-05
7.10605e-05
7.95931e-05
8.90906e-05
9.9626e-05
0.000111274
0.00012411
0.00013821
0.000153652
0.00017051
0.000188861
0.000208775
0.000230323
0.000253569
0.000278571
0.000305378
0.000334033
0.000364562
0.000396983
0.000431294
0.000467478
0.000505499
0.000545299
0.000586799
0.000629898
0.000674472
0.000720375
0.000767442
0.00081549
0.000864324
0.000913741
0.000963534
0.0010135
0.00106345
0.00111319
0.00116258
0.00121147
0.00125976
0.00130737
0.00135425
0.00140038
0.00144576
0.00149041
0.00153437
0.00157767
0.00162035
0.00166244
0.00170393
0.0017448
0.00178496
0.00182429
0.00186259
0.00189959
0.00193492
0.00196814
0.00199869
0.00202592
0.00204907
0.00206734
0.00207879
0.00208328
0.00208245
0.00207177
0.00205064
0.00201855
0.00197486
0.00191911
0.00185112
0.00177106
0.00167955
0.00157767
0.00146696
0.00134938
0.00122725
0.00110312
0.000979618
0.000859298
0.000744453
0.000636985
0.000538309
0.000449299
0.000370302
0.000301192
0.000241462
0.00019033
0.00014685
0.000110015
7.88658e-05
5.25974e-05
3.07076e-05
1.32474e-05
1.47511e-06
3.21685e-08
2.88705e-07
6.6338e-07
1.11532e-06
1.62387e-06
2.17566e-06
2.76065e-06
3.37056e-06
3.99814e-06
4.63691e-06
5.28102e-06
5.92535e-06
6.56552e-06
7.19807e-06
7.82057e-06
8.43172e-06
9.03153e-06
9.62137e-06
1.02041e-05
1.07841e-05
1.13675e-05
1.19619e-05
1.2577e-05
1.32241e-05
1.39167e-05
1.46704e-05
1.55029e-05
1.64345e-05
1.74882e-05
1.86895e-05
2.00673e-05
2.16535e-05
2.34836e-05
2.55966e-05
2.80354e-05
3.08468e-05
3.40816e-05
3.77945e-05
4.20445e-05
4.68942e-05
5.24102e-05
5.86627e-05
6.57253e-05
7.36747e-05
8.25907e-05
9.25558e-05
0.000103655
0.000115974
0.000129603
0.000144631
0.000161148
0.000179247
0.000199015
0.000220541
0.000243909
0.000269198
0.00029648
0.000325817
0.00035726
0.000390846
0.000426594
0.000464503
0.00050455
0.000546689
0.000590843
0.000636909
0.000684755
0.000734216
0.000785102
0.000837195
0.000890258
0.000944034
0.000998261
0.00105267
0.00110701
0.00116103
0.00121451
0.00126726
0.00131913
0.00137001
0.00141983
0.00146857
0.00151624
0.0015629
0.00160861
0.00165348
0.00169763
0.00174116
0.00178418
0.00182677
0.00186897
0.00191079
0.00195218
0.001993
0.00203306
0.00207207
0.00210964
0.00214528
0.00217841
0.00220831
0.00223416
0.00225508
0.00226941
0.00227583
0.00227673
0.00226801
0.00224803
0.0022164
0.00217238
0.00211535
0.002045
0.00196136
0.00186493
0.00175669
0.00163813
0.00151126
0.0013785
0.00124259
0.00110642
0.000972897
0.000844673
0.000724038
0.000612751
0.000511977
0.000422268
0.000343612
0.000275532
0.000217202
0.000167578
0.000125534
8.99782e-05
5.99956e-05
3.50156e-05
1.50996e-05
1.68064e-06
3.67406e-08
3.29846e-07
7.58262e-07
1.27542e-06
1.8577e-06
2.48977e-06
3.16006e-06
3.859e-06
4.5782e-06
5.31015e-06
6.04809e-06
6.78604e-06
7.51893e-06
8.24272e-06
8.95459e-06
9.65302e-06
1.0338e-05
1.10111e-05
1.16756e-05
1.23367e-05
1.30011e-05
1.36779e-05
1.43781e-05
1.51147e-05
1.59033e-05
1.67616e-05
1.77102e-05
1.87724e-05
1.99744e-05
2.13458e-05
2.29198e-05
2.4733e-05
2.68265e-05
2.92453e-05
3.20389e-05
3.52614e-05
3.89717e-05
4.32333e-05
4.81144e-05
5.36881e-05
6.00318e-05
6.72273e-05
7.53604e-05
8.45209e-05
9.4802e-05
0.0001063
0.000119115
0.000133348
0.000149103
0.000166485
0.000185601
0.000206554
0.00022945
0.000254388
0.000281462
0.000310761
0.000342359
0.00037632
0.00041269
0.000451493
0.00049273
0.000536373
0.000582364
0.00063061
0.000680982
0.000733312
0.000787397
0.000842994
0.00089983
0.000957606
0.001016
0.00107468
0.00113331
0.00119158
0.00124918
0.00130585
0.00136137
0.00141557
0.00146833
0.00151959
0.00156937
0.00161771
0.00166472
0.00171055
0.00175536
0.00179934
0.00184268
0.00188556
0.00192814
0.00197055
0.00201285
0.00205507
0.00209716
0.00213898
0.00218032
0.00222086
0.00226018
0.00229777
0.00233298
0.00236508
0.00239321
0.00241638
0.00243341
0.00244192
0.00244425
0.00243788
0.00241963
0.00238928
0.00234604
0.00228915
0.00221813
0.00213285
0.00203364
0.00192132
0.00179727
0.00166343
0.00152224
0.00137655
0.00122946
0.00108416
0.000943673
0.000810666
0.000687289
0.000575041
0.000474741
0.000386547
0.00031006
0.000244445
0.000188591
0.000141259
0.000101233
6.74865e-05
3.93775e-05
1.69754e-05
1.88885e-06
4.15355e-08
3.72984e-07
8.57744e-07
1.44328e-06
2.10291e-06
2.81922e-06
3.57905e-06
4.37144e-06
5.18681e-06
6.01654e-06
6.85286e-06
7.68889e-06
8.51882e-06
9.338e-06
1.01432e-05
1.09326e-05
1.17062e-05
1.24658e-05
1.32152e-05
1.39602e-05
1.47086e-05
1.54707e-05
1.62589e-05
1.70883e-05
1.79763e-05
1.89434e-05
2.00128e-05
2.12111e-05
2.25681e-05
2.41175e-05
2.58971e-05
2.79488e-05
3.03194e-05
3.30603e-05
3.62282e-05
3.98851e-05
4.40985e-05
4.89414e-05
5.44923e-05
6.08351e-05
6.80592e-05
7.62589e-05
8.55335e-05
9.59868e-05
0.000107727
0.000120865
0.000135517
0.0001518
0.000169834
0.000189741
0.000211642
0.000235657
0.000261903
0.000290492
0.000321526
0.000355098
0.000391283
0.000430139
0.000471697
0.000515962
0.000562903
0.000612453
0.000664501
0.000718894
0.00077543
0.000833861
0.000893894
0.000955197
0.0010174
0.00108011
0.00114293
0.00120545
0.00126729
0.00132807
0.0013875
0.00144531
0.0015013
0.00155537
0.00160747
0.00165763
0.00170595
0.0017526
0.00179777
0.00184172
0.0018847
0.001927
0.00196885
0.00201049
0.00205213
0.0020939
0.00213589
0.0021781
0.00222047
0.00226284
0.00230496
0.0023465
0.00238701
0.00242594
0.00246264
0.00249636
0.00252621
0.00255123
0.00257034
0.00258094
0.00258454
0.00258063
0.00256457
0.00253622
0.00249475
0.0024393
0.00236922
0.00228419
0.00218431
0.00207019
0.00194303
0.00180462
0.00165731
0.00150399
0.00134789
0.00119242
0.00104093
0.000896494
0.000761664
0.000638326
0.000527619
0.000429935
0.000345005
0.000272033
0.000209864
0.000157168
0.000112611
7.50553e-05
4.3784e-05
1.88706e-05
2.09928e-06
4.65593e-08
4.18173e-07
9.61951e-07
1.61912e-06
2.3598e-06
3.1644e-06
4.01806e-06
4.90842e-06
5.82456e-06
6.7567e-06
7.69599e-06
8.6346e-06
9.56589e-06
1.04846e-05
1.13869e-05
1.22709e-05
1.31365e-05
1.39859e-05
1.48231e-05
1.56548e-05
1.649e-05
1.73402e-05
1.82195e-05
1.91448e-05
2.0136e-05
2.12159e-05
2.2411e-05
2.37511e-05
2.527e-05
2.70057e-05
2.90009e-05
3.13032e-05
3.39653e-05
3.70457e-05
4.06087e-05
4.47249e-05
4.94709e-05
5.49299e-05
6.11914e-05
6.83515e-05
7.65123e-05
8.57816e-05
9.62734e-05
0.000108106
0.000121405
0.000136296
0.000152913
0.00017139
0.000191864
0.000214473
0.000239354
0.000266642
0.000296464
0.000328943
0.000364186
0.000402285
0.000443309
0.000487301
0.000534271
0.000584188
0.000636978
0.000692517
0.000750628
0.000811075
0.000873569
0.000937765
0.00100327
0.00106964
0.00113642
0.00120312
0.00126926
0.00133437
0.00139804
0.0014599
0.00151964
0.00157706
0.00163202
0.0016845
0.00173455
0.00178233
0.00182805
0.00187199
0.00191447
0.00195582
0.00199639
0.00203652
0.00207649
0.00211658
0.00215698
0.00219783
0.00223919
0.00228104
0.0023233
0.00236576
0.00240815
0.00245011
0.00249117
0.00253078
0.00256829
0.00260294
0.00263389
0.00266021
0.00268086
0.00269339
0.00269817
0.00269658
0.00268307
0.00265733
0.00261852
0.00256569
0.00249801
0.00241497
0.00231643
0.00220272
0.00207479
0.00193418
0.0017831
0.00162435
0.00146121
0.00129727
0.00113616
0.000981332
0.000835768
0.000701783
0.000580894
0.00047379
0.000380389
0.000299982
0.000231408
0.000173264
0.000124111
8.2699e-05
4.82323e-05
2.07838e-05
2.31174e-06
5.182e-08
4.65488e-07
1.07105e-06
1.80322e-06
2.62875e-06
3.5258e-06
4.47775e-06
5.47067e-06
6.4923e-06
7.53157e-06
8.57849e-06
9.62421e-06
1.06612e-05
1.16835e-05
1.26868e-05
1.3669e-05
1.463e-05
1.55722e-05
1.65002e-05
1.74215e-05
1.83462e-05
1.92873e-05
2.02606e-05
2.12851e-05
2.23831e-05
2.35802e-05
2.4906e-05
2.6394e-05
2.80821e-05
3.0013e-05
3.22345e-05
3.48001e-05
3.77693e-05
4.12078e-05
4.51882e-05
4.97901e-05
5.51002e-05
6.12126e-05
6.82289e-05
7.62578e-05
8.54152e-05
9.5824e-05
0.000107613
0.000120919
0.000135881
0.000152646
0.000171362
0.000192184
0.000215265
0.000240759
0.000268819
0.000299592
0.000333217
0.00036982
0.00040951
0.000452372
0.000498461
0.000547794
0.000600346
0.00065604
0.000714739
0.000776248
0.000840302
0.00090657
0.000974656
0.00104411
0.00111441
0.00118503
0.0012554
0.00132495
0.00139315
0.0014595
0.00152357
0.00158502
0.0016436
0.00169918
0.00175174
0.00180137
0.00184826
0.00189268
0.00193497
0.00197554
0.00201478
0.00205314
0.00209102
0.00212877
0.0021667
0.00220508
0.00224408
0.00228381
0.0023243
0.00236549
0.00240724
0.00244933
0.00249145
0.00253322
0.00257418
0.00261378
0.00265138
0.00268628
0.00271768
0.00274469
0.00276635
0.00278061
0.00278664
0.00278699
0.00277633
0.00275368
0.00271827
0.00266906
0.00260508
0.0025256
0.00243022
0.00231897
0.00219245
0.00205194
0.00189937
0.00173739
0.00156922
0.00139855
0.00122926
0.00106514
0.000909613
0.000765462
0.000634639
0.000518188
0.000416283
0.00032835
0.000253265
0.000189575
0.000135749
9.04245e-05
5.27252e-05
2.27159e-05
2.52633e-06
5.73275e-08
5.15017e-07
1.18525e-06
1.99592e-06
2.91027e-06
3.90409e-06
4.9589e-06
6.05914e-06
7.19109e-06
8.34234e-06
9.50164e-06
1.06591e-05
1.18062e-05
1.29362e-05
1.40444e-05
1.51284e-05
1.61881e-05
1.72261e-05
1.82478e-05
1.92615e-05
2.02785e-05
2.13133e-05
2.23837e-05
2.35108e-05
2.47194e-05
2.60382e-05
2.75001e-05
2.91425e-05
3.10076e-05
3.31431e-05
3.56024e-05
3.84452e-05
4.17381e-05
4.55547e-05
4.99765e-05
5.50926e-05
6.10007e-05
6.78065e-05
7.56245e-05
8.45772e-05
9.47956e-05
0.000106418
0.000119591
0.000134467
0.000151204
0.000169968
0.000190925
0.000214248
0.000240108
0.000268675
0.000300115
0.000334587
0.000372236
0.000413189
0.000457548
0.000505384
0.000556727
0.000611558
0.0006698
0.000731315
0.000795888
0.000863231
0.000932977
0.00100468
0.00107783
0.00115185
0.00122613
0.0013
0.00137283
0.00144398
0.0015129
0.00157907
0.00164211
0.00170173
0.00175779
0.00181028
0.0018593
0.00190508
0.00194797
0.00198836
0.00202674
0.00206358
0.00209938
0.00213463
0.00216975
0.00220511
0.00224099
0.00227762
0.00231515
0.00235363
0.00239304
0.00243327
0.00247413
0.00251539
0.0025567
0.0025977
0.00263792
0.00267684
0.00271389
0.0027484
0.00277963
0.00280678
0.00282893
0.00284466
0.00285217
0.00285388
0.00284632
0.0028271
0.00279565
0.00275088
0.00269165
0.00261706
0.00252642
0.00241944
0.00229636
0.00215807
0.00200619
0.0018431
0.00167189
0.00149626
0.00132024
0.00114797
0.000983293
0.000829486
0.000688985
0.000563259
0.0004528
0.000357231
0.000275502
0.000206148
0.000147552
9.82481e-05
5.72708e-05
2.46699e-05
2.74337e-06
6.30932e-08
5.66865e-07
1.30479e-06
2.19761e-06
3.20492e-06
4.30003e-06
5.46245e-06
6.67495e-06
7.92222e-06
9.19042e-06
1.0467e-05
1.17408e-05
1.30025e-05
1.42445e-05
1.54615e-05
1.66508e-05
1.78125e-05
1.89495e-05
2.00677e-05
2.11766e-05
2.22887e-05
2.34201e-05
2.45907e-05
2.58238e-05
2.71472e-05
2.85925e-05
3.01963e-05
3.2e-05
3.40506e-05
3.64009e-05
3.91103e-05
4.22453e-05
4.58799e-05
5.00962e-05
5.4985e-05
6.06461e-05
6.71884e-05
7.47305e-05
8.34006e-05
9.3336e-05
0.000104684
0.000117599
0.000132246
0.000148795
0.000167425
0.00018832
0.000211665
0.000237651
0.000266465
0.000298295
0.000333317
0.000371696
0.000413581
0.000459093
0.00050832
0.000561308
0.00061805
0.000678475
0.000742444
0.000809734
0.000880037
0.000952957
0.00102801
0.00110462
0.00118215
0.00125991
0.00133716
0.00141317
0.00148722
0.00155866
0.00162691
0.00169152
0.00175218
0.0018087
0.00186107
0.00190943
0.00195405
0.0019953
0.00203368
0.0020697
0.00210396
0.00213703
0.00216942
0.00220165
0.00223413
0.00226722
0.00230113
0.00233607
0.00237209
0.00240921
0.00244735
0.00248634
0.00252596
0.00256596
0.00260599
0.00264567
0.0026846
0.00272229
0.00275821
0.00279177
0.00282233
0.00284917
0.00287145
0.0028882
0.0028972
0.00290005
0.00289558
0.00288
0.00285287
0.00281312
0.00275945
0.00269078
0.00260617
0.00250499
0.00238709
0.00225295
0.00210377
0.0019416
0.00176929
0.00159044
0.00140919
0.00122994
0.00105695
0.000894016
0.000744102
0.000609166
0.000490085
0.00038674
0.000298211
0.000223044
0.000159562
0.000106193
6.18811e-05
2.66508e-05
2.9634e-06
6.91301e-08
6.21147e-07
1.42994e-06
2.40876e-06
3.51337e-06
4.71447e-06
5.98949e-06
7.31937e-06
8.68716e-06
1.00775e-05
1.14763e-05
1.28714e-05
1.42522e-05
1.56103e-05
1.69401e-05
1.82385e-05
1.95055e-05
2.07444e-05
2.19622e-05
2.3169e-05
2.43791e-05
2.56102e-05
2.68842e-05
2.82272e-05
2.96696e-05
3.12466e-05
3.29984e-05
3.4971e-05
3.72161e-05
3.97922e-05
4.27651e-05
4.62084e-05
5.0204e-05
5.48432e-05
6.02268e-05
6.64657e-05
7.36813e-05
8.20056e-05
9.15814e-05
0.000102562
0.000115112
0.000129403
0.00014562
0.000163952
0.000184597
0.000207759
0.000233643
0.000262456
0.000294405
0.000329686
0.000368486
0.000410974
0.000457293
0.000507552
0.000561816
0.000620092
0.000682323
0.000748373
0.000818019
0.000890942
0.00096672
0.00104483
0.00112466
0.00120551
0.0012866
0.00136712
0.00144625
0.00152319
0.00159717
0.00166756
0.00173383
0.0017956
0.00185267
0.00190501
0.00195277
0.00199625
0.00203589
0.00207223
0.00210589
0.0021375
0.00216773
0.00219717
0.00222637
0.00225582
0.0022859
0.00231691
0.00234902
0.00238233
0.00241686
0.00245254
0.00248924
0.00252676
0.00256485
0.00260323
0.00264158
0.00267954
0.00271674
0.00275274
0.0027871
0.0028193
0.00284877
0.00287486
0.0028969
0.00291414
0.00292465
0.00292865
0.00292704
0.0029152
0.0028925
0.0028581
0.0028105
0.00274847
0.00267085
0.00257669
0.00246542
0.00233709
0.00219244
0.00203307
0.0018615
0.00168116
0.00149618
0.00131115
0.00113073
0.000959226
0.000800176
0.000656088
0.000528299
0.000417014
0.000321494
0.00024034
0.000171828
0.00011429
6.65721e-05
2.86647e-05
3.18709e-06
7.54527e-08
6.77995e-07
1.56099e-06
2.62987e-06
3.83635e-06
5.14838e-06
6.54121e-06
7.99385e-06
9.48755e-06
1.10053e-05
1.25316e-05
1.40529e-05
1.55574e-05
1.70362e-05
1.84827e-05
1.98937e-05
2.12694e-05
2.26136e-05
2.39338e-05
2.52415e-05
2.65524e-05
2.78863e-05
2.92672e-05
3.07239e-05
3.22901e-05
3.40043e-05
3.59109e-05
3.80604e-05
4.05099e-05
4.33239e-05
4.65747e-05
5.03435e-05
5.47211e-05
5.98082e-05
6.57163e-05
7.25683e-05
8.04988e-05
8.96542e-05
0.000100193
0.000112286
0.000126114
0.00014187
0.000159756
0.000179984
0.000202771
0.000228341
0.000256918
0.000288727
0.000323987
0.000362905
0.000405673
0.000452458
0.000503391
0.000558557
0.000617987
0.000681638
0.000749388
0.000821017
0.000896203
0.000974511
0.00105539
0.00113819
0.00122215
0.00130643
0.00139013
0.00147235
0.00155219
0.0016288
0.00170144
0.0017695
0.00183255
0.00189034
0.00194283
0.00199015
0.00203264
0.00207078
0.00210518
0.00213651
0.00216552
0.00219291
0.00221937
0.00224552
0.00227187
0.00229888
0.00232687
0.00235607
0.00238654
0.00241834
0.00245141