/*--------------------------------*- C++ -*----------------------------------*\
  =========                 |
  \\      /  F ield         | OpenFOAM: The Open Source CFD Toolbox
   \\    /   O peration     | Website:  https://openfoam.org
    \\  /    A nd           | Version:  12
     \\/     M anipulation  |
\*---------------------------------------------------------------------------*/
FoamFile
{
    format      ascii;
    class       volScalarField;
    location    "6";
    object      nut;
}
// * * * * * * * * * * * * * * * * * * * * * * * * * * * * * * * * * * * * * //

dimensions      [0 2 -1 0 0 0 0];

internalField   nonuniform List<scalar> 
18225
(
6.1602e-15
4.16911e-14
9.29424e-14
1.54178e-13
2.22746e-13
2.96956e-13
3.75534e-13
4.5742e-13
5.41686e-13
6.27504e-13
7.14133e-13
8.00924e-13
8.87331e-13
9.72924e-13
1.05741e-12
1.14063e-12
1.22261e-12
1.30356e-12
1.38385e-12
1.46409e-12
1.54508e-12
1.62788e-12
1.71377e-12
1.80428e-12
1.90122e-12
2.00669e-12
2.12307e-12
2.2531e-12
2.39983e-12
2.56671e-12
2.75756e-12
2.97663e-12
3.22861e-12
3.51863e-12
3.8523e-12
4.23571e-12
4.67542e-12
5.17849e-12
5.75243e-12
6.40519e-12
7.14515e-12
7.9811e-12
8.92215e-12
9.97774e-12
1.11576e-11
1.24716e-11
1.393e-11
1.5543e-11
1.73209e-11
1.92741e-11
2.14131e-11
2.37481e-11
2.62893e-11
2.90467e-11
3.20298e-11
3.52481e-11
3.87102e-11
4.24245e-11
4.63985e-11
5.06393e-11
5.5153e-11
5.99452e-11
6.50204e-11
7.03826e-11
7.6035e-11
8.19799e-11
8.8219e-11
9.47534e-11
1.01583e-10
1.08708e-10
1.16128e-10
1.2384e-10
1.31843e-10
1.40134e-10
1.48709e-10
1.57565e-10
1.66694e-10
1.76093e-10
1.85751e-10
1.95662e-10
2.05812e-10
2.1619e-10
2.26779e-10
2.37561e-10
2.48513e-10
2.59608e-10
2.70815e-10
2.82096e-10
2.93408e-10
3.047e-10
3.15911e-10
3.26973e-10
3.37806e-10
3.48319e-10
3.58408e-10
3.6796e-10
3.76847e-10
3.84924e-10
3.92029e-10
3.9799e-10
4.02617e-10
4.05565e-10
4.06814e-10
4.06702e-10
4.04472e-10
3.99992e-10
3.93194e-10
3.8403e-10
3.72491e-10
3.5862e-10
3.42526e-10
3.24391e-10
3.0447e-10
2.83084e-10
2.60614e-10
2.37481e-10
2.14128e-10
1.90996e-10
1.685e-10
1.4701e-10
1.26833e-10
1.082e-10
9.12606e-11
7.60887e-11
6.26844e-11
5.09873e-11
4.08887e-11
3.22478e-11
2.4901e-11
1.86806e-11
1.34264e-11
9.00127e-12
5.31327e-12
2.35758e-12
3.47713e-13
1.86251e-13
6.07126e-12
1.52645e-11
2.59696e-11
3.78483e-11
5.0658e-11
6.41981e-11
7.82949e-11
9.27928e-11
1.07551e-10
1.22444e-10
1.3736e-10
1.52204e-10
1.66903e-10
1.81405e-10
1.95684e-10
2.09743e-10
2.23616e-10
2.37369e-10
2.51104e-10
2.6496e-10
2.79117e-10
2.93793e-10
3.09252e-10
3.25804e-10
3.43807e-10
3.63671e-10
3.85862e-10
4.10904e-10
4.39386e-10
4.71964e-10
5.09364e-10
5.52388e-10
6.01915e-10
6.58904e-10
7.24399e-10
7.99521e-10
8.85478e-10
9.83553e-10
1.09511e-09
1.22157e-09
1.36445e-09
1.52529e-09
1.70571e-09
1.90736e-09
2.13193e-09
2.38114e-09
2.65672e-09
2.96043e-09
3.29402e-09
3.65924e-09
4.05782e-09
4.49147e-09
4.96183e-09
5.47052e-09
6.01905e-09
6.60888e-09
7.24134e-09
7.91765e-09
8.63892e-09
9.40611e-09
1.02201e-08
1.10814e-08
1.19908e-08
1.29486e-08
1.39551e-08
1.50104e-08
1.61147e-08
1.72677e-08
1.84695e-08
1.97196e-08
2.10178e-08
2.23635e-08
2.37563e-08
2.51955e-08
2.66803e-08
2.82099e-08
2.97832e-08
3.13991e-08
3.3056e-08
3.47524e-08
3.64863e-08
3.82553e-08
4.00565e-08
4.18867e-08
4.37418e-08
4.56171e-08
4.7507e-08
4.94048e-08
5.13027e-08
5.31913e-08
5.50598e-08
5.68956e-08
5.86841e-08
6.04087e-08
6.20507e-08
6.35891e-08
6.50002e-08
6.6256e-08
6.73274e-08
6.81742e-08
6.87316e-08
6.89938e-08
6.90497e-08
6.874e-08
6.80462e-08
6.69553e-08
6.5457e-08
6.35469e-08
6.12302e-08
5.85237e-08
5.54572e-08
5.20737e-08
4.84287e-08
4.45884e-08
4.06265e-08
3.66211e-08
3.26501e-08
2.87868e-08
2.50966e-08
2.16334e-08
1.84377e-08
1.55356e-08
1.29394e-08
1.06488e-08
8.65267e-09
6.93159e-09
5.45979e-09
4.20982e-09
3.15208e-09
2.25799e-09
1.50245e-09
8.66462e-10
3.41948e-10
1.05081e-11
3.95709e-13
3.25636e-11
1.04955e-10
1.90986e-10
2.85301e-10
3.86213e-10
4.92414e-10
6.02698e-10
7.15935e-10
8.31072e-10
9.47144e-10
1.06329e-09
1.17878e-09
1.29303e-09
1.40563e-09
1.51638e-09
1.62528e-09
1.73259e-09
1.83882e-09
1.94475e-09
2.05146e-09
2.16033e-09
2.27305e-09
2.39165e-09
2.51852e-09
2.65642e-09
2.80851e-09
2.97838e-09
3.17007e-09
3.38811e-09
3.63754e-09
3.92395e-09
4.2535e-09
4.63294e-09
5.06965e-09
5.57162e-09
6.14747e-09
6.80643e-09
7.55832e-09
8.41355e-09
9.38302e-09
1.04781e-08
1.17107e-08
1.30929e-08
1.46372e-08
1.63562e-08
1.82628e-08
2.03699e-08
2.26904e-08
2.52371e-08
2.80228e-08
3.10598e-08
3.43604e-08
3.79361e-08
4.1798e-08
4.59564e-08
5.04211e-08
5.52004e-08
6.03022e-08
6.57328e-08
7.14978e-08
7.76012e-08
8.40461e-08
9.08344e-08
9.79671e-08
1.05444e-07
1.13263e-07
1.21424e-07
1.29922e-07
1.38756e-07
1.47921e-07
1.57412e-07
1.67226e-07
1.77358e-07
1.87801e-07
1.9855e-07
2.096e-07
2.20944e-07
2.32574e-07
2.44484e-07
2.56665e-07
2.69105e-07
2.81793e-07
2.94715e-07
3.07853e-07
3.21186e-07
3.34689e-07
3.48329e-07
3.62069e-07
3.75863e-07
3.89654e-07
4.03375e-07
4.16945e-07
4.30268e-07
4.43233e-07
4.5571e-07
4.67552e-07
4.78591e-07
4.88627e-07
4.97436e-07
5.04804e-07
5.1007e-07
5.13079e-07
5.14915e-07
5.13977e-07
5.10145e-07
5.03292e-07
4.93295e-07
4.80075e-07
4.63626e-07
4.44039e-07
4.21514e-07
3.96364e-07
3.69012e-07
3.39976e-07
3.09847e-07
2.79254e-07
2.48833e-07
2.19186e-07
1.90846e-07
1.64256e-07
1.39745e-07
1.17522e-07
9.76846e-08
8.02241e-08
6.50471e-08
5.19937e-08
4.08574e-08
3.141e-08
2.34109e-08
1.66252e-08
1.08377e-08
5.88034e-09
1.82514e-09
2.22835e-11
6.474e-13
7.65347e-11
3.16321e-10
6.34816e-10
9.87866e-10
1.36388e-09
1.75768e-09
2.16518e-09
2.58255e-09
3.00612e-09
3.43246e-09
3.85847e-09
4.28147e-09
4.69929e-09
5.11043e-09
5.51406e-09
5.91019e-09
6.29971e-09
6.68442e-09
7.06716e-09
7.45179e-09
7.84329e-09
8.2478e-09
8.67264e-09
9.12643e-09
9.61912e-09
1.01621e-08
1.07683e-08
1.14522e-08
1.22301e-08
1.31201e-08
1.41421e-08
1.53183e-08
1.66728e-08
1.82318e-08
2.0024e-08
2.20798e-08
2.44321e-08
2.71155e-08
3.01668e-08
3.36242e-08
3.75274e-08
4.19176e-08
4.68366e-08
5.23271e-08
5.8432e-08
6.51944e-08
7.2657e-08
8.08621e-08
8.9851e-08
9.96638e-08
1.10339e-07
1.21913e-07
1.3442e-07
1.47891e-07
1.62354e-07
1.77833e-07
1.94348e-07
2.11916e-07
2.30546e-07
2.50247e-07
2.7102e-07
2.92863e-07
3.15771e-07
3.39733e-07
3.64737e-07
3.90766e-07
4.17805e-07
4.45832e-07
4.74829e-07
5.04779e-07
5.35663e-07
5.67463e-07
6.00162e-07
6.33744e-07
6.68198e-07
7.03513e-07
7.39679e-07
7.76689e-07
8.14537e-07
8.53216e-07
8.92719e-07
9.33035e-07
9.7415e-07
1.01604e-06
1.05868e-06
1.10203e-06
1.14603e-06
1.1906e-06
1.23564e-06
1.28102e-06
1.32656e-06
1.37203e-06
1.41718e-06
1.46166e-06
1.50508e-06
1.54698e-06
1.58681e-06
1.62395e-06
1.65768e-06
1.6876e-06
1.70971e-06
1.72511e-06
1.73744e-06
1.74042e-06
1.73355e-06
1.71626e-06
1.68796e-06
1.64819e-06
1.59673e-06
1.53374e-06
1.45978e-06
1.37586e-06
1.28339e-06
1.1842e-06
1.08042e-06
9.7434e-07
8.6833e-07
7.6464e-07
6.65291e-07
5.71959e-07
4.859e-07
4.07926e-07
3.38407e-07
2.77327e-07
2.24342e-07
1.7886e-07
1.40119e-07
1.07262e-07
7.93836e-08
5.55929e-08
3.50869e-08
1.74631e-08
4.2721e-09
3.6331e-11
9.33563e-13
1.29361e-10
6.44337e-10
1.43613e-09
2.3535e-09
3.33806e-09
4.36794e-09
5.43079e-09
6.51664e-09
7.61624e-09
8.72091e-09
9.82272e-09
1.09147e-08
1.19913e-08
1.30483e-08
1.40836e-08
1.5097e-08
1.60907e-08
1.70691e-08
1.80395e-08
1.90114e-08
1.99977e-08
2.10137e-08
2.20781e-08
2.32125e-08
2.44422e-08
2.57958e-08
2.73058e-08
2.90087e-08
3.09451e-08
3.31604e-08
3.57045e-08
3.86323e-08
4.20038e-08
4.58842e-08
5.03439e-08
5.54581e-08
6.13071e-08
6.79757e-08
7.55526e-08
8.41301e-08
9.38031e-08
1.04669e-07
1.16825e-07
1.3037e-07
1.45402e-07
1.62017e-07
1.80308e-07
2.00366e-07
2.22277e-07
2.46121e-07
2.71973e-07
2.99899e-07
3.29958e-07
3.622e-07
3.96663e-07
4.33377e-07
4.72357e-07
5.13608e-07
5.57123e-07
6.02885e-07
6.50867e-07
7.01029e-07
7.53327e-07
8.07709e-07
8.6412e-07
9.22501e-07
9.82792e-07
1.04493e-06
1.10888e-06
1.17459e-06
1.24202e-06
1.31116e-06
1.38196e-06
1.45444e-06
1.52858e-06
1.60441e-06
1.68194e-06
1.76122e-06
1.84228e-06
1.92518e-06
2.00995e-06
2.09666e-06
2.18534e-06
2.27604e-06
2.36877e-06
2.46351e-06
2.56025e-06
2.6589e-06
2.75932e-06
2.86132e-06
2.96456e-06
3.06864e-06
3.17301e-06
3.27697e-06
3.3797e-06
3.48012e-06
3.577e-06
3.66913e-06
3.75601e-06
3.83283e-06
3.8935e-06
3.93933e-06
3.97956e-06
3.99878e-06
3.9952e-06
3.96741e-06
3.91375e-06
3.83283e-06
3.72388e-06
3.58696e-06
3.42312e-06
3.23446e-06
3.02418e-06
2.79644e-06
2.55622e-06
2.30901e-06
2.06049e-06
1.81622e-06
1.58121e-06
1.35971e-06
1.15498e-06
9.6916e-07
8.03327e-07
6.57558e-07
5.31101e-07
4.22553e-07
3.30054e-07
2.51471e-07
1.84533e-07
1.27011e-07
7.71237e-08
3.50908e-08
7.18656e-09
5.21201e-11
1.24883e-12
1.8708e-10
1.05728e-09
2.59032e-09
4.48699e-09
6.56909e-09
8.75961e-09
1.10208e-08
1.33277e-08
1.56597e-08
1.7998e-08
2.03256e-08
2.26278e-08
2.48923e-08
2.71102e-08
2.92765e-08
3.13903e-08
3.34559e-08
3.54822e-08
3.74838e-08
3.94807e-08
4.14989e-08
4.35702e-08
4.57328e-08
4.80313e-08
5.05172e-08
5.3249e-08
5.62929e-08
5.97231e-08
6.3622e-08
6.8081e-08
7.3201e-08
7.9092e-08
8.58741e-08
9.3677e-08
1.0264e-07
1.12913e-07
1.24651e-07
1.38021e-07
1.53193e-07
1.70343e-07
1.89652e-07
2.11299e-07
2.35464e-07
2.62325e-07
2.92053e-07
3.24813e-07
3.60761e-07
4.0004e-07
4.4278e-07
4.89099e-07
5.39094e-07
5.92845e-07
6.50413e-07
7.11835e-07
7.77128e-07
8.46285e-07
9.19273e-07
9.96039e-07
1.07651e-06
1.1606e-06
1.2482e-06
1.33919e-06
1.43344e-06
1.53083e-06
1.63124e-06
1.73453e-06
1.8406e-06
1.94933e-06
2.06066e-06
2.17458e-06
2.29112e-06
2.4102e-06
2.53184e-06
2.65609e-06
2.78302e-06
2.91273e-06
3.04534e-06
3.181e-06
3.31988e-06
3.46214e-06
3.60797e-06
3.75756e-06
3.91109e-06
4.06873e-06
4.23062e-06
4.39686e-06
4.56749e-06
4.74248e-06
4.92171e-06
5.10511e-06
5.29204e-06
5.48173e-06
5.67324e-06
5.86532e-06
6.05646e-06
6.24466e-06
6.42738e-06
6.60433e-06
6.77229e-06
6.92002e-06
7.04275e-06
7.13662e-06
7.22114e-06
7.2692e-06
7.27523e-06
7.23696e-06
7.15168e-06
7.01683e-06
6.83059e-06
6.59279e-06
6.30502e-06
5.97077e-06
5.5955e-06
5.18644e-06
4.75238e-06
4.30313e-06
3.84904e-06
3.40033e-06
2.96647e-06
2.55559e-06
2.17413e-06
1.82654e-06
1.51525e-06
1.24078e-06
1.00199e-06
7.96455e-07
6.20778e-07
4.70917e-07
3.42539e-07
2.31492e-07
1.35213e-07
5.68519e-08
1.03285e-08
6.92388e-11
1.58982e-12
2.48447e-10
1.52622e-09
4.0404e-09
7.38157e-09
1.11755e-08
1.52214e-08
1.94164e-08
2.36995e-08
2.8026e-08
3.23583e-08
3.66634e-08
4.09126e-08
4.50824e-08
4.91554e-08
5.31213e-08
5.69778e-08
6.07314e-08
6.4398e-08
6.80033e-08
7.1583e-08
7.51835e-08
7.8862e-08
8.26867e-08
8.67373e-08
9.11054e-08
9.58951e-08
1.01224e-07
1.07222e-07
1.14035e-07
1.21822e-07
1.30761e-07
1.41041e-07
1.5287e-07
1.66472e-07
1.82084e-07
1.99959e-07
2.2036e-07
2.43564e-07
2.69851e-07
2.99509e-07
3.32825e-07
3.70083e-07
4.1156e-07
4.57522e-07
5.0822e-07
5.63883e-07
6.24719e-07
6.90909e-07
7.62604e-07
8.39922e-07
9.22948e-07
1.01173e-06
1.10628e-06
1.20657e-06
1.31254e-06
1.42408e-06
1.54106e-06
1.6633e-06
1.79062e-06
1.92286e-06
2.05977e-06
2.20113e-06
2.34672e-06
2.49632e-06
2.64975e-06
2.80684e-06
2.96744e-06
3.13141e-06
3.29871e-06
3.46932e-06
3.64321e-06
3.82053e-06
4.00139e-06
4.18599e-06
4.37453e-06
4.56728e-06
4.76453e-06
4.96664e-06
5.17395e-06
5.38687e-06
5.60579e-06
5.83112e-06
6.06324e-06
6.30252e-06
6.54925e-06
6.80368e-06
7.06592e-06
7.33594e-06
7.61353e-06
7.89803e-06
8.18888e-06
8.48504e-06
8.78495e-06
9.08655e-06
9.38752e-06
9.68444e-06
9.97301e-06
1.02533e-05
1.05176e-05
1.07505e-05
1.09485e-05
1.10983e-05
1.12289e-05
1.13097e-05
1.13238e-05
1.12694e-05
1.11426e-05
1.09397e-05
1.06585e-05
1.02987e-05
9.86268e-06
9.35544e-06
8.78483e-06
8.1613e-06
7.49757e-06
6.80804e-06
6.10803e-06
5.4129e-06
4.73716e-06
4.09364e-06
3.49277e-06
2.94212e-06
2.44623e-06
2.00668e-06
1.62237e-06
1.28996e-06
1.00434e-06
7.59236e-07
5.47834e-07
3.63937e-07
2.05246e-07
8.10232e-08
1.36052e-08
8.7379e-11
1.95446e-12
3.13111e-10
2.03317e-09
5.71722e-09
1.09528e-08
1.71366e-08
2.38615e-08
3.08968e-08
3.81047e-08
4.53916e-08
5.26848e-08
5.99232e-08
6.7055e-08
7.40379e-08
8.08403e-08
8.74427e-08
9.38394e-08
1.00039e-07
1.06067e-07
1.11963e-07
1.17786e-07
1.23611e-07
1.2953e-07
1.35654e-07
1.42111e-07
1.49051e-07
1.56639e-07
1.65063e-07
1.74532e-07
1.85277e-07
1.97551e-07
2.11629e-07
2.27812e-07
2.4642e-07
2.67799e-07
2.92312e-07
3.20343e-07
3.5229e-07
3.8856e-07
4.29567e-07
4.75726e-07
5.27444e-07
5.85115e-07
6.49113e-07
7.19785e-07
7.97442e-07
8.82358e-07
9.74762e-07
1.07483e-06
1.18269e-06
1.29841e-06
1.422e-06
1.55344e-06
1.69263e-06
1.83942e-06
1.9936e-06
2.15494e-06
2.32315e-06
2.49791e-06
2.67887e-06
2.86564e-06
3.05792e-06
3.25538e-06
3.45772e-06
3.66466e-06
3.87599e-06
4.09153e-06
4.31119e-06
4.53498e-06
4.76284e-06
4.9948e-06
5.23099e-06
5.47166e-06
5.71709e-06
5.96764e-06
6.2237e-06
6.48575e-06
6.7543e-06
7.02992e-06
7.31322e-06
7.60483e-06
7.9054e-06
8.21556e-06
8.53593e-06
8.86706e-06
9.20938e-06
9.56324e-06
9.92875e-06
1.03058e-05
1.0694e-05
1.10923e-05
1.14998e-05
1.19146e-05
1.23343e-05
1.27559e-05
1.31751e-05
1.35871e-05
1.39864e-05
1.43687e-05
1.47276e-05
1.50432e-05
1.53128e-05
1.55099e-05
1.56688e-05
1.57709e-05
1.57781e-05
1.56909e-05
1.55058e-05
1.52187e-05
1.48272e-05
1.43316e-05
1.37348e-05
1.30436e-05
1.22679e-05
1.14208e-05
1.05184e-05
9.57915e-06
8.62257e-06
7.66873e-06
6.73686e-06
5.84436e-06
5.00582e-06
4.23235e-06
3.53112e-06
2.90536e-06
2.35455e-06
1.87488e-06
1.45985e-06
1.10105e-06
7.89169e-07
5.16476e-07
2.82876e-07
1.0646e-07
1.69723e-08
1.06303e-10
2.34154e-12
3.80997e-10
2.56882e-09
7.56275e-09
1.50843e-08
2.43307e-08
3.46231e-08
4.55235e-08
5.67606e-08
6.81511e-08
7.95587e-08
9.0875e-08
1.0201e-07
1.12892e-07
1.23465e-07
1.33696e-07
1.43572e-07
1.53101e-07
1.6232e-07
1.71289e-07
1.80094e-07
1.88847e-07
1.97689e-07
2.06784e-07
2.16327e-07
2.26538e-07
2.37667e-07
2.49992e-07
2.63821e-07
2.79494e-07
2.9738e-07
3.17881e-07
3.41428e-07
3.68484e-07
3.99538e-07
4.35104e-07
4.75716e-07
5.21925e-07
5.74286e-07
6.33355e-07
6.99677e-07
7.7378e-07
8.56157e-07
9.47264e-07
1.0475e-06
1.15722e-06
1.2767e-06
1.40614e-06
1.54568e-06
1.69535e-06
1.85514e-06
2.02491e-06
2.20449e-06
2.39361e-06
2.59196e-06
2.79917e-06
3.01482e-06
3.23846e-06
3.46963e-06
3.70787e-06
3.95267e-06
4.2036e-06
4.46027e-06
4.72234e-06
4.9895e-06
5.26157e-06
5.53839e-06
5.81994e-06
6.10628e-06
6.39745e-06
6.69363e-06
6.99509e-06
7.30221e-06
7.61545e-06
7.93536e-06
8.26254e-06
8.59767e-06
8.94152e-06
9.2949e-06
9.65867e-06
1.00337e-05
1.0421e-05
1.08213e-05
1.12354e-05
1.16641e-05
1.21077e-05
1.25668e-05
1.30411e-05
1.35303e-05
1.40335e-05
1.45493e-05
1.50755e-05
1.56095e-05
1.61475e-05
1.66848e-05
1.72157e-05
1.77336e-05
1.82311e-05
1.87006e-05
1.91306e-05
1.95122e-05
1.98299e-05
2.00542e-05
2.02104e-05
2.03108e-05
2.02891e-05
2.01483e-05
1.98869e-05
1.95015e-05
1.89902e-05
1.83535e-05
1.75956e-05
1.67242e-05
1.57508e-05
1.46906e-05
1.35619e-05
1.23861e-05
1.11859e-05
9.98499e-06
8.80653e-06
7.67183e-06
6.59927e-06
5.60338e-06
4.69415e-06
3.87683e-06
3.15197e-06
2.51583e-06
1.96097e-06
1.47724e-06
1.0534e-06
6.81153e-07
3.64551e-07
1.32468e-07
2.04016e-08
1.25825e-10
2.7504e-12
4.5212e-10
3.12892e-09
9.53623e-09
1.96622e-08
3.25858e-08
4.73274e-08
6.31702e-08
7.96348e-08
9.63954e-08
1.13215e-07
1.29907e-07
1.4632e-07
1.62335e-07
1.77863e-07
1.92844e-07
2.07252e-07
2.21096e-07
2.34421e-07
2.4731e-07
2.59885e-07
2.72303e-07
2.84762e-07
2.97498e-07
3.10783e-07
3.2493e-07
3.40289e-07
3.5725e-07
3.76241e-07
3.97733e-07
4.22234e-07
4.50293e-07
4.82498e-07
5.19471e-07
5.61866e-07
6.10363e-07
6.65662e-07
7.28474e-07
7.99507e-07
8.79461e-07
9.69007e-07
1.06878e-06
1.17935e-06
1.30124e-06
1.43487e-06
1.58058e-06
1.7386e-06
1.90909e-06
2.09205e-06
2.28742e-06
2.49502e-06
2.71458e-06
2.94574e-06
3.18804e-06
3.44099e-06
3.70403e-06
3.97659e-06
4.25806e-06
4.54785e-06
4.84536e-06
5.15002e-06
5.46132e-06
5.77884e-06
6.10222e-06
6.43117e-06
6.76551e-06
7.10517e-06
7.45016e-06
7.80061e-06
8.15668e-06
8.51867e-06
8.88698e-06
9.26214e-06
9.64478e-06
1.00356e-05
1.04355e-05
1.08453e-05
1.12661e-05
1.16988e-05
1.21448e-05
1.2605e-05
1.30806e-05
1.35726e-05
1.40821e-05
1.46095e-05
1.51554e-05
1.57197e-05
1.63021e-05
1.69016e-05
1.75164e-05
1.81441e-05
1.87815e-05
1.94243e-05
2.00673e-05
2.07039e-05
2.13269e-05
2.19278e-05
2.24974e-05
2.30256e-05
2.35001e-05
2.39092e-05
2.42427e-05
2.44715e-05
2.45914e-05
2.46612e-05
2.45896e-05
2.43767e-05
2.40254e-05
2.35338e-05
2.29006e-05
2.2127e-05
2.12176e-05
2.0181e-05
1.90294e-05
1.77788e-05
1.64493e-05
1.50636e-05
1.36467e-05
1.22247e-05
1.08237e-05
9.46814e-06
8.17954e-06
6.97552e-06
5.86879e-06
4.86673e-06
3.97126e-06
3.17909e-06
2.48235e-06
1.86967e-06
1.32854e-06
8.51228e-07
4.47682e-07
1.58629e-07
2.38723e-08
1.45798e-10
3.18082e-12
5.26537e-10
3.71195e-09
1.16124e-08
2.4594e-08
4.17221e-08
6.17315e-08
8.35738e-08
1.06492e-07
1.29951e-07
1.53559e-07
1.77016e-07
2.00085e-07
2.22575e-07
2.44341e-07
2.65287e-07
2.85365e-07
3.04577e-07
3.22976e-07
3.40671e-07
3.57821e-07
3.7464e-07
3.91395e-07
4.08401e-07
4.26029e-07
4.44698e-07
4.64877e-07
4.87089e-07
5.11902e-07
5.39938e-07
5.71867e-07
6.08403e-07
6.50308e-07
6.98379e-07
7.53449e-07
8.16377e-07
8.88035e-07
9.69298e-07
1.06103e-06
1.16406e-06
1.27917e-06
1.40708e-06
1.54844e-06
1.70378e-06
1.87352e-06
2.05796e-06
2.25727e-06
2.47148e-06
2.70048e-06
2.94406e-06
3.20185e-06
3.4734e-06
3.75817e-06
4.05552e-06
4.36478e-06
4.68522e-06
5.01611e-06
5.35672e-06
5.70633e-06
6.06426e-06
6.42987e-06
6.80261e-06
7.18202e-06
7.56771e-06
7.95943e-06
8.35701e-06
8.76038e-06
9.16962e-06
9.5849e-06
1.00065e-05
1.04347e-05
1.08701e-05
1.13134e-05
1.17654e-05
1.2227e-05
1.26992e-05
1.31831e-05
1.36802e-05
1.41916e-05
1.47188e-05
1.52631e-05
1.58258e-05
1.6408e-05
1.70107e-05
1.76342e-05
1.82786e-05
1.89434e-05
1.96274e-05
2.03287e-05
2.10445e-05
2.17709e-05
2.25032e-05
2.32355e-05
2.39605e-05
2.46709e-05
2.53572e-05
2.60098e-05
2.6618e-05
2.71704e-05
2.76548e-05
2.80594e-05
2.83734e-05
2.85691e-05
2.86393e-05
2.86452e-05
2.85104e-05
2.82136e-05
2.77657e-05
2.71675e-05
2.6418e-05
2.55188e-05
2.4475e-05
2.32949e-05
2.19909e-05
2.05793e-05
1.90803e-05
1.75174e-05
1.59166e-05
1.43057e-05
1.27125e-05
1.11639e-05
9.68418e-06
8.29346e-06
7.00701e-06
5.83429e-06
4.7787e-06
3.8377e-06
3.00332e-06
2.26344e-06
1.60493e-06
1.0216e-06
5.30516e-07
1.8469e-07
2.73686e-08
1.66112e-10
3.6329e-12
6.0434e-10
4.31781e-09
1.37772e-08
2.98126e-08
5.15794e-08
7.75785e-08
1.06402e-07
1.36954e-07
1.68429e-07
2.00225e-07
2.31878e-07
2.63023e-07
2.93372e-07
3.22708e-07
3.50877e-07
3.77799e-07
4.0346e-07
4.2792e-07
4.5131e-07
4.73833e-07
4.95763e-07
5.17444e-07
5.3929e-07
5.61779e-07
5.85454e-07
6.10922e-07
6.38854e-07
6.69981e-07
7.05091e-07
7.45033e-07
7.90708e-07
8.43062e-07
9.03086e-07
9.71802e-07
1.05025e-06
1.13948e-06
1.24053e-06
1.35441e-06
1.48207e-06
1.62441e-06
1.78221e-06
1.95614e-06
2.14675e-06
2.35443e-06
2.57943e-06
2.82179e-06
3.08144e-06
3.35813e-06
3.65144e-06
3.96086e-06
4.28575e-06
4.62538e-06
4.97893e-06
5.34557e-06
5.72442e-06
6.11461e-06
6.51528e-06
6.92561e-06
7.34484e-06
7.77226e-06
8.20725e-06
8.64931e-06
9.09802e-06
9.55309e-06
1.00143e-05
1.04817e-05
1.09552e-05
1.1435e-05
1.19215e-05
1.24152e-05
1.29166e-05
1.34266e-05
1.39462e-05
1.44765e-05
1.50189e-05
1.55746e-05
1.61454e-05
1.67327e-05
1.73381e-05
1.79633e-05
1.86093e-05
1.92774e-05
1.99681e-05
2.06816e-05
2.1417e-05
2.21731e-05
2.29475e-05
2.37367e-05
2.45349e-05
2.53392e-05
2.61433e-05
2.69399e-05
2.772e-05
2.84737e-05
2.91912e-05
2.98617e-05
3.04738e-05
3.10163e-05
3.14771e-05
3.1846e-05
3.21112e-05
3.22587e-05
3.22463e-05
3.2169e-05
3.19684e-05
3.15835e-05
3.10392e-05
3.03399e-05
2.94853e-05
2.84768e-05
2.73191e-05
2.60205e-05
2.45924e-05
2.30505e-05
2.14147e-05
1.97081e-05
1.79571e-05
1.61901e-05
1.44361e-05
1.27238e-05
1.10794e-05
9.52558e-06
8.07981e-06
6.75358e-06
5.55186e-06
4.47298e-06
3.50911e-06
2.64775e-06
1.87563e-06
1.18874e-06
6.11935e-07
2.10499e-07
3.08797e-08
1.86691e-10
4.10701e-12
6.85643e-10
4.94715e-09
1.60244e-08
3.52731e-08
6.20308e-08
9.46331e-08
1.31307e-07
1.70582e-07
2.11319e-07
2.52648e-07
2.93894e-07
3.34524e-07
3.74119e-07
4.12358e-07
4.49014e-07
4.83954e-07
5.17141e-07
5.48631e-07
5.7858e-07
6.07235e-07
6.34935e-07
6.62113e-07
6.89284e-07
7.17052e-07
7.46097e-07
7.77183e-07
8.11145e-07
8.48892e-07
8.91403e-07
9.39719e-07
9.9494e-07
1.05822e-06
1.13074e-06
1.21373e-06
1.30841e-06
1.41602e-06
1.53775e-06
1.67475e-06
1.82809e-06
1.99875e-06
2.18758e-06
2.39527e-06
2.62236e-06
2.86919e-06
3.13592e-06
3.42251e-06
3.72873e-06
4.05417e-06
4.39827e-06
4.76032e-06
5.13951e-06
5.53492e-06
5.94559e-06
6.3705e-06
6.80865e-06
7.25901e-06
7.72062e-06
8.19252e-06
8.67386e-06
9.16382e-06
9.6617e-06
1.01669e-05
1.06789e-05
1.11974e-05
1.1722e-05
1.22527e-05
1.27895e-05
1.33325e-05
1.38822e-05
1.44391e-05
1.5004e-05
1.55778e-05
1.61618e-05
1.67573e-05
1.7366e-05
1.79897e-05
1.863e-05
1.92889e-05
1.9968e-05
2.0669e-05
2.13929e-05
2.21404e-05
2.29117e-05
2.37064e-05
2.45221e-05
2.53541e-05
2.61999e-05
2.70575e-05
2.79225e-05
2.87849e-05
2.96367e-05
3.04689e-05
3.12724e-05
3.20369e-05
3.27521e-05
3.34075e-05
3.39924e-05
3.4496e-05
3.49075e-05
3.52155e-05
3.54118e-05
3.54886e-05
3.53967e-05
3.52017e-05
3.49371e-05
3.44737e-05
3.38381e-05
3.30475e-05
3.21017e-05
3.10018e-05
2.9752e-05
2.83597e-05
2.6835e-05
2.51925e-05
2.34507e-05
2.16322e-05
1.97626e-05
1.78702e-05
1.59849e-05
1.41364e-05
1.23528e-05
1.06586e-05
9.07367e-06
7.61138e-06
6.27834e-06
5.0739e-06
3.99057e-06
3.01569e-06
2.13616e-06
1.35046e-06
6.91292e-07
2.35978e-07
3.43995e-08
2.07489e-10
4.60375e-12
7.70587e-10
5.60107e-09
1.83527e-08
4.09495e-08
7.29853e-08
1.127e-07
1.57972e-07
2.06932e-07
2.58063e-07
3.10172e-07
3.62323e-07
4.13774e-07
4.63937e-07
5.12359e-07
5.58714e-07
6.02801e-07
6.44545e-07
6.83992e-07
7.21314e-07
7.56802e-07
7.90867e-07
8.2403e-07
8.56925e-07
8.90289e-07
9.24956e-07
9.61858e-07
1.00201e-06
1.04653e-06
1.09659e-06
1.15344e-06
1.2184e-06
1.29284e-06
1.37815e-06
1.47576e-06
1.5871e-06
1.71357e-06
1.85653e-06
2.01726e-06
2.19696e-06
2.39667e-06
2.6173e-06
2.85955e-06
3.12394e-06
3.41077e-06
3.72009e-06
4.05175e-06
4.4054e-06
4.78046e-06
5.17622e-06
5.59179e-06
6.02617e-06
6.47828e-06
6.94699e-06
7.43113e-06
7.92951e-06
8.44098e-06
8.96439e-06
9.49868e-06
1.00428e-05
1.05958e-05
1.11569e-05
1.17253e-05
1.23003e-05
1.28814e-05
1.34683e-05
1.40607e-05
1.46587e-05
1.52623e-05
1.58721e-05
1.64887e-05
1.71131e-05
1.77464e-05
1.83903e-05
1.90465e-05
1.97168e-05
2.04034e-05
2.11083e-05
2.18335e-05
2.25807e-05
2.33516e-05
2.41462e-05
2.49653e-05
2.58077e-05
2.66675e-05
2.75455e-05
2.84421e-05
2.935e-05
3.02607e-05
3.11666e-05
3.20595e-05
3.29303e-05
3.37694e-05
3.45671e-05
3.53131e-05
3.59976e-05
3.66106e-05
3.71425e-05
3.75839e-05
3.79262e-05
3.81609e-05
3.82793e-05
3.82721e-05
3.8096e-05
3.77903e-05
3.74287e-05
3.69066e-05
3.61933e-05
3.53226e-05
3.43004e-05
3.31266e-05
3.18051e-05
3.0342e-05
2.87458e-05
2.70292e-05
2.52092e-05
2.33068e-05
2.13466e-05
1.93564e-05
1.73661e-05
1.54061e-05
1.35058e-05
1.16918e-05
9.98595e-06
8.40372e-06
6.95341e-06
5.63554e-06
4.44315e-06
3.3636e-06
2.3841e-06
1.50559e-06
7.68279e-07
2.61103e-07
3.79263e-08
2.28488e-10
5.12392e-12
8.59335e-10
6.28095e-09
2.07639e-08
4.68295e-08
8.43842e-08
1.3163e-07
1.86129e-07
2.45603e-07
3.0812e-07
3.72123e-07
4.3637e-07
4.99864e-07
5.61814e-07
6.21605e-07
6.78788e-07
7.33072e-07
7.84329e-07
8.32584e-07
8.78019e-07
9.20969e-07
9.61913e-07
1.00147e-06
1.0404e-06
1.07958e-06
1.12002e-06
1.16282e-06
1.20922e-06
1.26051e-06
1.31812e-06
1.38352e-06
1.45825e-06
1.54391e-06
1.64212e-06
1.75451e-06
1.88271e-06
2.02832e-06
2.19285e-06
2.37772e-06
2.58423e-06
2.81351e-06
3.0665e-06
3.34394e-06
3.64629e-06
3.97381e-06
4.32647e-06
4.704e-06
5.10591e-06
5.53147e-06
5.9798e-06
6.44983e-06
6.94039e-06
7.45023e-06
7.97801e-06
8.52239e-06
9.082e-06
9.65549e-06
1.02415e-05
1.08388e-05
1.14462e-05
1.20624e-05
1.26865e-05
1.33173e-05
1.39542e-05
1.45963e-05
1.52433e-05
1.58947e-05
1.65505e-05
1.7211e-05
1.78766e-05
1.85482e-05
1.92271e-05
1.99148e-05
2.06132e-05
2.13246e-05
2.20512e-05
2.27953e-05
2.35593e-05
2.43451e-05
2.51542e-05
2.59884e-05
2.68461e-05
2.77213e-05
2.8617e-05
2.95384e-05
3.04763e-05
3.14213e-05
3.23674e-05
3.33068e-05
3.42306e-05
3.51297e-05
3.59943e-05
3.68148e-05
3.75815e-05
3.82849e-05
3.89159e-05
3.9466e-05
3.99267e-05
4.02906e-05
4.05503e-05
4.06992e-05
4.07313e-05
4.06414e-05
4.03946e-05
3.99916e-05
3.95339e-05
3.89181e-05
3.81566e-05
3.72182e-05
3.6133e-05
3.4901e-05
3.35253e-05
3.20112e-05
3.03647e-05
2.85965e-05
2.67218e-05
2.47597e-05
2.2733e-05
2.06685e-05
1.85957e-05
1.65454e-05
1.4548e-05
1.26319e-05
1.0821e-05
9.13283e-06
7.57768e-06
6.1574e-06
4.86574e-06
3.69028e-06
2.61855e-06
1.65372e-06
8.42836e-07
2.85891e-07
4.14631e-08
2.49697e-10
5.66848e-12
9.52075e-10
6.98839e-09
2.32619e-08
5.29111e-08
9.61952e-08
1.5132e-07
2.15574e-07
2.86261e-07
3.61016e-07
4.37882e-07
5.15269e-07
5.91892e-07
6.66719e-07
7.38943e-07
8.07967e-07
8.73392e-07
9.35018e-07
9.9284e-07
1.04704e-06
1.098e-06
1.14626e-06
1.19254e-06
1.23773e-06
1.28287e-06
1.32913e-06
1.37783e-06
1.43041e-06
1.48841e-06
1.55348e-06
1.62733e-06
1.71175e-06
1.80859e-06
1.91969e-06
2.04692e-06
2.1921e-06
2.35701e-06
2.54335e-06
2.75266e-06
2.98636e-06
3.24566e-06
3.53155e-06
3.84474e-06
4.18572e-06
4.55466e-06
4.95145e-06
5.37571e-06
5.82679e-06
6.30384e-06
6.80577e-06
7.33136e-06
7.87922e-06
8.4479e-06
9.03587e-06
9.64154e-06
1.02633e-05
1.08997e-05
1.15489e-05
1.22096e-05
1.28801e-05
1.3559e-05
1.42451e-05
1.4937e-05
1.56336e-05
1.63341e-05
1.70379e-05
1.77444e-05
1.84537e-05
1.9166e-05
1.98821e-05
2.06033e-05
2.1331e-05
2.20673e-05
2.28146e-05
2.35755e-05
2.43529e-05
2.51492e-05
2.59668e-05
2.68077e-05
2.76719e-05
2.85583e-05
2.94612e-05
3.0392e-05
3.13454e-05
3.23126e-05
3.32892e-05
3.42636e-05
3.52292e-05
3.61772e-05
3.70978e-05
3.79816e-05
3.88188e-05
3.96e-05
4.03163e-05
4.09592e-05
4.15211e-05
4.19947e-05
4.23733e-05
4.26509e-05
4.28218e-05
4.2881e-05
4.28236e-05
4.26445e-05
4.23265e-05
4.18451e-05
4.13005e-05
4.06233e-05
3.97845e-05
3.88004e-05
3.76597e-05
3.63819e-05
3.49658e-05
3.34163e-05
3.17367e-05
2.99352e-05
2.80249e-05
2.60226e-05
2.39494e-05
2.18303e-05
1.9694e-05
1.75711e-05
1.54931e-05
1.34897e-05
1.15869e-05
9.80465e-06
8.15513e-06
6.64188e-06
5.25961e-06
3.99628e-06
2.83974e-06
1.79504e-06
9.15081e-07
3.10393e-07
4.50165e-08
2.71148e-10
6.23858e-12
1.04902e-09
7.72513e-09
2.5852e-08
5.91996e-08
1.08405e-07
1.71709e-07
2.46164e-07
3.28651e-07
4.16364e-07
5.06918e-07
5.98344e-07
6.89033e-07
7.77684e-07
8.63269e-07
9.45019e-07
1.02241e-06
1.09515e-06
1.16319e-06
1.22672e-06
1.28613e-06
1.34205e-06
1.39531e-06
1.44691e-06
1.49808e-06
1.55016e-06
1.6047e-06
1.66335e-06
1.72792e-06
1.80029e-06
1.88245e-06
1.97645e-06
2.08438e-06
2.20833e-06
2.35041e-06
2.51266e-06
2.69704e-06
2.90542e-06
3.13949e-06
3.40079e-06
3.69059e-06
4.00992e-06
4.35955e-06
4.73989e-06
5.15108e-06
5.59291e-06
6.06489e-06
6.56623e-06
7.09589e-06
7.65261e-06
8.23495e-06
8.84132e-06
9.47003e-06
1.01193e-05
1.07872e-05
1.1472e-05
1.21717e-05
1.28843e-05
1.36081e-05
1.43412e-05
1.50817e-05
1.5828e-05
1.65785e-05
1.73318e-05
1.8087e-05
1.88431e-05
1.95999e-05
2.03572e-05
2.11157e-05
2.18765e-05
2.2641e-05
2.34116e-05
2.41906e-05
2.49812e-05
2.57863e-05
2.66092e-05
2.74528e-05
2.83188e-05
2.92101e-05
3.01091e-05
3.10442e-05
3.20057e-05
3.29821e-05
3.39718e-05
3.4969e-05
3.59709e-05
3.69589e-05
3.79271e-05
3.88661e-05
3.9766e-05
4.06173e-05
4.14108e-05
4.21379e-05
4.27908e-05
4.33623e-05
4.3846e-05
4.42363e-05
4.45281e-05
4.47167e-05
4.47978e-05
4.47676e-05
4.46229e-05
4.43591e-05
4.39708e-05
4.34179e-05
4.27781e-05
4.20473e-05
4.11525e-05
4.01348e-05
3.89584e-05
3.76279e-05
3.61808e-05
3.46073e-05
3.29071e-05
3.10859e-05
2.91546e-05
2.71278e-05
2.50239e-05
2.28662e-05
2.06818e-05
1.85012e-05
1.63561e-05
1.42777e-05
1.22939e-05
1.0427e-05
8.69164e-06
7.09315e-06
5.62752e-06
4.2833e-06
3.04868e-06
1.93011e-06
9.85243e-07
3.34686e-07
4.85963e-08
2.92894e-10
6.83549e-12
1.15039e-09
8.49309e-09
2.85407e-08
6.5705e-08
1.21016e-07
1.9277e-07
2.77811e-07
3.72595e-07
4.73873e-07
5.78812e-07
6.85038e-07
7.90589e-07
8.93868e-07
9.93604e-07
1.08883e-06
1.17888e-06
1.26336e-06
1.34217e-06
1.41548e-06
1.48371e-06
1.54757e-06
1.60797e-06
1.66609e-06
1.72329e-06
1.78114e-06
1.84141e-06
1.90599e-06
1.97696e-06
2.05648e-06
2.1468e-06
2.25025e-06
2.3692e-06
2.50599e-06
2.66297e-06
2.84241e-06
3.04647e-06
3.27718e-06
3.53641e-06
3.82578e-06
4.14666e-06
4.50014e-06
4.88697e-06
5.30756e-06
5.76198e-06
6.24992e-06
6.77077e-06
7.32357e-06
7.9071e-06
8.5199e-06
9.16027e-06
9.82638e-06
1.05162e-05
1.12277e-05
1.19587e-05
1.2707e-05
1.34701e-05
1.42459e-05
1.50321e-05
1.58262e-05
1.66263e-05
1.74301e-05
1.82358e-05
1.90418e-05
1.98469e-05
2.06502e-05
2.14514e-05
2.22508e-05
2.30493e-05
2.38484e-05
2.46502e-05
2.54577e-05
2.62739e-05
2.71025e-05
2.79471e-05
2.88108e-05
2.96975e-05
3.05994e-05
3.15281e-05
3.24784e-05
3.34622e-05
3.44624e-05
3.54749e-05
3.6491e-05
3.7501e-05
3.85182e-05
3.95066e-05
4.04633e-05
4.13795e-05
4.22456e-05
4.30526e-05
4.3792e-05
4.44564e-05
4.50392e-05
4.55344e-05
4.59371e-05
4.62429e-05
4.64481e-05
4.65495e-05
4.65436e-05
4.64271e-05
4.61972e-05
4.58523e-05
4.53914e-05
4.47802e-05
4.40543e-05
4.32703e-05
4.23268e-05
4.1244e-05
4.00671e-05
3.87198e-05
3.72272e-05
3.56315e-05
3.39189e-05
3.20872e-05
3.01453e-05
2.81054e-05
2.59829e-05
2.3799e-05
2.15792e-05
1.93529e-05
1.71518e-05
1.50084e-05
1.29523e-05
1.10085e-05
9.19391e-06
7.51626e-06
5.97308e-06
4.55374e-06
3.24682e-06
2.05971e-06
1.05365e-06
3.58868e-07
5.2215e-08
3.15002e-10
7.46064e-12
1.25645e-09
9.2943e-09
3.13348e-08
7.24413e-08
1.34044e-07
2.14503e-07
3.10473e-07
4.17988e-07
5.33349e-07
6.53263e-07
7.74929e-07
8.96011e-07
1.01459e-06
1.12914e-06
1.23847e-06
1.34175e-06
1.43849e-06
1.5285e-06
1.61195e-06
1.68929e-06
1.76127e-06
1.82893e-06
1.89359e-06
1.9568e-06
2.02034e-06
2.08621e-06
2.15658e-06
2.23379e-06
2.32031e-06
2.41867e-06
2.5315e-06
2.66143e-06
2.81111e-06
2.98311e-06
3.17994e-06