/*--------------------------------*- C++ -*----------------------------------*\
  =========                 |
  \\      /  F ield         | OpenFOAM: The Open Source CFD Toolbox
   \\    /   O peration     | Website:  https://openfoam.org
    \\  /    A nd           | Version:  12
     \\/     M anipulation  |
\*---------------------------------------------------------------------------*/
FoamFile
{
    format      ascii;
    class       surfaceScalarField;
    location    "6";
    object      phi;
}
// * * * * * * * * * * * * * * * * * * * * * * * * * * * * * * * * * * * * * //

dimensions      [0 3 -1 0 0 0 0];

internalField   nonuniform List<scalar> 
36180
(
-4.66776e-11
4.88184e-11
-7.83439e-11
3.15881e-11
-5.21331e-11
-2.62738e-11
4.36809e-11
-9.58403e-11
2.07482e-10
-1.63804e-10
4.33255e-10
-2.25767e-10
7.13212e-10
-2.79952e-10
1.039e-09
-3.25785e-10
1.40221e-09
-3.63214e-10
1.79464e-09
-3.92434e-10
2.20842e-09
-4.13789e-10
2.63612e-09
-4.27717e-10
3.07084e-09
-4.34733e-10
3.50625e-09
-4.35417e-10
3.93665e-09
-4.30398e-10
4.35699e-09
-4.2035e-10
4.76296e-09
-4.05969e-10
5.15094e-09
-3.87976e-10
5.51803e-09
-3.67086e-10
5.86205e-09
-3.44007e-10
6.18147e-09
-3.19423e-10
6.47547e-09
-2.93986e-10
6.74377e-09
-2.68302e-10
6.9867e-09
-2.42923e-10
7.20504e-09
-2.18343e-10
7.40003e-09
-1.94996e-10
7.57328e-09
-1.73248e-10
7.72667e-09
-1.53394e-10
7.86233e-09
-1.35665e-10
7.98255e-09
-1.20215e-10
8.08967e-09
-1.07121e-10
8.18605e-09
-9.63818e-11
8.27397e-09
-8.79199e-11
8.35555e-09
-8.15802e-11
8.43268e-09
-7.7132e-11
8.50695e-09
-7.42697e-11
8.57956e-09
-7.26143e-11
8.65127e-09
-7.17132e-11
8.72233e-09
-7.10548e-11
8.79242e-09
-7.00891e-11
8.86055e-09
-6.81302e-11
8.92514e-09
-6.45877e-11
8.98379e-09
-5.86566e-11
9.0335e-09
-4.97034e-11
9.07039e-09
-3.68934e-11
9.08991e-09
-1.95213e-11
9.0867e-09
3.21757e-12
9.05466e-09
3.20335e-11
8.98697e-09
6.76902e-11
8.87604e-09
1.10934e-10
8.71354e-09
1.62499e-10
8.49042e-09
2.23125e-10
8.19686e-09
2.93559e-10
7.8223e-09
3.74564e-10
7.35534e-09
4.66957e-10
6.78381e-09
5.71529e-10
6.09473e-09
6.89077e-10
5.27415e-09
8.20582e-10
4.30741e-09
9.66742e-10
3.17889e-09
1.12852e-09
1.87222e-09
1.30667e-09
3.70197e-10
1.50202e-09
-1.34495e-09
1.71514e-09
-3.29153e-09
1.94659e-09
-5.4882e-09
2.19667e-09
-7.95355e-09
2.46535e-09
-1.07059e-08
2.75236e-09
-1.37631e-08
3.0572e-09
-1.7142e-08
3.37891e-09
-2.08582e-08
3.71615e-09
-2.49253e-08
4.06713e-09
-2.93549e-08
4.42961e-09
-3.41558e-08
4.80086e-09
-3.93334e-08
5.17767e-09
-4.48898e-08
5.55637e-09
-5.08226e-08
5.93281e-09
-5.71251e-08
6.30245e-09
-6.37854e-08
6.66033e-09
-7.07866e-08
7.00118e-09
-7.8106e-08
7.31943e-09
-8.57153e-08
7.60931e-09
-9.35802e-08
7.86488e-09
-1.0166e-07
8.08012e-09
-1.09909e-07
8.24898e-09
-1.18275e-07
8.36544e-09
-1.26698e-07
8.42357e-09
-1.35116e-07
8.41756e-09
-1.43458e-07
8.34183e-09
-1.51649e-07
8.19102e-09
-1.59609e-07
7.96008e-09
-1.67253e-07
7.64434e-09
-1.74493e-07
7.23963e-09
-1.81235e-07
6.74231e-09
-1.87385e-07
6.14951e-09
-1.92844e-07
5.45918e-09
-1.97513e-07
4.66936e-09
-2.01286e-07
3.77248e-09
-2.04066e-07
2.77991e-09
-2.05786e-07
1.72029e-09
-2.06343e-07
5.57527e-10
-2.0565e-07
-6.92992e-10
-2.03652e-07
-1.99823e-09
-2.00293e-07
-3.35862e-09
-1.95543e-07
-4.7508e-09
-1.89393e-07
-6.14995e-09
-1.81863e-07
-7.53e-09
-1.73001e-07
-8.86172e-09
-1.62889e-07
-1.01124e-08
-1.51641e-07
-1.12474e-08
-1.3941e-07
-1.22313e-08
-1.2638e-07
-1.303e-08
-1.12767e-07
-1.36125e-08
-9.88144e-08
-1.3953e-08
-8.47814e-08
-1.4033e-08
-7.09381e-08
-1.38433e-08
-5.75529e-08
-1.33852e-08
-4.48812e-08
-1.26717e-08
-3.31539e-08
-1.17273e-08
-2.2567e-08
-1.05868e-08
-1.32732e-08
-9.29384e-09
-5.37551e-09
-7.89767e-09
1.07481e-09
-6.45032e-09
6.07797e-09
-5.00316e-09
9.68063e-09
-3.60266e-09
1.19703e-08
-2.28968e-09
1.30667e-08
-1.09641e-09
1.3113e-08
-4.62219e-11
1.22687e-08
8.44229e-10
1.07085e-08
1.56027e-09
8.61867e-09
2.08978e-09
6.21402e-09
2.40465e-09
3.75803e-09
2.45599e-09
1.59468e-09
2.16336e-09
2.00851e-10
1.39383e-09
2.00852e-10
-7.90323e-11
1.27737e-10
-1.01374e-10
5.38005e-11
2.64263e-11
-1.54158e-10
3.33027e-10
-4.02475e-10
8.19295e-10
-6.50075e-10
1.47243e-09
-8.78894e-10
2.27356e-09
-1.08107e-09
3.2012e-09
-1.25343e-09
4.23305e-09
-1.39506e-09
5.34687e-09
-1.50626e-09
6.52108e-09
-1.58801e-09
7.73514e-09
-1.64179e-09
8.96979e-09
-1.6694e-09
1.02073e-08
-1.67295e-09
1.14317e-08
-1.65477e-09
1.26287e-08
-1.61735e-09
1.3786e-08
-1.56331e-09
1.48934e-08
-1.49534e-09
1.59424e-08
-1.41613e-09
1.69268e-08
-1.32835e-09
1.7842e-08
-1.23458e-09
1.86853e-08
-1.13726e-09
1.94557e-08
-1.03869e-09
2.01537e-08
-9.40957e-10
2.07813e-08
-8.4592e-10
2.13415e-08
-7.55213e-10
2.18384e-08
-6.70218e-10
2.22771e-08
-5.9206e-10
2.2663e-08
-5.21595e-10
2.30022e-08
-4.59394e-10
2.33008e-08
-4.05729e-10
2.3565e-08
-3.60575e-10
2.38007e-08
-3.23606e-10
2.40133e-08
-2.942e-10
2.42076e-08
-2.71439e-10
2.43875e-08
-2.54117e-10
2.45556e-08
-2.4074e-10
2.47134e-08
-2.29537e-10
2.48609e-08
-2.18503e-10
2.49962e-08
-2.05447e-10
2.51159e-08
-1.87764e-10
2.52143e-08
-1.63027e-10
2.52839e-08
-1.28226e-10
2.53149e-08
-8.07102e-11
2.52953e-08
-1.73465e-11
2.52111e-08
6.47574e-11
2.50456e-08
1.68649e-10
2.47804e-08
2.97269e-10
2.43945e-08
4.53584e-10
2.38649e-08
6.40552e-10
2.31663e-08
8.61096e-10
2.22713e-08
1.11814e-09
2.11502e-08
1.41463e-09
1.97712e-08
1.75356e-09
1.81001e-08
2.13803e-09
1.61006e-08
2.57111e-09
1.37338e-08
3.05583e-09
1.09588e-08
3.59558e-09
7.73235e-09
4.1932e-09
4.00903e-09
4.85184e-09
-2.5833e-10
5.57403e-09
-5.119e-09
6.3627e-09
-1.06238e-08
7.21997e-09
-1.68239e-08
8.14664e-09
-2.37699e-08
9.14273e-09
-3.15124e-08
1.02078e-08
-4.01002e-08
1.13401e-08
-4.95795e-08
1.25365e-08
-5.99929e-08
1.37923e-08
-7.13777e-08
1.5101e-08
-8.37654e-08
1.64548e-08
-9.71796e-08
1.78438e-08
-1.11635e-07
1.92563e-08
-1.27136e-07
2.0679e-08
-1.43677e-07
2.20968e-08
-1.61237e-07
2.3493e-08
-1.79784e-07
2.48493e-08
-1.9927e-07
2.61464e-08
-2.19633e-07
2.73639e-08
-2.40794e-07
2.84804e-08
-2.62659e-07
2.94742e-08
-2.85117e-07
3.03232e-08
-3.08042e-07
3.10055e-08
-3.31292e-07
3.14991e-08
-3.5471e-07
3.17829e-08
-3.78122e-07
3.18361e-08
-4.01344e-07
3.1639e-08
-4.24175e-07
3.11728e-08
-4.46404e-07
3.04201e-08
-4.67809e-07
2.9365e-08
-4.88158e-07
2.79932e-08
-5.0721e-07
2.62923e-08
-5.24721e-07
2.42527e-08
-5.40438e-07
2.18672e-08
-5.54111e-07
1.91321e-08
-5.65488e-07
1.60459e-08
-5.74319e-07
1.26037e-08
-5.8034e-07
8.80072e-09
-5.83373e-07
4.75375e-09
-5.83211e-07
3.95544e-10
-5.79681e-07
-4.22333e-09
-5.72614e-07
-9.06515e-09
-5.61916e-07
-1.40566e-08
-5.47537e-07
-1.913e-08
-5.29488e-07
-2.41988e-08
-5.07848e-07
-2.91698e-08
-4.82769e-07
-3.39407e-08
-4.54483e-07
-3.83984e-08
-4.23307e-07
-4.24238e-08
-3.89641e-07
-4.58968e-08
-3.5397e-07
-4.87014e-08
-3.16849e-07
-5.0733e-08
-2.78898e-07
-5.19041e-08
-2.40779e-07
-5.21521e-08
-2.03177e-07
-5.14453e-08
-1.66775e-07
-4.97876e-08
-1.32225e-07
-4.72217e-08
-1.00123e-07
-4.38294e-08
-7.09813e-08
-3.97283e-08
-4.52087e-08
-3.50664e-08
-2.30928e-08
-3.00136e-08
-4.79267e-09
-2.47504e-08
9.66187e-09
-1.94577e-08
2.03633e-08
-1.43041e-08
2.75126e-08
-9.43895e-09
3.14005e-08
-4.98432e-09
3.23901e-08
-1.03582e-09
3.09007e-08
2.33364e-09
2.73985e-08
5.06249e-09
2.23963e-08
7.09192e-09
1.64857e-08
8.31529e-09
1.03692e-08
8.57243e-09
4.91385e-09
7.61874e-09
1.17012e-09
5.13756e-09
1.37097e-09
-6.77134e-11
1.95522e-10
-2.67699e-11
1.28328e-11
2.40397e-10
-4.21358e-10
7.75266e-10
-9.37357e-10
1.58169e-09
-1.4565e-09
2.64322e-09
-1.94042e-09
3.9331e-09
-2.37094e-09
5.41958e-09
-2.73991e-09
7.06893e-09
-3.04442e-09
8.84705e-09
-3.28439e-09
1.07205e-08
-3.4615e-09
1.26573e-08
-3.57862e-09
1.46274e-08
-3.63945e-09
1.66028e-08
-3.64838e-09
1.85583e-08
-3.61028e-09
2.04714e-08
-3.53047e-09
2.23226e-08
-3.41449e-09
2.40953e-08
-3.26808e-09
2.57762e-08
-3.09699e-09
2.73548e-08
-2.90692e-09
2.88236e-08
-2.70338e-09
3.0178e-08
-2.49165e-09
3.14159e-08
-2.27664e-09
3.25378e-08
-2.06286e-09
3.35462e-08
-1.85432e-09
3.44456e-08
-1.65457e-09
3.52419e-08
-1.46656e-09
3.59426e-08
-1.29271e-09
3.65558e-08
-1.13485e-09
3.70906e-08
-9.94157e-10
3.75561e-08
-8.71188e-10
3.79613e-08
-7.65841e-10
3.83151e-08
-6.77361e-10
3.86252e-08
-6.04342e-10
3.88985e-08
-5.44729e-10
3.91402e-08
-4.95828e-10
3.93538e-08
-4.54321e-10
3.95405e-08
-4.16279e-10
3.96993e-08
-3.77253e-10
3.98262e-08
-3.32363e-10
3.99143e-08
-2.75909e-10
3.99537e-08
-2.02391e-10
3.99308e-08
-1.05315e-10
3.98287e-08
2.14122e-11
3.96267e-08
1.84595e-10
3.93008e-08
3.90724e-10
3.88229e-08
6.46527e-10
3.81615e-08
9.58637e-10
3.72814e-08
1.33368e-09
3.61438e-08
1.77823e-09
3.4706e-08
2.29884e-09
3.29221e-08
2.90201e-09
3.07425e-08
3.59429e-09
2.81138e-08
4.38226e-09
2.49791e-08
5.2727e-09
2.1278e-08
6.27219e-09
1.69463e-08
7.38752e-09
1.1917e-08
8.62492e-09
6.11935e-09
9.99085e-09
-5.20784e-10
1.1492e-08
-8.08085e-09
1.31341e-08
-1.66394e-08
1.49213e-08
-2.62757e-08
1.68563e-08
-3.70696e-08
1.89405e-08
-4.91003e-08
2.11735e-08
-6.24448e-08
2.35523e-08
-7.7176e-08
2.60714e-08
-9.33614e-08
2.87219e-08
-1.11061e-07
3.14917e-08
-1.30325e-07
3.43649e-08
-1.51192e-07
3.73219e-08
-1.73687e-07
4.03391e-08
-1.9782e-07
4.33893e-08
-2.23582e-07
4.64414e-08
-2.50946e-07
4.94607e-08
-2.79863e-07
5.24093e-08
-3.1026e-07
5.52467e-08
-3.42043e-07
5.79298e-08
-3.75094e-07
6.0414e-08
-4.09266e-07
6.26532e-08
-4.44393e-07
6.46011e-08
-4.80281e-07
6.62111e-08
-5.16713e-07
6.74374e-08
-5.53449e-07
6.82355e-08
-5.90229e-07
6.85623e-08
-6.2677e-07
6.83769e-08
-6.62772e-07
6.76409e-08
-6.97918e-07
6.63188e-08
-7.31876e-07
6.43783e-08
-7.64301e-07
6.17907e-08
-7.9484e-07
5.85315e-08
-8.23128e-07
5.45807e-08
-8.48799e-07
4.99239e-08
-8.71485e-07
4.45526e-08
-8.90818e-07
3.84656e-08
-9.06442e-07
3.16691e-08
-9.18013e-07
2.41751e-08
-9.25151e-07
1.59389e-08
-9.27626e-07
7.22837e-09
-9.25176e-07
-2.05396e-09
-9.17535e-07
-1.18643e-08
-9.04538e-07
-2.20628e-08
-8.86074e-07
-3.25201e-08
-8.62109e-07
-4.30953e-08
-8.32696e-07
-5.36118e-08
-7.97986e-07
-6.388e-08
-7.58233e-07
-7.36937e-08
-7.13803e-07
-8.28279e-08
-6.6518e-07
-9.10467e-08
-6.12964e-07
-9.8113e-08
-5.57866e-07
-1.03799e-07
-5.00701e-07
-1.07898e-07
-4.42366e-07
-1.10239e-07
-3.83822e-07
-1.10697e-07
-3.26059e-07
-1.09208e-07
-2.7007e-07
-1.05777e-07
-2.16807e-07
-1.00485e-07
-1.67147e-07
-9.3489e-08
-1.21856e-07
-8.50196e-08
-8.15543e-08
-7.53679e-08
-4.66964e-08
-6.48715e-08
-1.7553e-08
-5.38939e-08
5.79193e-09
-4.28026e-08
2.34351e-08
-3.19473e-08
3.56381e-08
-2.16419e-08
4.28055e-08
-1.21517e-08
4.54599e-08
-3.69016e-09
4.4223e-08
3.57052e-09
3.97984e-08
9.48708e-09
3.29758e-08
1.39145e-08
2.46598e-08
1.66314e-08
1.59032e-08
1.7329e-08
7.95154e-09
1.55704e-08
2.21796e-09
1.08711e-08
3.58893e-09
-3.06199e-11
2.26094e-10
1.10753e-10
-1.28606e-10
5.46513e-10
-8.57168e-10
1.3243e-09
-1.71516e-09
2.44997e-09
-2.58216e-09
3.90471e-09
-3.39515e-09
5.65604e-09
-4.12225e-09
7.66424e-09
-4.74811e-09
9.88627e-09
-5.26645e-09
1.22781e-08
-5.67618e-09
1.47961e-08
-5.97953e-09
1.73983e-08
-6.18088e-09
2.00451e-08
-6.28626e-09
2.26996e-08
-6.30289e-09
2.53283e-08
-6.23896e-09
2.79012e-08
-6.10335e-09
3.03921e-08
-5.90544e-09
3.27789e-08
-5.6549e-09
3.50434e-08
-5.36149e-09
3.71714e-08
-5.03488e-09
3.91525e-08
-4.68444e-09
4.098e-08
-4.31912e-09
4.26506e-08
-3.94731e-09
4.41645e-08
-3.5767e-09
4.55243e-08
-3.21416e-09
4.67355e-08
-2.86571e-09
4.78053e-08
-2.53643e-09
4.8743e-08
-2.23041e-09
4.95589e-08
-1.9507e-09
5.0264e-08
-1.69928e-09
5.08699e-08
-1.47704e-09
5.13877e-08
-1.28371e-09
5.18283e-08
-1.11793e-09
5.22011e-08
-9.77165e-10
5.25142e-08
-8.57781e-10
5.27734e-08
-7.55024e-10
5.29821e-08
-6.63052e-10
5.31408e-08
-5.74968e-10
5.32465e-08
-4.82962e-10
5.32926e-08
-3.78423e-10
5.32681e-08
-2.51495e-10
5.3158e-08
-9.22891e-11
5.29424e-08
1.10348e-10
5.25965e-08
3.67339e-10
5.20907e-08
6.904e-10
5.13903e-08
1.09112e-09
5.04555e-08
1.58129e-09
4.92415e-08
2.17265e-09
4.76983e-08
2.87689e-09
4.57709e-08
3.70561e-09
4.33994e-08
4.67035e-09
4.05188e-08
5.78255e-09
3.70594e-08
7.0537e-09
3.29464e-08
8.49525e-09
2.81002e-08
1.01189e-08
2.24368e-08
1.19356e-08
1.58676e-08
1.39567e-08
8.29935e-09
1.61932e-08
-3.66452e-10
1.86567e-08
-1.02307e-08
2.13562e-08
-2.13964e-08
2.42998e-08
-3.39689e-08
2.74938e-08
-4.80541e-08
3.09415e-08
-6.37571e-08
3.46435e-08
-8.11803e-08
3.85966e-08
-1.00421e-07
4.27932e-08
-1.2157e-07
4.72206e-08
-1.44709e-07
5.18605e-08
-1.69906e-07
5.66884e-08
-1.97215e-07
6.16736e-08
-2.26671e-07
6.67787e-08
-2.58292e-07
7.19597e-08
-2.92068e-07
7.71659e-08
-3.27968e-07
8.23406e-08
-3.65928e-07
8.74215e-08
-4.0586e-07
9.2341e-08
-4.47641e-07
9.70276e-08
-4.91117e-07
1.01406e-07
-5.36103e-07
1.054e-07
-5.82381e-07
1.08931e-07
-6.29701e-07
1.11921e-07
-6.77782e-07
1.14292e-07
-7.26315e-07
1.15971e-07
-7.74965e-07
1.16885e-07
-8.2337e-07
1.16968e-07
-8.71147e-07
1.16154e-07
-9.17893e-07
1.14387e-07
-9.63188e-07
1.11614e-07
-1.0066e-06
1.07789e-07
-1.04768e-06
1.02872e-07
-1.08598e-06
9.68335e-08
-1.12105e-06
8.96484e-08
-1.15243e-06
8.13029e-08
-1.17967e-06
7.17935e-08
-1.20233e-06
6.11281e-08
-1.21999e-06
4.93274e-08
-1.23224e-06
3.64222e-08
-1.23872e-06
2.24241e-08
-1.23909e-06
7.59097e-09
-1.23305e-06
-8.09054e-09
-1.22038e-06
-2.45376e-08
-1.2009e-06
-4.15374e-08
-1.17454e-06
-5.88859e-08
-1.14128e-06
-7.63507e-08
-1.10124e-06
-9.36482e-08
-1.05465e-06
-1.10473e-07
-1.00185e-06
-1.26496e-07
-9.43313e-07
-1.41363e-07
-8.79657e-07
-1.54703e-07
-8.11627e-07
-1.66142e-07
-7.40102e-07
-1.75325e-07
-6.66075e-07
-1.81925e-07
-5.9064e-07
-1.85673e-07
-5.14967e-07
-1.8637e-07
-4.40264e-07
-1.83911e-07
-3.67745e-07
-1.78296e-07
-2.98583e-07
-1.69646e-07
-2.33871e-07
-1.58201e-07
-1.74573e-07
-1.44317e-07
-1.21491e-07
-1.2845e-07
-7.5229e-08
-1.11134e-07
-3.61718e-08
-9.2951e-08
-4.47768e-09
-7.44967e-08
1.99213e-08
-5.63462e-08
3.73041e-08
-3.90248e-08
4.81393e-08
-2.29869e-08
5.30586e-08
-8.60942e-09
5.28319e-08
3.79717e-09
4.83504e-08
1.39686e-08
4.06306e-08
2.16343e-08
3.08254e-08
2.64365e-08
2.02606e-08
2.78939e-08
1.04596e-08
2.53714e-08
3.11543e-09
1.82153e-08
6.70435e-09
2.16281e-11
2.04518e-10
2.87843e-10
-3.94818e-10
9.12994e-10
-1.48232e-09
1.94458e-09
-2.74674e-09
3.38833e-09
-4.0259e-09
5.22331e-09
-5.23011e-09
7.41255e-09
-6.31148e-09
9.91003e-09
-7.24559e-09
1.26651e-08
-8.02152e-09
1.56253e-08
-8.63645e-09
1.87386e-08
-9.09279e-09
2.19542e-08
-9.39652e-09
2.52241e-08
-9.55619e-09
2.85035e-08
-9.58232e-09
3.17515e-08
-9.48696e-09
3.49314e-08
-9.28325e-09
3.80111e-08
-8.98512e-09
4.09632e-08
-8.607e-09
4.37651e-08
-8.16342e-09
4.63991e-08
-7.66882e-09
4.88519e-08
-7.13723e-09
5.11149e-08
-6.58207e-09
5.31834e-08
-6.01588e-09
5.50569e-08
-5.4502e-09
5.67381e-08
-4.89536e-09
5.82328e-08
-4.36038e-09
5.95492e-08
-3.85286e-09
6.06977e-08
-3.3789e-09
6.169e-08
-2.94303e-09
6.25389e-08
-2.54815e-09
6.32573e-08
-2.19546e-09
6.38581e-08
-1.88447e-09
6.43531e-08
-1.61296e-09
6.47529e-08
-1.37695e-09
6.50659e-08
-1.17079e-09
6.52979e-08
-9.87074e-10
6.54517e-08
-8.16767e-10
6.55259e-08
-6.49201e-10
6.55153e-08
-4.72365e-10
6.54097e-08
-2.72798e-10
6.51937e-08
-3.5489e-11
6.48463e-08
2.55078e-10
6.43409e-08
6.15796e-10
6.36444e-08
1.06383e-09
6.27177e-08
1.61711e-09
6.15151e-08
2.29366e-09
5.99847e-08
3.11175e-09
5.80677e-08
4.08957e-09
5.56994e-08
5.24525e-09
5.28082e-08
6.59677e-09
4.93166e-08
8.16198e-09
4.51405e-08
9.95859e-09
4.019e-08
1.20042e-08
3.43689e-08
1.43164e-08
2.75756e-08
1.69122e-08
1.97023e-08
1.98088e-08
1.06355e-08
2.30235e-08
2.56693e-10
2.6572e-08
-1.15563e-08
3.04696e-08
-2.49292e-08
3.47292e-08
-3.99906e-08
3.93612e-08
-5.68696e-08
4.43727e-08
-7.56947e-08
4.97666e-08
-9.65916e-08
5.55404e-08
-1.19681e-07
6.16856e-08
-1.45074e-07
6.81864e-08
-1.72872e-07
7.50191e-08
-2.03163e-07
8.21509e-08
-2.36014e-07
8.95396e-08
-2.71473e-07
9.71332e-08
-3.09564e-07
1.04869e-07
-3.50281e-07
1.12676e-07
-3.93587e-07
1.20472e-07
-4.39412e-07
1.28166e-07
-4.87651e-07
1.3566e-07
-5.38158e-07
1.42849e-07
-5.90753e-07
1.49622e-07
-6.45212e-07
1.55866e-07
-7.01276e-07
1.61464e-07
-7.58645e-07
1.663e-07
-8.16985e-07
1.70261e-07
-8.75928e-07
1.73235e-07
-9.35072e-07
1.75116e-07
-9.93991e-07
1.75804e-07
-1.05223e-06
1.75208e-07
-1.10932e-06
1.73242e-07
-1.16477e-06
1.69833e-07
-1.21806e-06
1.64913e-07
-1.2687e-06
1.58429e-07
-1.31617e-06
1.50336e-07
-1.35994e-06
1.40601e-07
-1.39949e-06
1.29206e-07
-1.43433e-06
1.16144e-07
-1.46397e-06
1.01424e-07
-1.48791e-06
8.50721e-08
-1.50572e-06
6.71335e-08
-1.51696e-06
4.76714e-08
-1.5213e-06
2.67596e-08
-1.51836e-06
4.64639e-09
-1.50786e-06
-1.85886e-08
-1.4896e-06
-4.27928e-08
-1.46346e-06
-6.7683e-08
-1.42937e-06
-9.29715e-08
-1.3874e-06
-1.18326e-07
-1.3377e-06
-1.43348e-07
-1.28056e-06
-1.67607e-07
-1.21641e-06
-1.90644e-07
-1.14581e-06
-2.11966e-07
-1.06946e-06
-2.31058e-07
-9.88195e-07
-2.47403e-07
-9.03012e-07
-2.60508e-07
-8.15018e-07
-2.69919e-07
-7.25434e-07
-2.75258e-07
-6.35562e-07
-2.76242e-07
-5.46759e-07
-2.72714e-07
-4.60391e-07
-2.64665e-07
-3.77791e-07
-2.52246e-07
-3.00214e-07
-2.35779e-07
-2.28784e-07
-2.15746e-07
-1.64456e-07
-1.92778e-07
-1.07971e-07
-1.67619e-07
-5.98321e-08
-1.4109e-07
-2.02863e-08
-1.14043e-07
1.06786e-08
-8.73111e-08
3.33242e-08
-6.16704e-08
4.81419e-08
-3.78046e-08
5.58274e-08
-1.62949e-08
5.72543e-08
2.37028e-09
5.34561e-08
1.77668e-08
4.56227e-08
2.94677e-08
3.5104e-08
3.69552e-08
2.3436e-08
3.95618e-08
1.2358e-08
3.64494e-08
3.80702e-09
2.67662e-08
1.05114e-08
8.19604e-11
1.22523e-10
4.88264e-10
-8.01162e-10
1.31643e-09
-2.31051e-09
2.60869e-09
-4.039e-09
4.36834e-09
-5.78554e-09
6.57176e-09
-7.43352e-09
9.17813e-09
-8.91784e-09
1.21362e-08
-1.02036e-08
1.53889e-08
-1.12743e-08
1.8877e-08
-1.21245e-08
2.25408e-08
-1.27566e-08
2.63222e-08
-1.3178e-08
3.01659e-08
-1.33999e-08
3.402e-08
-1.34365e-08
3.78371e-08
-1.33041e-08
4.15745e-08
-1.30207e-08
4.51948e-08
-1.26053e-08
4.86657e-08
-1.20779e-08
5.19607e-08
-1.14584e-08
5.50586e-08
-1.07667e-08
5.79437e-08
-1.00222e-08
6.0605e-08
-9.24344e-09
6.30368e-08
-8.44768e-09
6.52375e-08
-7.65089e-09
6.72095e-08
-6.86735e-09
6.89587e-08
-6.10954e-09
7.04938e-08
-5.38793e-09
7.18258e-08
-4.7109e-09
7.29674e-08
-4.08463e-09
7.39322e-08
-3.51301e-09
7.47343e-08
-2.99757e-09
7.53873e-08
-2.53743e-09
7.59036e-08
-2.1293e-09
7.62941e-08
-1.76743e-09
7.6567e-08
-1.44365e-09
7.67273e-08
-1.14738e-09
7.67762e-08
-8.65693e-10
7.67104e-08
-5.83423e-10
7.65215e-08
-2.83393e-10
7.6195e-08
5.36903e-11
7.57106e-08
4.48923e-10
7.5041e-08
9.24654e-10
7.4152e-08
1.50475e-09
7.3002e-08
2.21382e-09
7.15418e-08
3.07734e-09
6.97144e-08
4.12109e-09
6.7455e-08
5.37111e-09
6.46912e-08
6.85341e-09
6.13426e-08
8.59389e-09
5.73211e-08
1.06182e-08
5.25313e-08
1.29518e-08
4.68702e-08
1.56197e-08
4.02274e-08
1.8647e-08
3.24858e-08
2.2058e-08
2.35212e-08
2.58768e-08
1.32028e-08
3.01273e-08
1.39406e-09
3.48322e-08
-1.20467e-08
4.00128e-08
-2.72654e-08
4.56883e-08
-4.4411e-08
5.18748e-08
-6.36338e-08
5.8584e-08
-8.50837e-08
6.58227e-08
-1.08908e-07
7.35906e-08
-1.35247e-07
8.18797e-08
-1.64234e-07
9.06726e-08
-1.95989e-07
9.99413e-08
-2.30615e-07
1.09646e-07
-2.68198e-07
1.19733e-07
-3.08795e-07
1.30137e-07
-3.52437e-07
1.40776e-07
-3.99125e-07
1.51557e-07
-4.4882e-07
1.62371e-07
-5.01446e-07
1.73098e-07
-5.56884e-07
1.83604e-07
-6.14973e-07
1.93749e-07
-6.75505e-07
2.03381e-07
-7.38227e-07
2.12344e-07
-8.02842e-07
2.2048e-07
-8.69008e-07
2.2763e-07
-9.36345e-07
2.33636e-07
-1.00443e-06
2.38346e-07
-1.07281e-06
2.41615e-07
-1.141e-06
2.43306e-07
-1.20849e-06
2.43293e-07
-1.27474e-06
2.41463e-07
-1.33922e-06
2.37716e-07
-1.40135e-06
2.31965e-07
-1.46058e-06
2.2414e-07
-1.51633e-06
2.14183e-07
-1.56805e-06
2.02053e-07
-1.61517e-06
1.87727e-07
-1.65716e-06
1.71196e-07
-1.69349e-06
1.52473e-07
-1.72366e-06
1.31588e-07
-1.74718e-06
1.08594e-07
-1.76361e-06
8.35699e-08
-1.77256e-06
5.66207e-08
-1.77368e-06
2.78797e-08
-1.76664e-06
-2.39358e-09
-1.7512e-06
-3.40329e-08
-1.72719e-06
-6.6802e-08
-1.69453e-06
-1.00347e-07
-1.65321e-06
-1.34292e-07
-1.60333e-06
-1.68203e-07
-1.54511e-06
-2.01568e-07
-1.47889e-06
-2.3383e-07
-1.40513e-06
-2.64398e-07
-1.32446e-06
-2.92641e-07
-1.23761e-06
-3.17899e-07
-1.14551e-06
-3.39511e-07
-1.04918e-06
-3.56839e-07
-9.49795e-07
-3.693e-07
-8.48654e-07
-3.76399e-07
-7.47137e-07
-3.77759e-07
-6.46687e-07
-3.73164e-07
-5.48772e-07
-3.62579e-07
-4.5484e-07
-3.46178e-07
-3.66267e-07
-3.24352e-07
-2.84309e-07
-2.97705e-07
-2.1005e-07
-2.67037e-07
-1.44362e-07
-2.33307e-07
-8.78654e-08
-1.97586e-07
-4.09087e-08
-1.60999e-07
-3.55564e-09
-1.24664e-07
2.44097e-08
-8.96357e-08
4.34681e-08
-5.6863e-08
5.43421e-08
-2.7169e-08
5.79697e-08
-1.25729e-09
5.54861e-08
2.02504e-08
4.82098e-08
3.67439e-08
3.76424e-08
4.75227e-08
2.54834e-08
5.17208e-08
1.3647e-08
4.82859e-08
4.28736e-09
3.61258e-08
1.47987e-08
1.4595e-10
-2.34082e-11
7.005e-10
-1.3557e-09
1.73937e-09
-3.34937e-09
3.2955e-09
-5.59511e-09
5.3674e-09
-7.85741e-09
7.92798e-09
-9.99408e-09
1.09326e-08
-1.19224e-08
1.43254e-08
-1.35964e-08
1.80441e-08
-1.49929e-08
2.20232e-08
-1.61037e-08
2.61969e-08
-1.69303e-08
3.05006e-08
-1.74817e-08
3.48726e-08
-1.77719e-08
3.92549e-08
-1.78188e-08
4.35943e-08
-1.76434e-08
4.78427e-08
-1.72691e-08
5.19578e-08
-1.67205e-08
5.59033e-08
-1.60234e-08
5.96488e-08
-1.52039e-08
6.31701e-08
-1.4288e-08
6.64488e-08
-1.33009e-08
6.94722e-08
-1.22668e-08
7.22328e-08
-1.12083e-08
7.47281e-08
-1.01462e-08
7.696e-08
-9.09924e-09
7.8934e-08
-8.08363e-09
8.06591e-08
-7.11302e-09
8.21465e-08
-6.19829e-09
8.34093e-08
-5.3474e-09
8.44615e-08
-4.56525e-09
8.53176e-08
-3.85366e-09
8.59914e-08
-3.21121e-09
8.64954e-08
-2.63329e-09
8.68399e-08
-2.11199e-09
8.70325e-08
-1.63621e-09
8.70767e-08
-1.19158e-09
8.69717e-08
-7.60664e-10
8.67112e-08
-3.22994e-10
8.62832e-08
1.44662e-10
8.56686e-08
6.68283e-10
8.48413e-08
1.27619e-09
8.37674e-08
1.9986e-09
8.24045e-08
2.86758e-09
8.0702e-08
3.91637e-09
7.86001e-08
5.17925e-09
7.60301e-08
6.69105e-09
7.29143e-08
8.48688e-09
6.91659e-08
1.06019e-08
6.46889e-08
1.30709e-08
5.93785e-08
1.59286e-08
5.31212e-08
1.92091e-08
4.57949e-08
2.2946e-08
3.72692e-08
2.71726e-08
2.7406e-08
3.19212e-08
1.60595e-08
3.72234e-08
3.07688e-09
4.31099e-08
-1.17005e-08
4.96096e-08
-2.84365e-08
5.67488e-08
-4.72985e-08
6.45503e-08
-6.84559e-08
7.30322e-08
-9.20781e-08
8.22062e-08
-1.18332e-07
9.20761e-08
-1.47377e-07
1.02636e-07
-1.79366e-07
1.13869e-07
-2.14437e-07
1.25743e-07
-2.5271e-07
1.38214e-07
-2.94284e-07
1.5122e-07
-3.39231e-07
1.6468e-07
-3.87592e-07
1.78497e-07
-4.39369e-07
1.92554e-07
-4.94528e-07
2.06716e-07
-5.52988e-07
2.20831e-07
-6.14621e-07
2.34731e-07
-6.79251e-07
2.48234e-07
-7.46649e-07
2.61147e-07
-8.16536e-07
2.73268e-07
-8.88584e-07
2.84392e-07
-9.62414e-07
2.9431e-07
-1.0376e-06
3.02819e-07
-1.11369e-06
3.09719e-07
-1.19016e-06
3.1482e-07
-1.26649e-06
3.17945e-07
-1.34212e-06
3.18933e-07
-1.41646e-06
3.17635e-07
-1.48892e-06
3.13927e-07
-1.5589e-06
3.07698e-07
-1.6258e-06
2.9886e-07
-1.689e-06
2.87345e-07
-1.74793e-06
2.73103e-07
-1.80198e-06
2.56109e-07
-1.85061e-06
2.36354e-07
-1.89327e-06
2.13854e-07
-1.92944e-06
1.88645e-07
-1.95864e-06
1.6079e-07
-1.98042e-06
1.30376e-07
-1.99438e-06
9.75223e-08
-2.00014e-06
6.23798e-08
-1.99739e-06
2.51393e-08
-1.98588e-06
-1.39125e-08
-1.96538e-06
-5.4528e-08
-1.93579e-06
-9.63885e-08
-1.89707e-06
-1.3907e-07
-1.84925e-06
-1.82109e-07
-1.79248e-06
-2.24972e-07
-1.72701e-06
-2.67044e-07
-1.6532e-06
-3.07643e-07
-1.57154e-06
-3.46049e-07
-1.48269e-06
-3.81498e-07
-1.3874e-06
-4.1319e-07
-1.28659e-06
-4.40319e-07
-1.18132e-06
-4.62106e-07
-1.07279e-06
-4.7783e-07
-9.62315e-07
-4.86874e-07
-8.51315e-07
-4.8876e-07
-7.41283e-07
-4.83196e-07
-6.3375e-07
-4.70111e-07
-5.30244e-07
-4.49685e-07
-4.32234e-07
-4.22362e-07
-3.41082e-07
-3.88856e-07
-2.57993e-07
-3.50127e-07
-1.83957e-07
-3.07343e-07
-1.19714e-07
-2.61829e-07
-6.5722e-08
-2.14991e-07
-2.21361e-08
-1.6825e-07
1.11923e-08
-1.22964e-07
3.47068e-08
-8.03776e-08
4.91268e-08
-4.15889e-08
5.5422e-08
-7.55255e-09
5.47919e-08
2.08805e-08
4.86474e-08
4.28884e-08
3.86048e-08
5.75653e-08
2.64917e-08
6.38339e-08
1.43661e-08
6.04115e-08
4.57114e-09
4.59208e-08
1.93699e-08
2.10618e-10
-2.34066e-10
9.16436e-10
-2.06155e-09
2.16892e-09
-4.60187e-09
3.98878e-09
-7.41496e-09
6.36777e-09
-1.02364e-08
9.27426e-09
-1.29006e-08
1.26596e-08
-1.53078e-08
1.64637e-08
-1.74005e-08
2.06194e-08
-1.91486e-08
2.50561e-08
-2.05404e-08
2.97026e-08
-2.15768e-08
3.44887e-08
-2.22678e-08
3.9347e-08
-2.26302e-08
4.42142e-08
-2.2686e-08
4.9032e-08
-2.24613e-08
5.37477e-08
-2.19847e-08
5.83145e-08
-2.12873e-08
6.26924e-08
-2.04013e-08
6.68476e-08
-1.93591e-08
7.07529e-08
-1.81933e-08
7.43876e-08
-1.69356e-08
7.77371e-08
-1.56162e-08
8.07923e-08
-1.42635e-08
8.35498e-08
-1.29036e-08
8.60104e-08
-1.15599e-08
8.81795e-08
-1.02527e-08
9.00654e-08
-8.99896e-09
9.16794e-08
-7.81232e-09
9.30346e-08
-6.70255e-09
9.41449e-08
-5.6756e-09
9.50247e-08
-4.73343e-09
9.56874e-08
-3.87394e-09
9.6145e-08
-3.0909e-09
9.6407e-08
-2.37391e-09
9.64792e-08
-1.70842e-09
9.63633e-08
-1.07575e-09
9.60559e-08
-4.53256e-10
9.55473e-08
1.85587e-10
9.48211e-08
8.7091e-10
9.38531e-08
1.63629e-09
9.26109e-08
2.51834e-09
9.10534e-08
3.55618e-09
8.91297e-08
4.79123e-09
8.67795e-08
6.26655e-09
8.39323e-08
8.02647e-09
8.05073e-08
1.01161e-08
7.64133e-08
1.25808e-08
7.1549e-08
1.54662e-08
6.58027e-08
1.88172e-08
5.90527e-08
2.26786e-08
5.11675e-08
2.70943e-08
4.20059e-08
3.21076e-08
3.1418e-08
3.77605e-08
1.9245e-08
4.40942e-08
5.32033e-09
5.11481e-08
-1.05297e-08
5.896e-08
-2.84847e-08
6.75646e-08
-4.87286e-08
7.69927e-08
-7.1448e-08
8.72697e-08
-9.68299e-08
9.84141e-08
-1.25059e-07
1.10435e-07
-1.56314e-07
1.23331e-07
-1.90764e-07
1.37086e-07
-2.28565e-07
1.5167e-07
-2.69855e-07
1.67033e-07
-3.14746e-07
1.83106e-07
-3.63324e-07
1.99798e-07
-4.15638e-07
2.16995e-07
-4.71701e-07
2.3456e-07
-5.3148e-07
2.52332e-07
-5.94892e-07
2.70128e-07
-6.61804e-07
2.87743e-07
-7.32028e-07
3.04955e-07
-8.0532e-07
3.21525e-07
-8.81378e-07
3.37205e-07
-9.59845e-07
3.51736e-07
-1.04031e-06
3.64859e-07
-1.12232e-06
3.76318e-07
-1.20536e-06
3.85863e-07
-1.2889e-06
3.93255e-07
-1.37235e-06
3.98272e-07
-1.45512e-06
4.0071e-07
-1.53657e-06
4.00389e-07
-1.61609e-06
3.9715e-07
-1.69302e-06
3.90861e-07
-1.76674e-06
3.81417e-07
-1.83662e-06
3.68736e-07
-1.90204e-06
3.52764e-07
-1.96241e-06
3.33472e-07
-2.01715e-06
3.10854e-07
-2.06573e-06
2.84932e-07
-2.10763e-06
2.55751e-07
-2.14236e-06
2.23382e-07
-2.16949e-06
1.87922e-07
-2.18862e-06
1.49502e-07
-2.19938e-06
1.08281e-07
-2.20146e-06
6.44605e-08
-2.1946e-06
1.82841e-08
-2.17859e-06
-2.99252e-08
-2.15327e-06
-7.98461e-08
-2.11858e-06
-1.31085e-07
-2.07449e-06
-1.83153e-07
-2.0211e-06
-2.35502e-07
-1.95857e-06
-2.87508e-07
-1.88715e-06
-3.38459e-07
-1.80723e-06
-3.87561e-07
-1.71931e-06
-4.33973e-07
-1.62401e-06
-4.76801e-07
-1.52209e-06
-5.1511e-07
-1.41445e-06
-5.47953e-07
-1.30215e-06
-5.74407e-07
-1.18637e-06
-5.93615e-07
-1.06841e-06
-6.04827e-07
-9.49718e-07
-6.07455e-07
-8.31797e-07
-6.01117e-07
-7.16219e-07
-5.85689e-07
-6.04565e-07
-5.61338e-07
-4.98381e-07
-5.28547e-07
-3.9912e-07
-4.88117e-07
-3.08092e-07
-4.41155e-07
-2.26403e-07
-3.89032e-07
-1.54912e-07
-3.33319e-07
-9.41911e-08
-2.75713e-07
-4.44977e-08
-2.17943e-07
-5.7666e-09
-1.61695e-07
2.23882e-08
-1.08532e-07
4.06585e-08
-5.98591e-08
5.0019e-08
-1.69131e-08
5.17032e-08
1.91963e-08
4.71849e-08
4.74068e-08
3.81642e-08
6.65859e-08
2.65681e-08
7.543e-08
1.4574e-08
7.24056e-08
4.68172e-09
5.58131e-08
2.40516e-08
2.74077e-10
-5.08142e-10
1.13049e-09
-2.91795e-09
2.59575e-09
-6.06711e-09
4.6764e-09
-9.49559e-09
7.35578e-09
-1.29157e-08
1.05967e-08
-1.61415e-08
1.43461e-08
-1.90572e-08
1.85397e-08
-2.15941e-08
2.3106e-08
-2.37149e-08
2.79698e-08
-2.54043e-08
3.3055e-08
-2.6662e-08
3.82865e-08
-2.74994e-08
4.35923e-08
-2.79359e-08
4.89042e-08
-2.79979e-08
5.41594e-08
-2.77165e-08
5.93011e-08
-2.71264e-08
6.42787e-08
-2.6265e-08
6.90486e-08
-2.51712e-08
7.35741e-08
-2.38846e-08
7.78254e-08
-2.24446e-08
8.17795e-08
-2.08897e-08
8.54199e-08
-1.92566e-08
8.87361e-08
-1.75797e-08
9.17232e-08
-1.58908e-08
9.43815e-08
-1.42181e-08
9.67152e-08
-1.25864e-08
9.87325e-08
-1.10162e-08
1.00444e-07
-9.5238e-09
1.01862e-07
-8.12086e-09
1.03001e-07
-6.81432e-09
1.03874e-07
-5.6062e-09
1.04493e-07
-4.49348e-09
1.0487e-07
-3.46803e-09
1.05013e-07
-2.51655e-09
1.04925e-07
-1.62058e-09
1.04606e-07
-7.56569e-10
1.04049e-07
1.04023e-10
1.0324e-07
9.94526e-10
1.02158e-07
1.9528e-09
1.00773e-07
3.02094e-09
9.90468e-08
4.24484e-09
9.69293e-08
5.67361e-09
9.43614e-08
7.35913e-09
9.12726e-08
9.3554e-09
8.7581e-08
1.1718e-08
8.31936e-08
1.45035e-08
7.80056e-08
1.77688e-08
7.19008e-08
2.15709e-08
6.47517e-08
2.59663e-08
5.64197e-08
3.10107e-08
4.67553e-08
3.67587e-08
3.55989e-08
4.3264e-08
2.27809e-08
5.05784e-08
8.12312e-09
5.8752e-08
-8.56114e-09
6.78323e-08
-2.74651e-08
7.7864e-08
-4.87875e-08
8.88869e-08
-7.27302e-08
1.00935e-07
-9.94964e-08
1.14036e-07
-1.29287e-07
1.28205e-07
-1.62298e-07
1.43446e-07
-1.98715e-07
1.59749e-07
-2.38712e-07
1.77083e-07
-2.82441e-07
1.95399e-07
-3.30031e-07
2.14623e-07
-3.8158e-07
2.34655e-07
-4.3715e-07
2.55368e-07
-4.96761e-07
2.76606e-07
-5.60386e-07
2.98185e-07
-6.27945e-07
3.1989e-07
-6.993e-07
3.41483e-07
-7.74256e-07
3.62699e-07
-8.52555e-07
3.83254e-07
-9.33879e-07
4.02849e-07
-1.01785e-06
4.21173e-07
-1.10402e-06
4.37913e-07
-1.19192e-06
4.52754e-07
-1.28099e-06
4.65393e-07
-1.37067e-06
4.75537e-07
-1.46033e-06
4.82915e-07
-1.54933e-06
4.87279e-07
-1.63703e-06
4.88408e-07
-1.72276e-06
4.86112e-07
-1.80584e-06
4.80233e-07
-1.88562e-06
4.70646e-07
-1.96146e-06
4.57258e-07
-2.03274e-06
4.40008e-07
-2.09884e-06
4.18868e-07
-2.1592e-06
3.93836e-07
-2.21329e-06
3.6494e-07
-2.26059e-06
3.32238e-07
-2.30065e-06
2.95811e-07
-2.33304e-06
2.5577e-07
-2.35737e-06
2.12253e-07
-2.3733e-06
1.65431e-07
-2.38053e-06
1.15509e-07
-2.3788e-06
6.27329e-08
-2.36791e-06
7.39469e-09
-2.34769e-06
-5.01441e-08
-2.31804e-06
-1.09499e-07
-2.27892e-06
-1.70212e-07
-2.23034e-06
-2.31733e-07
-2.17239e-06
-2.93442e-07
-2.10527e-06
-3.54634e-07
-2.02922e-06
-4.1451e-07
-1.9446e-06
-4.72175e-07
-1.8519e-06
-5.26674e-07
-1.75171e-06