/*--------------------------------*- C++ -*----------------------------------*\
  =========                 |
  \\      /  F ield         | OpenFOAM: The Open Source CFD Toolbox
   \\    /   O peration     | Website:  https://openfoam.org
    \\  /    A nd           | Version:  12
     \\/     M anipulation  |
\*---------------------------------------------------------------------------*/
FoamFile
{
    format      ascii;
    class       volScalarField;
    location    "10";
    object      p;
}
// * * * * * * * * * * * * * * * * * * * * * * * * * * * * * * * * * * * * * //

dimensions      [0 2 -2 0 0 0 0];

internalField   nonuniform List<scalar> 
5625
(
9.16168e-10
2.65019e-07
1.34749e-06
3.23876e-06
5.67837e-06
8.43581e-06
1.13286e-05
1.42037e-05
1.69305e-05
1.93997e-05
2.15214e-05
2.32232e-05
2.44476e-05
2.51505e-05
2.5299e-05
2.487e-05
2.38493e-05
2.223e-05
2.00116e-05
1.71996e-05
1.38042e-05
9.84027e-06
5.32619e-06
2.83898e-07
-5.2618e-06
-1.12835e-05
-1.77515e-05
-2.46342e-05
-3.18982e-05
-3.95087e-05
-4.74296e-05
-5.56236e-05
-6.40525e-05
-7.26773e-05
-8.14585e-05
-9.03559e-05
-9.93292e-05
-0.000108337
-0.00011734
-0.000126296
-0.000135164
-0.000143904
-0.000152477
-0.000160841
-0.000168959
-0.000176792
-0.000184303
-0.000191456
-0.000198216
-0.00020455
-0.000210427
-0.000215818
-0.000220696
-0.000225037
-0.000228821
-0.00023203
-0.000234651
-0.000236676
-0.0002381
-0.000238926
-0.000239164
-0.00023883
-0.00023795
-0.00023656
-0.000234705
-0.000232447
-0.00022986
-0.000227036
-0.000224087
-0.000221144
-0.000218359
-0.000215915
-0.000214039
-0.000212985
-0.000212749
-3.55627e-06
-2.84984e-06
-1.61742e-06
7.89947e-08
2.1035e-06
4.31774e-06
6.59716e-06
8.83068e-06
1.09203e-05
1.27813e-05
1.43414e-05
1.55404e-05
1.63291e-05
1.66684e-05
1.6528e-05
1.58858e-05
1.47271e-05
1.30434e-05
1.08322e-05
8.09613e-06
4.84248e-06
1.08256e-06
-3.16865e-06
-7.89291e-06
-1.30691e-05
-1.86736e-05
-2.46805e-05
-3.10619e-05
-3.77881e-05
-4.4828e-05
-5.21491e-05
-5.97178e-05
-6.74995e-05
-7.54588e-05
-8.35597e-05
-9.17656e-05
-0.00010004
-0.000108344
-0.000116643
-0.000124898
-0.000133071
-0.000141128
-0.000149029
-0.000156741
-0.000164228
-0.000171454
-0.000178388
-0.000184997
-0.000191249
-0.000197117
-0.000202573
-0.000207591
-0.000212149
-0.000216227
-0.000219808
-0.000222879
-0.000225428
-0.000227452
-0.000228948
-0.000229922
-0.000230384
-0.00023035
-0.000229845
-0.000228901
-0.00022756
-0.000225873
-0.000223902
-0.000221722
-0.000219417
-0.000217087
-0.000214844
-0.000212812
-0.00021113
-0.000209933
-0.000209263
-9.52006e-06
-8.03706e-06
-6.17134e-06
-4.18698e-06
-2.12807e-06
-4.32502e-08
1.99757e-06
3.92259e-06
5.66583e-06
7.16803e-06
8.37685e-06
9.24697e-06
9.74021e-06
9.82525e-06
9.4774e-06
8.67811e-06
7.41459e-06
5.67934e-06
3.46979e-06
7.87729e-07
-2.36092e-06
-5.96663e-06
-1.00165e-05
-1.44947e-05
-1.93826e-05
-2.46593e-05
-3.03017e-05
-3.62847e-05
-4.25817e-05
-4.91644e-05
-5.60033e-05
-6.30679e-05
-7.03265e-05
-7.77468e-05
-8.52958e-05
-9.29399e-05
-0.000100645
-0.000108378
-0.000116103
-0.000123788
-0.000131396
-0.000138896
-0.000146254
-0.000153436
-0.000160411
-0.000167148
-0.000173617
-0.000179788
-0.000185634
-0.00019113
-0.000196251
-0.000200974
-0.00020528
-0.000209153
-0.000212576
-0.000215539
-0.000218033
-0.000220055
-0.000221603
-0.000222684
-0.000223305
-0.000223482
-0.000223235
-0.00022259
-0.000221581
-0.000220248
-0.000218638
-0.000216804
-0.000214807
-0.000212714
-0.000210599
-0.000208531
-0.00020656
-0.000204733
-0.000203302
-1.64378e-05
-1.4065e-05
-1.13596e-05
-8.81136e-06
-6.40546e-06
-4.12542e-06
-2.00372e-06
-8.48575e-08
1.58934e-06
2.9806e-06
4.05408e-06
4.77871e-06
5.1278e-06
5.07912e-06
4.61508e-06
3.72252e-06
2.39267e-06
6.20822e-07
-1.59373e-06
-4.24814e-06
-7.33608e-06
-1.08482e-05
-1.47721e-05
-1.90929e-05
-2.37933e-05
-2.88537e-05
-3.42527e-05
-3.99671e-05
-4.5972e-05
-5.22414e-05
-5.87478e-05
-6.54628e-05
-7.2357e-05
-7.94004e-05
-8.65622e-05
-9.38114e-05
-0.000101116
-0.000108445
-0.000115766
-0.000123048
-0.000130258
-0.000137366
-0.000144341
-0.000151152
-0.00015777
-0.000164165
-0.000170311
-0.00017618
-0.000181747
-0.000186988
-0.000191882
-0.000196407
-0.000200545
-0.000204281
-0.000207601
-0.000210494
-0.000212952
-0.000214971
-0.000216549
-0.000217688
-0.000218396
-0.000218683
-0.000218564
-0.000218057
-0.000217188
-0.000215984
-0.000214479
-0.000212708
-0.000210711
-0.000208532
-0.000206216
-0.000203797
-0.000201262
-0.000198599
-0.00019628
-2.30592e-05
-1.98172e-05
-1.62436e-05
-1.30476e-05
-1.01746e-05
-7.55984e-06
-5.20974e-06
-3.14976e-06
-1.40374e-06
6.60577e-09
1.06094e-06
1.74062e-06
2.02945e-06
1.91398e-06
1.38385e-06
4.31751e-07
-9.46394e-07
-2.75163e-06
-4.9819e-06
-7.63236e-06
-1.06953e-05
-1.41605e-05
-1.80153e-05
-2.22448e-05
-2.6832e-05
-3.17581e-05
-3.70025e-05
-4.2543e-05
-4.83561e-05
-5.4417e-05
-6.06998e-05
-6.71776e-05
-7.38229e-05
-8.06072e-05
-8.75016e-05
-9.44768e-05
-0.000101503
-0.000108551
-0.00011559
-0.000122591
-0.000129523
-0.000136358
-0.000143067
-0.00014962
-0.000155991
-0.000162152
-0.000168077
-0.000173742
-0.000179122
-0.000184194
-0.000188938
-0.000193335
-0.000197367
-0.000201018
-0.000204276
-0.000207128
-0.000209566
-0.000211585
-0.000213181
-0.000214354
-0.000215106
-0.000215444
-0.000215377
-0.000214916
-0.000214078
-0.000212879
-0.00021134
-0.000209484
-0.000207333
-0.000204913
-0.000202251
-0.000199355
-0.000196164
-0.000192626
-0.000189433
-2.85625e-05
-2.45224e-05
-2.01263e-05
-1.62802e-05
-1.29028e-05
-9.89407e-06
-7.24328e-06
-4.96341e-06
-3.06579e-06
-1.55977e-06
-4.5447e-07
2.41616e-07
5.21146e-07
3.78482e-07
-1.90098e-07
-1.18615e-06
-2.60905e-06
-4.45582e-06
-6.72127e-06
-9.39792e-06
-1.24762e-05
-1.59443e-05
-1.97886e-05
-2.39935e-05
-2.85419e-05
-3.34148e-05
-3.85918e-05
-4.40513e-05
-4.97704e-05
-5.57251e-05
-6.18905e-05
-6.82406e-05
-7.47492e-05
-8.13889e-05
-8.81322e-05
-9.49512e-05
-0.000101818
-0.000108703
-0.000115579
-0.000122417
-0.000129188
-0.000135866
-0.000142422
-0.000148829
-0.000155061
-0.000161092
-0.000166897
-0.000172451
-0.000177733
-0.000182721
-0.000187393
-0.000191731
-0.000195717
-0.000199336
-0.000202575
-0.000205419
-0.000207861
-0.000209891
-0.000211505
-0.000212699
-0.000213471
-0.000213823
-0.000213759
-0.000213284
-0.000212405
-0.000211132
-0.000209474
-0.000207444
-0.000205051
-0.000202309
-0.000199234
-0.000195815
-0.000191957
-0.000187581
-0.000183578
-3.23862e-05
-2.76334e-05
-2.24892e-05
-1.80317e-05
-1.4161e-05
-1.0751e-05
-7.77965e-06
-5.25218e-06
-3.17132e-06
-1.53753e-06
-3.51389e-07
3.86565e-07
6.7626e-07
5.18682e-07
-8.4019e-08
-1.12817e-06
-2.60863e-06
-4.51848e-06
-6.84925e-06
-9.59062e-06
-1.27307e-05
-1.6256e-05
-2.01512e-05
-2.43999e-05
-2.89839e-05
-3.38838e-05
-3.90791e-05
-4.45481e-05
-5.0268e-05
-5.62151e-05
-6.2365e-05
-6.86925e-05
-7.51718e-05
-8.17765e-05
-8.848e-05
-9.5255e-05
-0.000102074
-0.000108911
-0.000115737
-0.000122524
-0.000129247
-0.000135878
-0.00014239
-0.000148756
-0.000154953
-0.000160953
-0.000166734
-0.000172271
-0.000177542
-0.000182526
-0.000187201
-0.00019155
-0.000195554
-0.000199197
-0.000202463
-0.00020534
-0.000207816
-0.000209879
-0.000211524
-0.000212741
-0.000213528
-0.00021388
-0.000213796
-0.000213275
-0.00021232
-0.000210931
-0.000209112
-0.000206865
-0.000204192
-0.000201099
-0.000197592
-0.000193651
-0.000189155
-0.000184006
-0.000179269
-3.4124e-05
-2.87425e-05
-2.29316e-05
-1.792e-05
-1.35939e-05
-9.80687e-06
-6.5294e-06
-3.7618e-06
-1.50092e-06
2.59218e-07
1.52452e-06
2.30065e-06
2.59347e-06
2.40947e-06
1.75593e-06
6.41127e-07
-9.25583e-07
-2.93361e-06
-5.37118e-06
-8.22517e-06
-1.14812e-05
-1.51237e-05
-1.91359e-05
-2.34995e-05
-2.81956e-05
-3.32038e-05
-3.85031e-05
-4.40712e-05
-4.98853e-05
-5.59215e-05
-6.21556e-05
-6.85625e-05
-7.51168e-05
-8.17925e-05
-8.85635e-05
-9.54031e-05
-0.000102285
-0.000109181
-0.000116067
-0.000122913
-0.000129695
-0.000136385
-0.000142958
-0.000149387
-0.000155648
-0.000161716
-0.000167567
-0.000173177
-0.000178524
-0.000183586
-0.000188343
-0.000192774
-0.000196861
-0.000200587
-0.000203936
-0.000206891
-0.00020944
-0.00021157
-0.00021327
-0.000214531
-0.000215343
-0.000215701
-0.000215597
-0.000215027
-0.000213986
-0.000212471
-0.000210479
-0.000208006
-0.000205048
-0.000201605
-0.000197678
-0.000193243
-0.000188154
-0.000182301
-0.000176906
-3.3459e-05
-2.75259e-05
-2.11287e-05
-1.56281e-05
-1.0899e-05
-6.77868e-06
-3.23199e-06
-2.56084e-07
2.1564e-06
4.01626e-06
5.33447e-06
6.12165e-06
6.38855e-06
6.14632e-06
5.40668e-06
4.182e-06
2.48549e-06
3.31152e-07
-2.26603e-06
-5.2902e-06
-8.72451e-06
-1.25512e-05
-1.67515e-05
-2.13058e-05
-2.61937e-05
-3.13938e-05
-3.68841e-05
-4.26417e-05
-4.86433e-05
-5.48647e-05
-6.12814e-05
-6.78684e-05
-7.46001e-05
-8.14508e-05
-8.83944e-05
-9.54046e-05
-0.000102455
-0.000109519
-0.00011657
-0.000123582
-0.000130529
-0.000137383
-0.00014412
-0.000150714
-0.000157139
-0.000163371
-0.000169386
-0.000175161
-0.000180671
-0.000185896
-0.000190813
-0.000195402
-0.000199643
-0.000203517
-0.000207008
-0.000210097
-0.000212769
-0.000215009
-0.000216803
-0.00021814
-0.000219007
-0.000219393
-0.000219289
-0.000218684
-0.000217572
-0.000215943
-0.00021379
-0.000211105
-0.000207879
-0.000204108
-0.000199791
-0.000194898
-0.000189268
-0.000182779
-0.000176791
-3.01203e-05
-2.37057e-05
-1.67995e-05
-1.08785e-05
-5.80791e-06
-1.41071e-06
2.35257e-06
5.48721e-06
8.00388e-06
9.91727e-06
1.12425e-05
1.19944e-05
1.21879e-05
1.18381e-05
1.09608e-05
9.57193e-06
7.68836e-06
5.32726e-06
2.50664e-06
-7.54978e-07
-4.43821e-06
-8.52316e-06
-1.29891e-05
-1.78148e-05
-2.29783e-05
-2.8457e-05
-3.42278e-05
-4.02671e-05
-4.65506e-05
-5.30539e-05
-5.97518e-05
-6.66191e-05
-7.36301e-05
-8.07588e-05
-8.79791e-05
-9.52647e-05
-0.000102589
-0.000109926
-0.000117249
-0.000124532
-0.000131747
-0.00013887
-0.000145874
-0.000152733
-0.000159423
-0.000165917
-0.000172192
-0.000178223
-0.000183987
-0.000189461
-0.000194622
-0.000199448
-0.000203919
-0.000208015
-0.000211715
-0.000215001
-0.000217855
-0.000220261
-0.0002222
-0.000223659
-0.000224623
-0.000225076
-0.000225007
-0.000224402
-0.000223249
-0.000221536
-0.000219251
-0.000216384
-0.000212922
-0.000208858
-0.000204191
-0.000198884
-0.000192765
-0.0001857
-0.000179176
-2.38532e-05
-1.70232e-05
-9.68366e-06
-3.41385e-06
1.92988e-06
6.53739e-06
1.04522e-05
1.36818e-05
1.62398e-05
1.81443e-05
1.94143e-05
2.00681e-05
2.01246e-05
1.96025e-05
1.85212e-05
1.69003e-05
1.47596e-05
1.21196e-05
9.00112e-06
5.42532e-06
1.414e-06
-3.01077e-06
-7.82629e-06
-1.30096e-05
-1.85371e-05
-2.43851e-05
-3.05291e-05
-3.69446e-05
-4.36065e-05
-5.04897e-05
-5.75684e-05
-6.48171e-05
-7.22094e-05
-7.97193e-05
-8.73202e-05
-9.49859e-05
-0.00010269
-0.000110405
-0.000118105
-0.000125763
-0.000133353
-0.000140848
-0.000148223
-0.00015545
-0.000162504
-0.000169361
-0.000175993
-0.000182377
-0.000188488
-0.000194302
-0.000199796
-0.000204945
-0.000209729
-0.000214125
-0.000218111
-0.000221666
-0.000224772
-0.000227407
-0.000229554
-0.000231194
-0.000232309
-0.000232883
-0.000232898
-0.000232339
-0.000231191
-0.000229437
-0.000227065
-0.000224058
-0.000220403
-0.000216091
-0.000211118
-0.000205446
-0.000198888
-0.000191302
-0.00018429
-1.4401e-05
-7.22074e-06
4.75033e-07
7.0174e-06
1.25585e-05
1.73001e-05
2.12899e-05
2.45378e-05
2.70604e-05
2.88792e-05
3.00166e-05
3.04949e-05
3.03361e-05
2.95629e-05
2.81978e-05
2.62639e-05
2.37841e-05
2.07818e-05
1.72807e-05
1.33047e-05
8.8776e-06
4.02394e-06
-1.23178e-06
-6.86475e-06
-1.28499e-05
-1.91621e-05
-2.57758e-05
-3.26652e-05
-3.98046e-05
-4.71679e-05
-5.47289e-05
-6.24611e-05
-7.03381e-05
-7.83332e-05
-8.64198e-05
-9.4571e-05
-0.00010276
-0.000110959
-0.000119143
-0.000127283
-0.000135353
-0.000143327
-0.000151177
-0.000158877
-0.0001664
-0.000173721
-0.000180812
-0.000187649
-0.000194205
-0.000200456
-0.000206376
-0.000211941
-0.000217127
-0.000221909
-0.000226266
-0.000230173
-0.000233608
-0.00023655
-0.000238977
-0.000240867
-0.000242201
-0.000242959
-0.000243121
-0.000242668
-0.000241582
-0.000239844
-0.000237437
-0.000234344
-0.000230548
-0.000226038
-0.00022081
-0.000214822
-0.000207874
-0.000199816
-0.000192359
-1.49094e-06
5.97072e-06
1.39401e-05
2.06713e-05
2.63246e-05
3.11134e-05
3.50896e-05
3.82662e-05
4.06629e-05
4.2305e-05
4.32186e-05
4.34294e-05
4.29634e-05
4.18465e-05
4.01048e-05
3.77646e-05
3.4852e-05
3.13934e-05
2.7415e-05
2.29433e-05
1.80046e-05
1.26255e-05
6.83224e-06
6.51564e-07
-5.89012e-06
-1.27661e-05
-1.99498e-05
-2.74144e-05
-3.51332e-05
-4.30793e-05
-5.1226e-05
-5.95461e-05
-6.80128e-05
-7.65988e-05
-8.52771e-05
-9.40204e-05
-0.000102802
-0.000111593
-0.000120368
-0.000129099
-0.000137758
-0.000146318
-0.000154752
-0.000163032
-0.000171131
-0.000179022
-0.000186678
-0.000194072
-0.000201177
-0.000207967
-0.000214415
-0.000220494
-0.000226179
-0.000231444
-0.000236264
-0.000240614
-0.000244468
-0.000247802
-0.000250592
-0.000252815
-0.000254447
-0.000255465
-0.000255847
-0.000255571
-0.000254616
-0.00025296
-0.000250583
-0.000247465
-0.000243587
-0.000238936
-0.000233507
-0.000227254
-0.000219966
-0.000211484
-0.00020362
1.51739e-05
2.28403e-05
3.09906e-05
3.78158e-05
4.34843e-05
4.82203e-05
5.20808e-05
5.50822e-05
5.72482e-05
5.86081e-05
5.91919e-05
5.90293e-05
5.815e-05
5.65837e-05
5.436e-05
5.15083e-05
4.8058e-05
4.40384e-05
3.94784e-05
3.4407e-05
2.88528e-05
2.28444e-05
1.64099e-05
9.57779e-06
2.37584e-06
-5.16791e-06
-1.30258e-05
-2.117e-05
-2.95731e-05
-3.82073e-05
-4.70453e-05
-5.60595e-05
-6.52225e-05
-7.45066e-05
-8.38844e-05
-9.33282e-05
-0.00010281
-0.000112303
-0.000121779
-0.000131211
-0.000140569
-0.000149827
-0.000158956
-0.000167927
-0.000176714
-0.000185287
-0.000193618
-0.00020168
-0.000209444
-0.000216882
-0.000223965
-0.000230666
-0.000236956
-0.000242809
-0.000248195
-0.000253088
-0.00025746
-0.000261284
-0.000264533
-0.000267181
-0.000269201
-0.000270568
-0.000271256
-0.000271239
-0.000270495
-0.000268998
-0.000266725
-0.000263653
-0.00025976
-0.000255032
-0.000249461
-0.000242999
-0.000235422
-0.000226565
-0.000218331
3.59206e-05
4.37025e-05
5.19258e-05
5.87349e-05
6.43061e-05
6.88735e-05
7.25e-05
7.52064e-05
7.70209e-05
7.79775e-05
7.81103e-05
7.74536e-05
7.60411e-05
7.39061e-05
7.10821e-05
6.76019e-05
6.3498e-05
5.88027e-05
5.35475e-05
4.7764e-05
4.14828e-05
3.47346e-05
2.75494e-05
1.99568e-05
1.19863e-05
3.66688e-06
-4.9727e-06
-1.39039e-05
-2.30984e-05
-3.2528e-05
-4.21649e-05
-5.19809e-05
-6.19483e-05
-7.20392e-05
-8.22258e-05
-9.24801e-05
-0.000102774
-0.00011308
-0.000123369
-0.000133613
-0.000143784
-0.000153853
-0.000163791
-0.00017357
-0.000183159
-0.000192531
-0.000201654
-0.000210501
-0.00021904
-0.000227242
-0.000235078
-0.000242516
-0.000249527
-0.000256081
-0.000262147
-0.000267695
-0.000272696
-0.000277119
-0.000280935
-0.000284113
-0.000286625
-0.000288441
-0.000289533
-0.000289871
-0.00028943
-0.00028818
-0.000286096
-0.000283151
-0.000279321
-0.000274588
-0.000268943
-0.000262333
-0.000254523
-0.000245339
-0.000236775
6.11096e-05
6.88998e-05
7.70677e-05
8.37305e-05
8.90722e-05
9.33361e-05
9.65914e-05
9.88645e-05
0.000100189
0.000100604
0.000100148
9.88606e-05
9.67799e-05
9.39433e-05
9.03879e-05
8.61502e-05
8.12661e-05
7.57705e-05
6.96978e-05
6.30817e-05
5.59553e-05
4.83507e-05
4.02998e-05
3.18334e-05
2.29822e-05
1.37761e-05
4.24473e-06
-5.58288e-06
-1.56778e-05
-2.60116e-05
-3.65559e-05
-4.72825e-05
-5.81634e-05
-6.91706e-05
-8.0276e-05
-9.14516e-05
-0.000102669
-0.0001139
-0.000125116
-0.000136289
-0.000147388
-0.000158386
-0.000169252
-0.000179957
-0.00019047
-0.000200762
-0.0002108
-0.000220554
-0.000229993
-0.000239085
-0.000247797
-0.000256098
-0.000263955
-0.000271336
-0.000278207
-0.000284535
-0.000290288
-0.000295432
-0.000299935
-0.000303763
-0.000306883
-0.000309263
-0.000310871
-0.000311674
-0.00031164
-0.00031074
-0.000308943
-0.000306219
-0.000302539
-0.000297884
-0.000292241
-0.000285553
-0.000277574
-0.00026812
-0.000259269
9.11354e-05
9.88035e-05
0.000106761
0.000113122
0.000118078
0.00012188
0.000124605
0.000126285
0.00012696
0.000126675
0.000125475
0.000123404
0.000120504
0.000116819
0.000112388
0.000107252
0.00010145
9.50202e-05
8.79992e-05
8.04231e-05
7.23267e-05
6.3744e-05
5.47081e-05
4.52509e-05
3.54041e-05
2.51981e-05
1.46631e-05
3.82842e-06
-7.27672e-06
-1.86239e-05
-3.01845e-05
-4.19308e-05
-5.38344e-05
-6.58676e-05
-7.80023e-05
-9.02107e-05
-0.000102464
-0.000114735
-0.000126993
-0.000139211
-0.000151358
-0.000163405
-0.000175321
-0.000187076
-0.000198639
-0.000209978
-0.00022106
-0.000231853
-0.000242324
-0.000252439
-0.000262163
-0.000271463
-0.000280303
-0.000288647
-0.00029646
-0.000303706
-0.000310349
-0.000316351
-0.000321676
-0.000326287
-0.000330148
-0.000333222
-0.000335473
-0.000336864
-0.000337361
-0.000336927
-0.000335529
-0.000333132
-0.000329705
-0.000325222
-0.00031967
-0.000312985
-0.00030491
-0.000295253
-0.000286167
0.000126425
0.000133812
0.000141369
0.000147243
0.000151628
0.000154783
0.000156791
0.000157694
0.000157537
0.000156373
0.000154254
0.000151227
0.000147342
0.000142644
0.00013718
0.000130994
0.000124126
0.000116619
0.000108511
9.98405e-05
9.06442e-05
8.09572e-05
7.08136e-05
6.02463e-05
4.92871e-05
3.79669e-05
2.6316e-05
1.43637e-05
2.13877e-06
-1.03304e-05
-2.30158e-05
-3.58897e-05
-4.89247e-05
-6.20931e-05
-7.53674e-05
-8.87198e-05
-0.000102122
-0.000115547
-0.000128964
-0.000142346
-0.000155662
-0.000168882
-0.000181975
-0.000194909
-0.000207653
-0.000220173
-0.000232436
-0.000244407
-0.000256052
-0.000267333
-0.000278216
-0.000288662
-0.000298633
-0.000308092
-0.000316999
-0.000325314
-0.000332998
-0.000340009
-0.000346309
-0.000351854
-0.000356605
-0.00036052
-0.000363559
-0.00036568
-0.000366843
-0.000367009
-0.000366139
-0.000364193
-0.000361135
-0.000356936
-0.000351576
-0.000344989
-0.000336904
-0.000327123
-0.000317863
0.000167437
0.000174345
0.000181274
0.000186437
0.000190032
0.000192321
0.000193397
0.000193309
0.000192113
0.000189867
0.00018663
0.000182457
0.000177401
0.000171514
0.000164846
0.000157443
0.000149352
0.000140616
0.000131276
0.000121372
0.000110942
0.000100021
8.86457e-05
7.68477e-05
6.46594e-05
5.21114e-05
3.92334e-05
2.60542e-05
1.2602e-05
-1.09572e-06
-1.50119e-05
-2.91197e-05
-4.33924e-05
-5.78034e-05
-7.23259e-05
-8.69328e-05
-0.000101597
-0.00011629
-0.000130984
-0.00014565
-0.000160258
-0.000174778
-0.000189177
-0.000203425
-0.000217487
-0.00023133
-0.000244918
-0.000258215
-0.000271184
-0.000283787
-0.000295985
-0.000307738
-0.000319004
-0.000329742
-0.000339909
-0.000349462
-0.000358356
-0.000366548
-0.000373991
-0.000380639
-0.000386448
-0.000391371
-0.000395361
-0.000398373
-0.000400361
-0.00040128
-0.000401085
-0.000399731
-0.000397178
-0.00039339
-0.000388343
-0.000381963
-0.000373971
-0.000364158
-0.000354798
0.00021465
0.000220841
0.000226865
0.000231049
0.000233594
0.000234762
0.000234655
0.000233333
0.00023086
0.000227303
0.000222728
0.000217197
0.000210767
0.000203497
0.00019544
0.000186646
0.000177165
0.000167041
0.000156318
0.000145037
0.000133237
0.000120953
0.000108221
9.50733e-05
8.15411e-05
6.76544e-05
5.34416e-05
3.89304e-05
2.41474e-05
9.11875e-06
-6.13e-06
-2.15734e-05
-3.71864e-05
-5.29437e-05
-6.88198e-05
-8.47889e-05
-0.000100825
-0.0001169
-0.000132988
-0.000149059
-0.000165084
-0.000181032
-0.000196872
-0.000212571
-0.000228095
-0.000243408
-0.000258474
-0.000273254
-0.00028771
-0.000301801
-0.000315485
-0.000328719
-0.000341458
-0.000353657
-0.000365269
-0.000376246
-0.00038654
-0.000396101
-0.000404878
-0.000412821
-0.000419877
-0.000425996
-0.000431124
-0.000435211
-0.000438203
-0.00044005
-0.0004407
-0.000440104
-0.000438211
-0.000434982
-0.000430387
-0.000424346
-0.000416566
-0.000406833
-0.000397462
0.000268561
0.000273744
0.000278529
0.000281416
0.000282606
0.000282355
0.000280776
0.000277939
0.000273921
0.000268796
0.000262638
0.000255514
0.000247491
0.000238628
0.000228985
0.000218615
0.000207568
0.000195893
0.000183633
0.00017083
0.000157523
0.000143748
0.000129539
0.000114926
9.99406e-05
8.461e-05
6.8961e-05
5.30191e-05
3.68089e-05
2.03541e-05
3.67815e-06
-1.31959e-05
-3.02452e-05
-4.74463e-05
-6.4776e-05
-8.22101e-05
-9.9724e-05
-0.000117292
-0.000134888
-0.000152484
-0.000170051
-0.000187558
-0.000204975
-0.000222268
-0.000239402
-0.00025634
-0.000273045
-0.000289476
-0.000305592
-0.00032135
-0.000336706
-0.000351611
-0.000366018
-0.000379878
-0.000393139
-0.000405748
-0.000417651
-0.000428794
-0.000439119
-0.000448571
-0.00045709
-0.000464619
-0.000471099
-0.00047647
-0.000480673
-0.00048365
-0.000485342
-0.000485692
-0.000484643
-0.000482147
-0.000478168
-0.000472617
-0.000465193
-0.000455675
-0.0004464
0.000329669
0.000333494
0.000336639
0.000337852
0.000337329
0.000335314
0.000331929
0.00032726
0.000321394
0.000314413
0.0003064
0.00029743
0.000287573
0.000276895
0.000265457
0.000253316
0.000240524
0.00022713
0.000213179
0.000198712
0.000183766
0.000168376
0.000152574
0.000136389
0.000119849
0.000102979
8.58019e-05
6.83411e-05
5.06176e-05
3.26521e-05
1.44645e-05
-3.92507e-06
-2.24968e-05
-4.12304e-05
-6.01051e-05
-7.90995e-05
-9.81913e-05
-0.000117357
-0.000136571
-0.000155809
-0.000175041
-0.000194238
-0.00021337
-0.000232402
-0.000251299
-0.000270023
-0.000288536
-0.000306795
-0.000324757
-0.000342375
-0.000359602
-0.000376386
-0.000392676
-0.000408416
-0.000423552
-0.000438023
-0.000451772
-0.000464735
-0.000476851
-0.000488055
-0.000498282
-0.000507465
-0.000515539
-0.000522435
-0.000528087
-0.000532427
-0.000535388
-0.000536905
-0.000536912
-0.000535352
-0.000532181
-0.000527301
-0.000520404
-0.000511261
-0.000502213
0.000398457
0.000400503
0.000401533
0.000400629
0.000397975
0.000393798
0.000388228
0.000381367
0.000373312
0.000364158
0.000353993
0.000342899
0.000330951
0.00031822
0.00030477
0.000290658
0.000275939
0.00026066
0.000244866
0.000228596
0.000211885
0.000194766
0.000177267
0.000159414
0.000141231
0.000122739
0.000103957
8.49033e-05
6.55952e-05
4.60487e-05
2.62797e-05
6.30363e-06
-1.38634e-05
-3.42052e-05
-5.47047e-05
-7.53439e-05
-9.61035e-05
-0.000116963
-0.0001379
-0.00015889
-0.000179907
-0.000200923
-0.000221906
-0.000242825
-0.000263642
-0.00028432
-0.000304818
-0.000325093
-0.000345097
-0.000364783
-0.000384097
-0.000402986
-0.000421393
-0.000439257
-0.000456517
-0.000473109
-0.000488966
-0.000504018
-0.000518197
-0.000531429
-0.000543641
-0.000554757
-0.000564703
-0.000573401
-0.000580775
-0.000586747
-0.000591242
-0.000594181
-0.000595492
-0.000595106
-0.00059297
-0.000588975
-0.000582807
-0.000574233
-0.000565567
0.000475371
0.000475142
0.000473496
0.000469956
0.000464687
0.000457889
0.000449702
0.000440243
0.000429622
0.000417943
0.000405302
0.000391787
0.000377477
0.000362445
0.000346758
0.000330473
0.000313645
0.000296318
0.000278536
0.000260334
0.000241745
0.000222796
0.00020351
0.00018391
0.000164013
0.000143834
0.000123388
0.000102687
8.17426e-05
6.05641e-05
3.91624e-05
1.75473e-05
-4.27028e-06
-2.62793e-05
-4.84674e-05
-7.08213e-05
-9.33257e-05
-0.000115964
-0.000138717
-0.000161563
-0.000184478
-0.000207436
-0.000230407
-0.000253359
-0.000276256
-0.00029906
-0.000321728
-0.000344215
-0.000366472
-0.000388447
-0.000410083
-0.000431323
-0.000452103
-0.000472359
-0.000492022
-0.00051102
-0.00052928
-0.000546723
-0.000563272
-0.000578844
-0.000593356
-0.000606723
-0.00061886
-0.000629677
-0.000639088
-0.000647003
-0.000653335
-0.000657995
-0.000660898
-0.000661965
-0.000661128
-0.000658271
-0.000653071
-0.000645294
-0.000637199
0.000560797
0.000557704
0.000552722
0.000545941
0.000537502
0.000527563
0.000516271
0.000503761
0.000490157
0.00047557
0.000460103
0.000443849
0.000426891
0.000409303
0.000391151
0.000372492
0.000353377
0.000333849
0.000313946
0.000293699
0.000273133
0.000252272
0.000231131
0.000209726
0.000188067
0.000166162
0.000144018
0.000121639
9.90295e-05
7.61927e-05
5.31312e-05
2.98479e-05
6.3468e-06
-1.73665e-05
-4.12865e-05
-6.54057e-05
-8.97142e-05
-0.0001142
-0.000138848
-0.000163641
-0.000188558
-0.000213575
-0.000238664
-0.000263795
-0.000288933
-0.000314037
-0.000339066
-0.000363971
-0.000388702
-0.000413203
-0.000437414
-0.000461272
-0.000484708
-0.00050765
-0.000530022
-0.000551746
-0.000572738
-0.000592911
-0.000612177
-0.000630442
-0.000647614
-0.000663594
-0.000678284
-0.000691584
-0.000703393
-0.00071361
-0.000722132
-0.000728859
-0.00073369
-0.000736533
-0.000737307
-0.000735882
-0.000731934
-0.000725226
-0.000717923
0.000655013
0.000648366
0.000639281
0.000628564
0.000616319
0.000602649
0.000587707
0.000571645
0.000554599
0.00053669
0.000518024
0.000498698
0.000478796
0.000458392
0.000437548
0.00041632
0.000394753
0.000372884
0.000350745
0.000328358
0.000305743
0.000282912
0.000259874
0.000236635
0.000213194
0.000189553
0.000165706
0.000141651
0.000117381
9.28904e-05
6.81727e-05
4.32209e-05
1.80302e-05
-7.39531e-06
-3.30636e-05
-5.89738e-05
-8.51224e-05
-0.000111503
-0.000138107
-0.000164921
-0.000191928
-0.000219109
-0.000246439
-0.000273888
-0.000301423
-0.000329004
-0.000356587
-0.000384126
-0.000411564
-0.000438843
-0.0004659
-0.000492664
-0.000519062
-0.000545014
-0.000570436
-0.00059524
-0.000619332
-0.000642615
-0.000664989
-0.000686349
-0.000706588
-0.000725593
-0.000743254
-0.000759455
-0.000774079
-0.00078701
-0.000798132
-0.000807325
-0.000814475
-0.000819473
-0.00082222
-0.000822574
-0.00082021
-0.000814892
-0.000808645
0.000758154
0.000747153
0.000733077
0.000717627
0.000700856
0.000682793
0.000663594
0.000643428
0.000622444
0.000600768
0.000578509
0.000555765
0.000532618
0.000509139
0.000485385
0.000461405
0.000437236
0.000412908
0.000388441
0.00036385
0.00033914
0.000314316
0.000289373
0.000264305
0.000239102
0.00021375
0.000188236
0.000162543
0.000136653
0.000110552
8.42175e-05
5.76265e-05
3.07849e-05
3.67985e-06
-2.37212e-05
-5.14178e-05
-7.94128e-05
-0.000107708
-0.000136302
-0.000165188
-0.000194355
-0.000223787
-0.000253464
-0.00028336
-0.000313441
-0.000343671
-0.000374006
-0.000404395
-0.000434782
-0.000465106
-0.000495296
-0.000525278
-0.000554971
-0.000584287
-0.000613133
-0.00064141
-0.000669014
-0.000695835
-0.000721759
-0.000746666
-0.000770434
-0.000792937
-0.000814045
-0.000833626
-0.000851546
-0.00086767
-0.000881862
-0.000893987
-0.000903909
-0.000911503
-0.000916648
-0.000919186
-0.000918797
-0.000915247
-0.000910366
0.000870154
0.000853875
0.00083379
0.000812701
0.000790594
0.000767401
0.000743276
0.000718406
0.00069295
0.000667036
0.000640774
0.000614258
0.000587566
0.000560761
0.000533892
0.000506996
0.000480102
0.000453224
0.000426371
0.000399543
0.000372733
0.00034593
0.000319115
0.000292268
0.000265363
0.000238374
0.000211271
0.000184025
0.000156603
0.000128976
0.000101113
7.29839e-05
4.45685e-05
1.58343e-05
-1.32409e-05
-4.26746e-05
-7.24817e-05
-0.000102674
-0.000133257
-0.000164234
-0.0001956
-0.000227346
-0.000259456
-0.000291907
-0.000324672
-0.000357714
-0.00039099
-0.000424448
-0.000458032
-0.000491674
-0.000525302
-0.000558834
-0.000592181
-0.000625247
-0.000657929
-0.000690114
-0.000721688
-0.000752524
-0.000782493
-0.000811461
-0.000839286
-0.000865823
-0.000890923
-0.000914435
-0.000936203
-0.000956071
-0.000973882
-0.000989478
-0.0010027
-0.0010134
-0.00102144
-0.00102664
-0.00102869
-0.00102735
-0.0010242
0.000990678
0.000968062
0.000940812
0.000913061
0.000884715
0.000855579
0.000825798
0.000795578
0.000765082
0.000734438
0.000703752
0.000673109
0.000642579
0.000612211
0.000582043
0.000552096
0.000522382
0.000492901
0.000463643
0.00043459
0.000405719
0.000377
0.000348396
0.00031987
0.000291378
0.000262877
0.000234319
0.000205659
0.000176849
0.000147842
0.000118592
8.90551e-05
5.91905e-05
2.89576e-05
-1.67945e-06
-3.27527e-05
-6.42897e-05
-9.63137e-05
-0.000128842
-0.000161886
-0.000195452
-0.000229537
-0.000264134
-0.000299225
-0.000334787
-0.000370786
-0.00040718
-0.00044392
-0.000480946
-0.000518188
-0.000555569
-0.000593
-0.000630385
-0.000667617
-0.000704582
-0.000741155
-0.000777204
-0.000812589
-0.000847162
-0.000880768
-0.000913246
-0.000944429
-0.000974145
-0.00100222
-0.00102847
-0.00105272
-0.00107478
-0.00109448
-0.00111162
-0.00112603
-0.00113754
-0.00114596
-0.00115098
-0.00115238
-0.0011514
0.00111904
0.00108889
0.00105317
0.00101761
0.000982028
0.000946058
0.000909834
0.000873573
0.000837441
0.00080156
0.000766025
0.000730908
0.000696261
0.000662118
0.000628496
0.000595397
0.000562811
0.000530716
0.000499081
0.000467867
0.000437027
0.000406509
0.000376256
0.000346209
0.000316304
0.000286477
0.00025666
0.000226789
0.000196796
0.000166615
0.000136184
0.00010544
7.43238e-05
4.27796e-05
1.0755e-05
-2.17978e-05
-5.49214e-05
-8.86531e-05
-0.000123024
-0.000158058
-0.000193772
-0.000230175
-0.000267268
-0.000305041
-0.000343478
-0.00038255
-0.000422219
-0.000462435
-0.000503138
-0.000544258
-0.000585711
-0.000627404
-0.000669231
-0.000711074
-0.000752806
-0.000794288
-0.000835372
-0.000875897
-0.000915695
-0.000954589
-0.000992395
-0.00102892
-0.00106396
-0.00109732
-0.00112879
-0.00115815
-0.0011852
-0.00120972
-0.00123149
-0.00125032
-0.00126598
-0.00127827
-0.00128689
-0.00129165
-0.00129335
0.00125411
0.00121507
0.00116942
0.0011248
0.00108088
0.00103712
0.000993606
0.000950577
0.000908193
0.00086656
0.000825755
0.000785829
0.000746811
0.000708711
0.000671519
0.00063521
0.000599747
0.00056508
0.000531152
0.000497895
0.000465237
0.0004331
0.000401402
0.000370057
0.00033898
0.00030808
0.00027727
0.00024646
0.000215562
0.000184489
0.000153156
0.000121481
8.93854e-05
5.67924e-05
2.36314e-05
-1.01642e-05
-4.4655e-05
-7.98954e-05
-0.000115933
-0.000152807
-0.00019055
-0.000229184
-0.000268722
-0.000309165
-0.000350504
-0.00039272
-0.000435779
-0.000479636
-0.00052423
-0.000569491
-0.000615331
-0.00066165
-0.000708334
-0.000755255
-0.000802271
-0.000849226
-0.000895952
-0.000942268
-0.000987983
-0.00103289
-0.00107678
-0.00111943
-0.00116061
-0.00120009
-0.00123761
-0.00127293
-0.00130581
-0.001336
-0.00136324
-0.00138728
-0.00140789
-0.00142481
-0.00143779
-0.00144663
-0.0014516
0.00139422
0.00134479
0.00128758
0.00123251
0.00117907
0.00112648
0.00107479
0.00102424
0.000974974
0.000927076
0.000880594
0.000835549
0.000791939
0.000749739