/*--------------------------------*- C++ -*----------------------------------*\
  =========                 |
  \\      /  F ield         | OpenFOAM: The Open Source CFD Toolbox
   \\    /   O peration     | Website:  https://openfoam.org
    \\  /    A nd           | Version:  12
     \\/     M anipulation  |
\*---------------------------------------------------------------------------*/
FoamFile
{
    format      ascii;
    class       volScalarField;
    location    "5.5";
    object      nut;
}
// * * * * * * * * * * * * * * * * * * * * * * * * * * * * * * * * * * * * * //

dimensions      [0 2 -1 0 0 0 0];

internalField   nonuniform List<scalar> 
18225
(
3.5565e-16
1.07492e-14
2.28113e-14
3.72571e-14
5.36044e-14
7.15013e-14
9.07047e-14
1.1104e-13
1.32375e-13
1.54602e-13
1.77635e-13
2.01396e-13
2.2582e-13
2.50845e-13
2.76419e-13
3.02489e-13
3.29011e-13
3.55938e-13
3.83229e-13
4.10844e-13
4.38743e-13
4.6689e-13
4.95247e-13
5.23778e-13
5.5245e-13
5.81226e-13
6.10074e-13
6.3896e-13
6.67851e-13
6.96715e-13
7.25519e-13
7.54231e-13
7.8282e-13
8.11254e-13
8.39502e-13
8.67533e-13
8.95317e-13
9.22823e-13
9.50021e-13
9.76881e-13
1.00337e-12
1.02947e-12
1.05514e-12
1.08036e-12
1.10509e-12
1.12931e-12
1.153e-12
1.17612e-12
1.19864e-12
1.22054e-12
1.2418e-12
1.26239e-12
1.28228e-12
1.30144e-12
1.31986e-12
1.3375e-12
1.35435e-12
1.37038e-12
1.38556e-12
1.39988e-12
1.41331e-12
1.42583e-12
1.43743e-12
1.44807e-12
1.45775e-12
1.46643e-12
1.47411e-12
1.48077e-12
1.48638e-12
1.49094e-12
1.49443e-12
1.49683e-12
1.49813e-12
1.49831e-12
1.49738e-12
1.49531e-12
1.49211e-12
1.48775e-12
1.48223e-12
1.47556e-12
1.46772e-12
1.45871e-12
1.44854e-12
1.4372e-12
1.42469e-12
1.41103e-12
1.39621e-12
1.38025e-12
1.36316e-12
1.34494e-12
1.32561e-12
1.30518e-12
1.28369e-12
1.26113e-12
1.23755e-12
1.21295e-12
1.18737e-12
1.16084e-12
1.13338e-12
1.10503e-12
1.07583e-12
1.04582e-12
1.01502e-12
9.83497e-13
9.51279e-13
9.18417e-13
8.84961e-13
8.50962e-13
8.16473e-13
7.81549e-13
7.46249e-13
7.10632e-13
6.74762e-13
6.38702e-13
6.02521e-13
5.66287e-13
5.30075e-13
4.93958e-13
4.58015e-13
4.22329e-13
3.86984e-13
3.52072e-13
3.17688e-13
2.83934e-13
2.50919e-13
2.18762e-13
1.87596e-13
1.5757e-13
1.28858e-13
1.01671e-13
7.62788e-14
5.30458e-14
3.24902e-14
1.53133e-14
5.06669e-16
2.40633e-15
3.50739e-13
1.87779e-12
4.40427e-12
7.42783e-12
1.07146e-11
1.41855e-11
1.78113e-11
2.15772e-11
2.54725e-11
2.94876e-11
3.36138e-11
3.78428e-11
4.21666e-11
4.65775e-11
5.10681e-11
5.56315e-11
6.02608e-11
6.49495e-11
6.9691e-11
7.44791e-11
7.93077e-11
8.41709e-11
8.90626e-11
9.39772e-11
9.89088e-11
1.03852e-10
1.08801e-10
1.1375e-10
1.18694e-10
1.23627e-10
1.28544e-10
1.33439e-10
1.38308e-10
1.43145e-10
1.47944e-10
1.52701e-10
1.5741e-10
1.62066e-10
1.66664e-10
1.71199e-10
1.75667e-10
1.80061e-10
1.84377e-10
1.88611e-10
1.92758e-10
1.96812e-10
2.00769e-10
2.04624e-10
2.08374e-10
2.12013e-10
2.15536e-10
2.18941e-10
2.22221e-10
2.25374e-10
2.28395e-10
2.31279e-10
2.34023e-10
2.36623e-10
2.39075e-10
2.41375e-10
2.4352e-10
2.45506e-10
2.47329e-10
2.48987e-10
2.50475e-10
2.51791e-10
2.52932e-10
2.53895e-10
2.54677e-10
2.55275e-10
2.55687e-10
2.55911e-10
2.55946e-10
2.55788e-10
2.55436e-10
2.54889e-10
2.54146e-10
2.53204e-10
2.52064e-10
2.50724e-10
2.49185e-10
2.47446e-10
2.45508e-10
2.4337e-10
2.41033e-10
2.385e-10
2.3577e-10
2.32845e-10
2.29728e-10
2.26421e-10
2.22926e-10
2.19247e-10
2.15387e-10
2.1135e-10
2.07139e-10
2.02759e-10
1.98216e-10
1.93514e-10
1.88659e-10
1.83657e-10
1.78515e-10
1.73238e-10
1.67835e-10
1.62313e-10
1.56679e-10
1.50943e-10
1.45112e-10
1.39196e-10
1.33203e-10
1.27145e-10
1.2103e-10
1.1487e-10
1.08675e-10
1.02456e-10
9.62257e-11
8.9995e-11
8.37766e-11
7.75834e-11
7.14285e-11
6.53256e-11
5.92888e-11
5.33327e-11
4.74724e-11
4.17236e-11
3.61026e-11
3.0626e-11
2.53115e-11
2.01786e-11
1.52526e-11
1.0579e-11
6.27429e-12
2.67527e-12
4.99733e-13
3.4291e-15
5.3589e-15
8.80431e-13
6.03722e-12
1.81396e-11
3.68488e-11
6.03165e-11
8.68532e-11
1.1538e-10
1.45295e-10
1.7627e-10
2.08122e-10
2.4074e-10
2.74046e-10
3.0798e-10
3.42491e-10
3.77534e-10
4.13062e-10
4.49035e-10
4.85408e-10
5.22139e-10
5.59188e-10
5.96513e-10
6.34071e-10
6.71823e-10
7.09726e-10
7.47739e-10
7.85823e-10
8.23935e-10
8.62035e-10
9.00083e-10
9.38038e-10
9.75859e-10
1.01351e-09
1.05094e-09
1.08812e-09
1.12501e-09
1.16157e-09
1.19776e-09
1.23353e-09
1.26886e-09
1.3037e-09
1.33801e-09
1.37176e-09
1.40491e-09
1.43743e-09
1.46927e-09
1.5004e-09
1.53078e-09
1.56039e-09
1.58917e-09
1.61711e-09
1.64417e-09
1.67031e-09
1.69549e-09
1.7197e-09
1.74289e-09
1.76504e-09
1.78611e-09
1.80607e-09
1.8249e-09
1.84257e-09
1.85904e-09
1.8743e-09
1.88831e-09
1.90105e-09
1.91249e-09
1.92261e-09
1.93139e-09
1.93881e-09
1.94484e-09
1.94946e-09
1.95266e-09
1.95441e-09
1.95471e-09
1.95354e-09
1.95088e-09
1.94672e-09
1.94105e-09
1.93386e-09
1.92514e-09
1.9149e-09
1.90312e-09
1.88981e-09
1.87496e-09
1.85858e-09
1.84067e-09
1.82124e-09
1.8003e-09
1.77786e-09
1.75394e-09
1.72856e-09
1.70172e-09
1.67347e-09
1.64381e-09
1.61278e-09
1.58041e-09
1.54674e-09
1.51179e-09
1.47561e-09
1.43824e-09
1.39973e-09
1.36012e-09
1.31946e-09
1.27781e-09
1.23522e-09
1.19176e-09
1.14747e-09
1.10244e-09
1.05671e-09
1.01037e-09
9.63489e-10
9.16133e-10
8.68382e-10
8.20314e-10
7.72011e-10
7.23555e-10
6.75032e-10
6.26528e-10
5.78131e-10
5.29934e-10
4.82029e-10
4.34513e-10
3.87486e-10
3.41056e-10
2.95344e-10
2.50498e-10
2.06716e-10
1.64298e-10
1.23749e-10
8.5967e-11
5.25259e-11
2.58581e-11
8.60726e-12
1.25563e-12
7.6448e-15
8.88045e-15
1.49595e-12
1.09649e-11
3.62976e-11
8.18048e-11
1.47096e-10
2.28887e-10
3.23204e-10
4.26634e-10
5.3666e-10
6.5156e-10
7.70191e-10
8.91797e-10
1.01586e-09
1.14203e-09
1.27001e-09
1.39962e-09
1.53065e-09
1.66294e-09
1.79636e-09
1.93076e-09
2.06599e-09
2.20192e-09
2.33842e-09
2.47534e-09
2.61256e-09
2.74994e-09
2.88733e-09
3.0246e-09
3.16162e-09
3.29825e-09
3.43434e-09
3.56976e-09
3.70437e-09
3.83803e-09
3.9706e-09
4.10195e-09
4.23194e-09
4.36042e-09
4.48728e-09
4.61236e-09
4.73554e-09
4.85669e-09
4.97566e-09
5.09233e-09
5.20658e-09
5.31826e-09
5.42727e-09
5.53346e-09
5.63672e-09
5.73692e-09
5.83395e-09
5.92768e-09
6.01801e-09
6.1048e-09
6.18796e-09
6.26738e-09
6.34293e-09
6.41452e-09
6.48205e-09
6.5454e-09
6.60449e-09
6.65921e-09
6.70947e-09
6.75518e-09
6.79625e-09
6.83259e-09
6.86413e-09
6.89077e-09
6.91246e-09
6.92911e-09
6.94066e-09
6.94704e-09
6.9482e-09
6.94409e-09
6.93465e-09
6.91983e-09
6.89959e-09
6.87392e-09
6.84276e-09
6.80612e-09
6.76396e-09
6.71629e-09
6.66311e-09
6.60441e-09
6.54022e-09
6.47056e-09
6.39546e-09
6.31495e-09
6.2291e-09
6.13795e-09
6.04156e-09
5.94003e-09
5.83343e-09
5.72185e-09
5.60541e-09
5.48421e-09
5.35838e-09
5.22806e-09
5.09338e-09
4.95451e-09
4.8116e-09
4.66483e-09
4.51438e-09
4.36045e-09
4.20323e-09
4.04293e-09
3.87978e-09
3.714e-09
3.54583e-09
3.37551e-09
3.20329e-09
3.02943e-09
2.8542e-09
2.67788e-09
2.50075e-09
2.3231e-09
2.14525e-09
1.96753e-09
1.79027e-09
1.61387e-09
1.43877e-09
1.2655e-09
1.09473e-09
9.2735e-10
7.64602e-10
6.08289e-10
4.61031e-10
3.2657e-10
2.09894e-10
1.16738e-10
5.18087e-11
1.56569e-11
2.13721e-12
1.26917e-14
1.28175e-14
2.17778e-12
1.63548e-11
5.63569e-11
1.33631e-10
2.53767e-10
4.16258e-10
6.16424e-10
8.47817e-10
1.10398e-09
1.37934e-09
1.66948e-09
1.97106e-09
2.2816e-09
2.59927e-09
2.92274e-09
3.25098e-09
3.58321e-09
3.91878e-09
4.25716e-09
4.59791e-09
4.94061e-09
5.28488e-09
5.63036e-09
5.9767e-09
6.32357e-09
6.67062e-09
7.01752e-09
7.36394e-09
7.70954e-09
8.05399e-09
8.39696e-09
8.7381e-09
9.07708e-09
9.41357e-09
9.74723e-09
1.00777e-08
1.04047e-08
1.07278e-08
1.10468e-08
1.13612e-08
1.16708e-08
1.19753e-08
1.22742e-08
1.25673e-08
1.28543e-08
1.31348e-08
1.34086e-08
1.36753e-08
1.39345e-08
1.41861e-08
1.44297e-08
1.4665e-08
1.48918e-08
1.51097e-08
1.53184e-08
1.55177e-08
1.57074e-08
1.58871e-08
1.60566e-08
1.62156e-08
1.6364e-08
1.65014e-08
1.66276e-08
1.67423e-08
1.68455e-08
1.69368e-08
1.70161e-08
1.70831e-08
1.71376e-08
1.71796e-08
1.72087e-08
1.72249e-08
1.7228e-08
1.72178e-08
1.71943e-08
1.71573e-08
1.71067e-08
1.70424e-08
1.69643e-08
1.68724e-08
1.67667e-08
1.66471e-08
1.65135e-08
1.63661e-08
1.62049e-08
1.60298e-08
1.5841e-08
1.56385e-08
1.54224e-08
1.5193e-08
1.49503e-08
1.46945e-08
1.44258e-08
1.41444e-08
1.38506e-08
1.35447e-08
1.32269e-08
1.28976e-08
1.2557e-08
1.22057e-08
1.18439e-08
1.1472e-08
1.10906e-08
1.07001e-08
1.03009e-08
9.89356e-09
9.47864e-09
9.05666e-09
8.6282e-09
8.19388e-09
7.75432e-09
7.31018e-09
6.86216e-09
6.411e-09
5.9575e-09
5.5025e-09
5.04698e-09
4.592e-09
4.13883e-09
3.68899e-09
3.24432e-09
2.8072e-09
2.3807e-09
1.96881e-09
1.5768e-09
1.21141e-09
8.80969e-10
5.94965e-10
3.6276e-10
1.91073e-10
8.06188e-11
2.34103e-11
3.11932e-12
1.83663e-14
1.70737e-14
2.91211e-12
2.2112e-11
7.76688e-11
1.89049e-10
3.70261e-10
6.27652e-10
9.60288e-10
1.36198e-09
1.82372e-09
2.33576e-09
2.88885e-09
3.47499e-09
4.08751e-09
4.72109e-09
5.37149e-09
6.03541e-09
6.71026e-09
7.39395e-09
8.0848e-09
8.78142e-09
9.48263e-09
1.01874e-08
1.08948e-08
1.16039e-08
1.23141e-08
1.30246e-08
1.37346e-08
1.44434e-08
1.51503e-08
1.58547e-08
1.65559e-08
1.72532e-08
1.79459e-08
1.86333e-08
1.93148e-08
1.99896e-08
2.06572e-08
2.13168e-08
2.19678e-08
2.26094e-08
2.32411e-08
2.38622e-08
2.4472e-08
2.50699e-08
2.56551e-08
2.62272e-08
2.67854e-08
2.73291e-08
2.78577e-08
2.83707e-08
2.88673e-08
2.9347e-08
2.98092e-08
3.02534e-08
3.06789e-08
3.10853e-08
3.14719e-08
3.18383e-08
3.21839e-08
3.25082e-08
3.28107e-08
3.30909e-08
3.33483e-08
3.35825e-08
3.37931e-08
3.39795e-08
3.41413e-08
3.42782e-08
3.43898e-08
3.44756e-08
3.45354e-08
3.45688e-08
3.45755e-08
3.45553e-08
3.45077e-08
3.44326e-08
3.43297e-08
3.41989e-08
3.404e-08
3.38528e-08
3.36373e-08
3.33934e-08
3.3121e-08
3.28201e-08
3.24908e-08
3.21332e-08
3.17473e-08
3.13333e-08
3.08914e-08
3.04219e-08
2.99249e-08
2.9401e-08
2.88503e-08
2.82734e-08
2.76707e-08
2.70427e-08
2.639e-08
2.57133e-08
2.50131e-08
2.42902e-08
2.35453e-08
2.27794e-08
2.19932e-08
2.11876e-08
2.03637e-08
1.95225e-08
1.86651e-08
1.77926e-08
1.69063e-08
1.60074e-08
1.50975e-08
1.41781e-08
1.32507e-08
1.23173e-08
1.13798e-08
1.04408e-08
9.50284e-09
8.56917e-09
7.64364e-09
6.73093e-09
5.83678e-09
4.96826e-09
4.13403e-09
3.34461e-09
2.6124e-09
1.95137e-09
1.37602e-09
8.99506e-10
5.30768e-10
2.7112e-10
1.11459e-10
3.17563e-11
4.18531e-12
2.45487e-14
2.15787e-14
3.68791e-12
2.81657e-11
9.99559e-11
2.46878e-10
4.92373e-10
8.51936e-10
1.33193e-09
1.93044e-09
2.63944e-09
3.44719e-09
4.34046e-09
5.30609e-09
6.33194e-09
7.40734e-09
8.52322e-09
9.67203e-09
1.08475e-08
1.20446e-08
1.3259e-08
1.44873e-08
1.57266e-08
1.69744e-08
1.82285e-08
1.94869e-08
2.0748e-08
2.20102e-08
2.3272e-08
2.45319e-08
2.57887e-08
2.70411e-08
2.82877e-08
2.95273e-08
3.07588e-08
3.19808e-08
3.31921e-08
3.43917e-08
3.55782e-08
3.67504e-08
3.79073e-08
3.90475e-08
4.017e-08
4.12736e-08
4.23571e-08
4.34194e-08
4.44593e-08
4.54757e-08
4.64675e-08
4.74336e-08
4.83729e-08
4.92843e-08
5.01668e-08
5.10193e-08
5.18407e-08
5.26302e-08
5.33866e-08
5.41089e-08
5.47963e-08
5.54478e-08
5.60624e-08
5.66392e-08
5.71774e-08
5.7676e-08
5.81343e-08
5.85513e-08
5.89263e-08
5.92585e-08
5.95472e-08
5.97916e-08
5.9991e-08
6.01448e-08
6.02522e-08
6.03127e-08
6.03258e-08
6.0291e-08
6.02076e-08
6.00751e-08
5.98932e-08
5.96615e-08
5.93797e-08
5.90475e-08
5.86648e-08
5.82312e-08
5.77468e-08
5.72115e-08
5.66253e-08
5.59883e-08
5.53006e-08
5.45625e-08
5.37742e-08
5.29362e-08
5.20489e-08
5.11128e-08
5.01285e-08
4.90968e-08
4.80184e-08
4.68942e-08
4.57252e-08
4.45124e-08
4.3257e-08
4.19603e-08
4.06235e-08
3.92482e-08
3.78359e-08
3.63883e-08
3.49072e-08
3.33947e-08
3.18527e-08
3.02836e-08
2.86898e-08
2.70741e-08
2.54395e-08
2.37892e-08
2.21271e-08
2.04573e-08
1.87847e-08
1.7115e-08
1.54547e-08
1.38115e-08
1.21947e-08
1.06149e-08
9.08508e-09
7.62013e-09
6.23723e-09
4.95546e-09
3.79506e-09
2.77596e-09
1.91552e-09
1.22547e-09
7.08523e-10
3.55463e-10
1.44029e-10
4.06193e-11
5.32263e-12
3.11568e-14
2.62756e-14
4.49594e-12
3.44531e-11
1.23011e-10
3.06498e-10
6.18168e-10
1.08373e-09
1.71894e-09
2.52919e-09
3.51088e-09
4.65354e-09
5.9424e-09
7.36056e-09
8.89074e-09
1.05164e-08
1.22226e-08
1.39958e-08
1.58246e-08
1.7699e-08
1.96107e-08
2.15526e-08
2.35186e-08
2.55035e-08
2.75029e-08
2.95129e-08
3.153e-08
3.35512e-08
3.55736e-08
3.75946e-08
3.96118e-08
4.16228e-08
4.36254e-08
4.56174e-08
4.75967e-08
4.95613e-08
5.1509e-08
5.3438e-08
5.53463e-08
5.72319e-08
5.90929e-08
6.09275e-08
6.27336e-08
6.45094e-08
6.62531e-08
6.79628e-08
6.96367e-08
7.12729e-08
7.28698e-08
7.44254e-08
7.59381e-08
7.74062e-08
7.88278e-08
8.02013e-08
8.15252e-08
8.27976e-08
8.40171e-08
8.5182e-08
8.62907e-08
8.73418e-08
8.83337e-08
8.9265e-08
9.01342e-08
9.09399e-08
9.16808e-08
9.23554e-08
9.29624e-08
9.35007e-08
9.39688e-08
9.43658e-08
9.46903e-08
9.49413e-08
9.51177e-08
9.52184e-08
9.52427e-08
9.51897e-08
9.50583e-08
9.48477e-08
9.45572e-08
9.41862e-08
9.37342e-08
9.32006e-08
9.2585e-08
9.18872e-08
9.11068e-08
9.02438e-08
8.92981e-08
8.82698e-08
8.71591e-08
8.59662e-08
8.46915e-08
8.33357e-08
8.18994e-08
8.03834e-08
7.87886e-08
7.7116e-08
7.5367e-08
7.35429e-08
7.16453e-08
6.96758e-08
6.76363e-08
6.5529e-08
6.3356e-08
6.11198e-08
5.88232e-08
5.64691e-08
5.40606e-08
5.16014e-08
4.90953e-08
4.65464e-08
4.39597e-08
4.13403e-08
3.86941e-08
3.60278e-08
3.3349e-08
3.06663e-08
2.79895e-08
2.533e-08
2.27009e-08
2.01175e-08
1.75972e-08
1.516e-08
1.28285e-08
1.06273e-08
8.58293e-09
6.72261e-09
5.07226e-09
3.65418e-09
2.4838e-09
1.56635e-09
8.93858e-10
4.43479e-10
1.78133e-10
4.99359e-11
6.52141e-12
3.81291e-14
3.11166e-14
5.32821e-12
4.09176e-11
1.46649e-10
3.67438e-10
7.46475e-10
1.32011e-09
2.11451e-09
3.14425e-09
4.41267e-09
5.91348e-09
7.63317e-09
9.55345e-09
1.16535e-08
1.39116e-08
1.6307e-08
1.88198e-08
2.14322e-08
2.41284e-08
2.68943e-08
2.97177e-08
3.25881e-08
3.54962e-08
3.84341e-08
4.13947e-08
4.43718e-08
4.73599e-08
5.03541e-08
5.33497e-08
5.63425e-08
5.93286e-08
6.23044e-08
6.52663e-08
6.8211e-08
7.11351e-08
7.40356e-08
7.69093e-08
7.97532e-08
8.25643e-08
8.53395e-08
8.80761e-08
9.0771e-08
9.34214e-08
9.60246e-08
9.85777e-08
1.01078e-07
1.03523e-07
1.05909e-07
1.08235e-07
1.10497e-07
1.12692e-07
1.1482e-07
1.16875e-07
1.18857e-07
1.20763e-07
1.2259e-07
1.24336e-07
1.25999e-07
1.27576e-07
1.29064e-07
1.30463e-07
1.31769e-07
1.32981e-07
1.34096e-07
1.35112e-07
1.36027e-07
1.36839e-07
1.37547e-07
1.38149e-07
1.38642e-07
1.39025e-07
1.39297e-07
1.39455e-07
1.39499e-07
1.39427e-07
1.39238e-07
1.38929e-07
1.38501e-07
1.37951e-07
1.3728e-07
1.36486e-07
1.35569e-07
1.34527e-07
1.33361e-07
1.32071e-07
1.30656e-07
1.29115e-07
1.27451e-07
1.25661e-07
1.23749e-07
1.21713e-07
1.19555e-07
1.17276e-07
1.14877e-07
1.12361e-07
1.09728e-07
1.06982e-07
1.04124e-07
1.01156e-07
9.80831e-08
9.4907e-08
9.16319e-08
8.82616e-08
8.48007e-08
8.12541e-08
7.76273e-08
7.39262e-08
7.01578e-08
6.63296e-08
6.24499e-08
5.8528e-08
5.45745e-08
5.06014e-08
4.66222e-08
4.26524e-08
3.87097e-08
3.4814e-08
3.09879e-08
2.72567e-08
2.36486e-08
2.01944e-08
1.69273e-08
1.38821e-08
1.10935e-08
8.59436e-09
6.41283e-09
4.56935e-09
3.07313e-09
1.91907e-09
1.08566e-09
5.34754e-10
2.13602e-10
5.96509e-11
7.77359e-12
4.54162e-14
3.60594e-14
6.17763e-12
4.75071e-11
1.70695e-10
4.2928e-10
8.76385e-10
1.5591e-09
2.51444e-09
3.76711e-09
5.32896e-09
7.19999e-09
9.37029e-09
1.18225e-08
1.45343e-08
1.74805e-08
2.06351e-08
2.39727e-08
2.74687e-08
3.11008e-08
3.48486e-08
3.86937e-08
4.26199e-08
4.66129e-08
5.06598e-08
5.47495e-08
5.88719e-08
6.30181e-08
6.718e-08
7.13504e-08
7.55226e-08
7.96903e-08
8.38477e-08
8.79895e-08
9.21104e-08
9.62056e-08
1.0027e-07
1.043e-07
1.08289e-07
1.12235e-07
1.16132e-07
1.19977e-07
1.23765e-07
1.27492e-07
1.31154e-07
1.34748e-07
1.38268e-07
1.41712e-07
1.45075e-07
1.48354e-07
1.51545e-07
1.54643e-07
1.57646e-07
1.60551e-07
1.63352e-07
1.66047e-07
1.68632e-07
1.71104e-07
1.73459e-07
1.75695e-07
1.77807e-07
1.79792e-07
1.81648e-07
1.83371e-07
1.84958e-07
1.86407e-07
1.87714e-07
1.88876e-07
1.89891e-07
1.90755e-07
1.91467e-07
1.92024e-07
1.92423e-07
1.92662e-07
1.92739e-07
1.92652e-07
1.92399e-07
1.91977e-07
1.91385e-07
1.90621e-07
1.89684e-07
1.88573e-07
1.87287e-07
1.85824e-07
1.84183e-07
1.82366e-07
1.8037e-07
1.78196e-07
1.75844e-07
1.73315e-07
1.70608e-07
1.67727e-07
1.6467e-07
1.61441e-07
1.5804e-07
1.54471e-07
1.50736e-07
1.46838e-07
1.42781e-07
1.38568e-07
1.34205e-07
1.29696e-07
1.25047e-07
1.20264e-07
1.15355e-07
1.10327e-07
1.05189e-07
9.99505e-08
9.46228e-08
8.92181e-08
8.37504e-08
7.82351e-08
7.26899e-08
6.71345e-08
6.15908e-08
5.60837e-08
5.06409e-08
4.52932e-08
4.00747e-08
3.50228e-08
3.01774e-08
2.55811e-08
2.12774e-08
1.73096e-08
1.37184e-08
1.05392e-08
7.79887e-09
5.51237e-09
3.67936e-09
2.28186e-09
1.28319e-09
6.28938e-10
2.50281e-10
6.9716e-11
9.07231e-12
5.29772e-14
4.10665e-14
7.03781e-12
5.41741e-11
1.94987e-10
4.91632e-10
1.0071e-09
1.79914e-09
2.91572e-09
4.39203e-09
6.24931e-09
8.49509e-09
1.11248e-08
1.41238e-08
1.74702e-08
2.11371e-08
2.50949e-08
2.93129e-08
3.37609e-08
3.841e-08
4.32333e-08
4.82058e-08
5.3305e-08
5.85104e-08
6.38038e-08
6.91687e-08
7.45905e-08
8.0056e-08
8.55531e-08
9.10711e-08
9.65999e-08
1.02131e-07
1.07654e-07
1.13164e-07
1.1865e-07
1.24108e-07
1.2953e-07
1.34908e-07
1.40238e-07
1.45513e-07
1.50726e-07
1.55872e-07
1.60946e-07
1.65941e-07
1.70852e-07
1.75673e-07
1.80399e-07
1.85026e-07
1.89546e-07
1.93956e-07
1.9825e-07
2.02422e-07
2.06469e-07
2.10384e-07
2.14163e-07
2.17802e-07
2.21295e-07
2.24637e-07
2.27824e-07
2.30851e-07
2.33715e-07
2.36409e-07
2.3893e-07
2.41274e-07
2.43436e-07
2.45412e-07
2.47198e-07
2.4879e-07
2.50184e-07
2.51377e-07
2.52364e-07
2.53141e-07
2.53707e-07
2.54056e-07
2.54187e-07
2.54096e-07
2.53781e-07
2.53237e-07
2.52463e-07
2.51456e-07
2.50215e-07
2.48737e-07
2.47021e-07
2.45065e-07
2.42868e-07
2.4043e-07
2.3775e-07
2.34827e-07
2.31661e-07
2.28254e-07
2.24606e-07
2.20718e-07
2.16592e-07
2.12231e-07
2.07636e-07
2.02812e-07
1.97761e-07
1.9249e-07
1.87002e-07
1.81303e-07
1.754e-07
1.69301e-07
1.63014e-07
1.56549e-07
1.49917e-07
1.43129e-07
1.362e-07
1.29144e-07
1.21978e-07
1.14721e-07
1.07394e-07
1.00022e-07
9.26296e-08
8.52475e-08
7.79082e-08
7.0648e-08
6.35068e-08
5.65282e-08
4.97591e-08
4.32497e-08
3.70523e-08
3.12201e-08
2.5806e-08
2.08597e-08
1.64254e-08
1.25379e-08
9.21982e-09
6.47785e-09
4.29988e-09
2.65346e-09
1.48579e-09
7.2571e-10
2.88031e-10
8.0088e-11
1.04116e-11
6.07765e-14
4.61036e-14
7.90294e-12
6.0875e-11
2.19373e-10
5.54125e-10
1.13787e-09
2.03887e-09
3.3159e-09
5.0147e-09
7.16619e-09
9.78616e-09
1.28763e-08
1.64263e-08
2.04159e-08
2.4818e-08
2.96007e-08
3.47295e-08
4.01693e-08
4.58854e-08
5.18442e-08
5.80145e-08
6.43671e-08
7.08754e-08
7.75148e-08
8.42633e-08
9.11009e-08
9.80094e-08
1.04972e-07
1.11974e-07
1.19002e-07
1.26042e-07
1.33084e-07
1.40115e-07
1.47127e-07
1.54108e-07
1.6105e-07
1.67944e-07
1.7478e-07
1.81552e-07
1.88251e-07
1.94868e-07
2.01397e-07
2.0783e-07
2.14159e-07
2.20377e-07
2.26477e-07
2.32452e-07
2.38295e-07
2.43999e-07
2.49558e-07
2.54963e-07
2.60209e-07
2.6529e-07
2.70198e-07
2.74927e-07
2.7947e-07
2.83823e-07
2.87977e-07
2.91927e-07
2.95667e-07
2.99191e-07
3.02493e-07
3.05568e-07
3.08408e-07
3.1101e-07
3.13366e-07
3.15472e-07
3.17323e-07
3.18913e-07
3.20238e-07
3.21291e-07
3.22069e-07
3.22568e-07
3.22781e-07
3.22707e-07
3.22342e-07
3.21678e-07
3.20714e-07
3.19447e-07
3.17873e-07
3.15991e-07
3.13797e-07
3.11289e-07
3.08466e-07
3.05326e-07
3.01869e-07
2.98094e-07
2.94001e-07
2.89591e-07
2.84865e-07
2.79824e-07
2.74471e-07
2.68809e-07
2.62841e-07
2.56573e-07
2.50009e-07
2.43156e-07
2.36021e-07
2.28613e-07
2.20941e-07
2.13016e-07
2.0485e-07
1.96457e-07
1.87852e-07
1.79054e-07
1.70082e-07
1.60957e-07
1.51705e-07
1.42352e-07
1.32928e-07
1.23469e-07
1.14011e-07
1.04595e-07
9.52673e-08
8.60768e-08
7.70772e-08
6.83258e-08
5.98833e-08
5.18124e-08
4.41772e-08
3.70409e-08
3.04637e-08
2.44997e-08
1.91938e-08
1.45782e-08
1.06689e-08
7.46216e-09
4.93275e-09
3.03283e-09
1.6929e-09
8.24767e-10
3.26719e-10
9.07275e-11
1.17862e-11
6.87826e-14
5.11395e-14
8.7677e-12
6.75693e-11
2.43712e-10
6.16415e-10
1.268e-09
2.27704e-09
3.71285e-09
5.63155e-09
8.07374e-09
1.10637e-08
1.461e-08
1.87071e-08
2.33378e-08
2.84758e-08
3.40882e-08
4.01377e-08
4.65852e-08
5.33907e-08
6.05154e-08
6.79215e-08
7.55736e-08
8.34387e-08
9.14861e-08
9.96879e-08
1.08018e-07
1.16454e-07
1.24973e-07
1.33556e-07
1.42184e-07
1.50842e-07
1.59514e-07
1.68185e-07
1.76841e-07
1.85471e-07
1.94061e-07
2.026e-07
2.11077e-07
2.19481e-07
2.27803e-07
2.36031e-07
2.44156e-07
2.52168e-07
2.60058e-07
2.67816e-07
2.75434e-07
2.82901e-07
2.9021e-07
2.97352e-07
3.04316e-07
3.11096e-07
3.17682e-07
3.24066e-07
3.3024e-07
3.36194e-07
3.41921e-07
3.47413e-07
3.52661e-07
3.57658e-07
3.62395e-07
3.66865e-07
3.7106e-07
3.74972e-07
3.78594e-07
3.81919e-07
3.84938e-07
3.87645e-07
3.90033e-07
3.92095e-07
3.93825e-07
3.95215e-07
3.96259e-07
3.96951e-07
3.97286e-07
3.97258e-07
3.96864e-07
3.96093e-07
3.94943e-07
3.9341e-07
3.9149e-07
3.89178e-07
3.86472e-07
3.83368e-07
3.79865e-07
3.7596e-07
3.71652e-07
3.66941e-07
3.61826e-07
3.56307e-07
3.50388e-07
3.44069e-07
3.37353e-07
3.30245e-07
3.2275e-07
3.14874e-07
3.06625e-07
2.9801e-07
2.8904e-07
2.79727e-07
2.70083e-07
2.60124e-07
2.49867e-07
2.3933e-07
2.28537e-07
2.1751e-07
2.06276e-07
1.94868e-07
1.83317e-07
1.71661e-07
1.59942e-07
1.48205e-07
1.36501e-07
1.24883e-07
1.13412e-07
1.02152e-07
9.11692e-08
8.05366e-08
7.0328e-08
6.06188e-08
5.14836e-08
4.29943e-08
3.52166e-08
2.8207e-08
2.20097e-08
1.66519e-08
1.21412e-08
8.46248e-09
5.57635e-09
3.41899e-09
1.90394e-09
9.25819e-10
3.66223e-10
1.01599e-10
1.31912e-11
7.69671e-14
5.61459e-14
9.62724e-12
7.422e-11
2.67873e-10
6.78176e-10
1.39685e-09
2.51248e-09
4.10463e-09
6.23947e-09
8.96706e-09
1.23201e-08
1.63141e-08
2.09489e-08
2.62108e-08
3.20751e-08
3.85086e-08
4.54725e-08
5.29242e-08
6.08198e-08
6.91152e-08
7.77671e-08
8.67344e-08
9.59777e-08
1.05461e-07
1.15149e-07
1.25012e-07
1.3502e-07
1.45146e-07
1.55367e-07
1.65659e-07
1.76002e-07
1.86376e-07
1.96763e-07
2.07145e-07
2.17508e-07
2.27835e-07
2.38113e-07
2.48327e-07
2.58463e-07
2.68509e-07
2.78453e-07
2.88281e-07
2.97982e-07
3.07545e-07
3.16957e-07
3.26207e-07
3.35284e-07
3.44176e-07
3.52873e-07
3.61364e-07
3.69638e-07
3.77684e-07
3.85491e-07
3.93049e-07
4.00348e-07
4.07376e-07
4.14124e-07
4.20582e-07
4.26738e-07
4.32584e-07
4.38109e-07
4.43303e-07
4.48156e-07
4.52659e-07
4.56803e-07
4.60577e-07
4.63973e-07
4.66981e-07
4.69593e-07
4.718e-07
4.73593e-07
4.74964e-07
4.75906e-07
4.76409e-07
4.76468e-07
4.76077e-07
4.75226e-07
4.73908e-07
4.72119e-07
4.69853e-07
4.67105e-07
4.6387e-07
4.60146e-07
4.55928e-07
4.51214e-07
4.46002e-07
4.40291e-07
4.34081e-07
4.27373e-07
4.20169e-07
4.12471e-07
4.04283e-07
3.95611e-07
3.86461e-07
3.76841e-07
3.66762e-07
3.56234e-07
3.45271e-07
3.33888e-07
3.22103e-07
3.09936e-07
2.9741e-07
2.8455e-07
2.71386e-07
2.57948e-07
2.44275e-07
2.30404e-07
2.16382e-07
2.02256e-07
1.8808e-07
1.73914e-07
1.59821e-07
1.45871e-07
1.32137e-07
1.187e-07
1.05641e-07
9.30466e-08
8.10043e-08
6.96012e-08
5.89217e-08
4.90448e-08
4.00403e-08
3.19659e-08
2.48629e-08
1.87525e-08
1.36328e-08
9.47641e-09
6.22916e-09
3.81102e-09
2.11839e-09
1.02859e-09
4.06426e-10
1.12667e-10
1.46222e-11
8.53035e-14
6.10971e-14
1.04772e-11
8.07936e-11
2.91736e-10
7.39112e-10
1.52381e-09
2.74412e-09
4.48946e-09
6.83569e-09
9.84191e-09
1.35489e-08
1.79792e-08
2.3138e-08
2.90153e-08
3.55883e-08
4.28244e-08
5.06838e-08
5.91213e-08
6.80896e-08
7.75402e-08
8.74251e-08
9.76975e-08
1.08313e-07
1.19229e-07
1.30405e-07
1.41807e-07
1.53397e-07
1.65147e-07
1.77025e-07
1.89005e-07
2.01062e-07
2.13172e-07
2.25313e-07
2.37464e-07
2.49607e-07
2.61723e-07
2.73793e-07
2.85802e-07
2.97733e-07
3.0957e-07
3.21299e-07
3.32904e-07
3.4437e-07
3.55684e-07
3.66832e-07
3.77799e-07
3.88573e-07
3.99139e-07
4.09484e-07
4.19594e-07
4.29458e-07
4.39061e-07
4.4839e-07
4.57433e-07
4.66176e-07
4.74607e-07
4.82713e-07
4.90481e-07
4.97898e-07
5.04953e-07
5.11632e-07
5.17924e-07
5.23815e-07
5.29295e-07
5.3435e-07
5.3897e-07
5.43141e-07
5.46854e-07
5.50096e-07
5.52856e-07
5.55125e-07
5.5689e-07
5.58142e-07
5.58871e-07
5.59067e-07
5.58725e-07
5.57832e-07
5.56378e-07
5.54357e-07
5.51763e-07
5.48588e-07
5.44828e-07
5.40476e-07
5.3553e-07
5.29984e-07
5.23838e-07
5.17088e-07
5.09736e-07
5.01782e-07
4.93227e-07
4.84077e-07
4.74335e-07
4.64008e-07
4.53106e-07
4.41638e-07
4.29616e-07
4.17056e-07
4.03976e-07
3.90393e-07
3.76333e-07
3.6182e-07
3.46883e-07
3.31557e-07
3.15878e-07
2.99887e-07
2.8363e-07
2.67159e-07
2.50529e-07
2.33803e-07
2.17047e-07
2.00335e-07
1.83745e-07
1.67363e-07
1.51279e-07
1.35586e-07
1.20383e-07
1.05769e-07
9.18449e-08
7.8709e-08
6.64546e-08
5.51661e-08
4.49168e-08
3.57641e-08
2.77453e-08
2.08748e-08
1.51404e-08
1.05017e-08
6.88973e-09
4.20801e-09
2.3357e-09
1.1328e-09
4.47216e-10
1.23902e-10
1.60749e-11
9.37671e-14
6.59698e-14
1.13135e-11
8.72595e-11
3.15192e-10
7.9895e-10
1.64833e-09
2.97097e-09
4.86575e-09
7.4177e-09
1.06945e-08
1.47448e-08
1.95975e-08
2.52631e-08
3.17353e-08
3.89937e-08
4.70062e-08
5.57325e-08
6.51257e-08
7.51355e-08
8.57097e-08
9.67959e-08
1.08343e-07
1.20301e-07
1.32622e-07
1.45262e-07
1.58179e-07
1.71333e-07
1.84689e-07
1.98212e-07
2.11871e-07
2.25636e-07
2.39481e-07
2.53378e-07
2.67306e-07
2.81239e-07
2.95158e-07
3.0904e-07
3.22868e-07
3.3662e-07
3.5028e-07
3.63829e-07
3.77249e-07
3.90525e-07
4.03638e-07
4.16572e-07
4.29311e-07
4.4184e-07
4.54141e-07
4.66198e-07
4.77997e-07
4.89522e-07
5.00755e-07
5.11683e-07
5.2229e-07
5.32559e-07
5.42475e-07
5.52024e-07
5.61189e-07
5.69955e-07
5.78307e-07
5.8623e-07
5.93708e-07
6.00727e-07
6.07272e-07
6.13327e-07
6.18878e-07
6.23911e-07
6.28412e-07
6.32365e-07
6.35758e-07
6.38577e-07
6.40809e-07
6.42441e-07
6.43461e-07
6.43855e-07
6.43616e-07
6.42733e-07
6.41187e-07
6.38975e-07
6.36086e-07
6.32512e-07
6.28246e-07
6.23281e-07
6.17612e-07
6.11234e-07
6.04145e-07
5.96341e-07
5.87824e-07
5.78592e-07
5.6865e-07
5.58001e-07
5.46652e-07
5.34611e-07
5.21889e-07
5.08498e-07
4.94455e-07
4.79778e-07
4.64488e-07
4.4861e-07
4.32174e-07
4.15212e-07
3.9776e-07
3.7986e-07
3.61558e-07
3.42906e-07
3.2396e-07
3.04784e-07
2.85447e-07
2.66023e-07
2.46596e-07
2.27253e-07
2.0809e-07
1.89206e-07
1.70707e-07
1.52704e-07
1.35309e-07
1.18636e-07
1.02798e-07
8.79034e-08
7.40533e-08
6.13376e-08
4.98316e-08
3.95915e-08
3.06502e-08
2.30141e-08
1.66606e-08
1.15362e-08
7.55663e-09
4.60905e-09
2.55538e-09
1.2382e-09
4.88487e-10
1.35272e-10
1.75454e-11
1.02335e-13
7.07436e-14
1.21327e-11
9.35909e-11
3.38145e-10
8.57447e-10
1.76991e-09
3.19215e-09
5.23204e-09
7.98328e-09
1.15217e-08
1.59029e-08
2.11622e-08
2.73149e-08
3.43581e-08
4.22737e-08
5.10306e-08
6.05879e-08
7.08978e-08
8.19069e-08
9.35603e-08
1.05802e-07
1.18576e-07
1.31828e-07
1.45507e-07
1.59563e-07
1.7395e-07
1.88623e-07
2.03543e-07
2.1867e-07
2.3397e-07
2.49409e-07
2.64956e-07
2.80582e-07
2.96259e-07
3.11962e-07
3.27667e-07
3.43348e-07
3.58985e-07
3.74554e-07
3.90036e-07
4.05409e-07
4.20653e-07
4.3575e-07
4.50679e-07
4.65421e-07
4.79959e-07
4.94272e-07
5.08342e-07
5.22152e-07
5.35682e-07
5.48914e-07
5.6183e-07
5.74411e-07
5.8664e-07
5.98497e-07
6.09964e-07
6.21023e-07
6.31656e-07
6.41844e-07
6.51569e-07
6.60812e-07
6.69557e-07
6.77783e-07
6.85474e-07
6.92611e-07
6.99177e-07
7.05154e-07
7.10524e-07
7.1527e-07
7.19376e-07
7.22825e-07
7.256e-07
7.27686e-07
7.29067e-07
7.29729e-07
7.29657e-07
7.28847e-07
7.27267e-07
7.24915e-07
7.2178e-07
7.17849e-07
7.13115e-07
7.07569e-07
7.01204e-07
6.94015e-07
6.85996e-07
6.77146e-07
6.67464e-07
6.5695e-07
6.45608e-07
6.33442e-07
6.20461e-07
6.06674e-07
5.92094e-07
5.76737e-07
5.60623e-07
5.43774e-07
5.26216e-07
5.07981e-07
4.89102e-07
4.69621e-07
4.49582e-07
4.29034e-07
4.08035e-07
3.86647e-07
3.64939e-07
3.42987e-07
3.20873e-07
2.98687e-07
2.76526e-07
2.54495e-07
2.32704e-07
2.11271e-07
1.90317e-07
1.69967e-07
1.5035e-07
1.31593e-07
1.13822e-07
9.71524e-08
8.16942e-08
6.7542e-08
5.47723e-08
4.34393e-08
3.35711e-08
2.5166e-08
1.81904e-08
1.25777e-08
8.22844e-09
5.01327e-09
2.7769e-09
1.34453e-09
5.30136e-10
1.46749e-10
1.90298e-11
1.10984e-13
7.54008e-14
1.29318e-11
9.97642e-11
3.60509e-10
9.14392e-10
1.88812e-09
3.40688e-09
5.58705e-09
8.53046e-09
1.23204e-08
1.70192e-08
2.26676e-08
2.92854e-08
3.6873e-08
4.54143e-08
5.48789e-08
6.52258e-08
7.64061e-08
8.83643e-08
1.01043e-07
1.14382e-07
1.28323e-07
1.42808e-07
1.57781e-07
1.73188e-07
1.88979e-07
2.05106e-07
2.21525e-07
2.38193e-07
2.55072e-07
2.72125e-07
2.89317e-07
3.06616e-07
3.23992e-07
3.41417e-07
3.58861e-07
3.763e-07
3.93709e-07
4.11062e-07
4.28336e-07
4.45509e-07
4.62558e-07
4.79461e-07
4.96196e-07
5.12741e-07
5.29076e-07
5.45179e-07
5.61029e-07
5.76605e-07
5.91885e-07
6.0685e-07
6.21477e-07
6.35745e-07
6.49634e-07
6.63121e-07
6.76186e-07
6.88807e-07
7.00963e-07
7.12631e-07
7.23791e-07
7.34421e-07
7.445e-07
7.54005e-07
7.62916e-07
7.7121e-07
7.78867e-07
7.85866e-07
7.92185e-07
7.97804e-07
8.02703e-07
8.06861e-07
8.10259e-07
8.12877e-07
8.14698e-07
8.15702e-07
8.15872e-07
8.15201e-07
8.13658e-07
8.11232e-07
8.07911e-07
8.03682e-07
7.98533e-07
7.92454e-07
7.85438e-07
7.77475e-07
7.68562e-07
7.58694e-07
7.4787e-07
7.36091e-07
7.23361e-07
7.09685e-07
6.95072e-07
6.79534e-07
6.63087e-07
6.4575e-07
6.27545e-07
6.08499e-07
5.88645e-07
5.68018e-07
5.46661e-07
5.24622e-07
5.01953e-07
4.78716e-07
4.54976e-07
4.30808e-07
4.06293e-07
3.81521e-07
3.56587e-07
3.31599e-07
3.06667e-07
2.81914e-07
2.57465e-07
2.33455e-07
2.10022e-07
1.87306e-07
1.65451e-07
1.44597e-07
1.24881e-07
1.06429e-07
8.93575e-08
7.37644e-08
5.97277e-08
4.72994e-08
3.65022e-08
2.73261e-08
1.97268e-08
1.36241e-08
8.90375e-09
5.41978e-09
2.99976e-09
1.45154e-09
5.72061e-10
1.58304e-10
2.05245e-11
1.19693e-13
7.99264e-14
1.37082e-11
1.0576e-10
3.82215e-10
9.69603e-10
2.00258e-09
3.61448e-09
5.92969e-09
9.05758e-09
1.30883e-08
1.80901e-08
2.41089e-08
3.11682e-08
3.92714e-08
4.84039e-08
5.85363e-08
6.96271e-08
8.16264e-08
9.44772e-08
1.08119e-07
1.2249e-07
1.37529e-07
1.53173e-07
1.69363e-07
1.86043e-07
2.03159e-07
2.20659e-07
2.38495e-07
2.56623e-07
2.75e-07
2.93586e-07
3.12345e-07
3.31241e-07
3.50242e-07
3.69316e-07
3.88433e-07