/*--------------------------------*- C++ -*----------------------------------*\
  =========                 |
  \\      /  F ield         | OpenFOAM: The Open Source CFD Toolbox
   \\    /   O peration     | Website:  https://openfoam.org
    \\  /    A nd           | Version:  12
     \\/     M anipulation  |
\*---------------------------------------------------------------------------*/
FoamFile
{
    format      ascii;
    class       volScalarField;
    location    "0.1";
    object      nut;
}
// * * * * * * * * * * * * * * * * * * * * * * * * * * * * * * * * * * * * * //

dimensions      [0 2 -1 0 0 0 0];

internalField   nonuniform List<scalar> 
900
(
5.94288e-17
2.95676e-16
6.38156e-16
1.03616e-15
1.46338e-15
1.9012e-15
2.33435e-15
2.74955e-15
3.13513e-15
3.48093e-15
3.77831e-15
4.02019e-15
4.20109e-15
4.31716e-15
4.36621e-15
4.34793e-15
4.26328e-15
4.11478e-15
3.90642e-15
3.64353e-15
3.33267e-15
2.98152e-15
2.59881e-15
2.19424e-15
1.7785e-15
1.36338e-15
9.62227e-16
5.91207e-16
2.73516e-16
5.49511e-17
2.95781e-16
2.76039e-14
9.17229e-14
1.65591e-13
2.42662e-13
3.20443e-13
3.96766e-13
4.69585e-13
5.37017e-13
5.97381e-13
6.49232e-13
6.91373e-13
7.22878e-13
7.43087e-13
7.51627e-13
7.48451e-13
7.33714e-13
7.07866e-13
6.71593e-13
6.2581e-13
5.71636e-13
5.10379e-13
4.43507e-13
3.7263e-13
2.99476e-13
2.25855e-13
1.53629e-13
8.49137e-14
2.55277e-14
2.73413e-16
6.3928e-16
9.18129e-14
4.54542e-13
9.93972e-13
1.58896e-12
2.19033e-12
2.77591e-12
3.33047e-12
3.84109e-12
4.29628e-12
4.6861e-12
5.00223e-12
5.23821e-12
5.38943e-12
5.45328e-12
5.42965e-12
5.31968e-12
5.12659e-12
4.85536e-12
4.51255e-12
4.10614e-12
3.64537e-12
3.14046e-12
2.60251e-12
2.04337e-12
1.47643e-12
9.20924e-13
4.20413e-13
8.48284e-14
5.9012e-16
1.04039e-15
1.66099e-13
9.95607e-13
2.54522e-12
4.48166e-12
6.53733e-12
8.56919e-12
1.0498e-11
1.22709e-11
1.38472e-11
1.51938e-11
1.62837e-11
1.70962e-11
1.76166e-11
1.78369e-11
1.77573e-11
1.73817e-11
1.67207e-11
1.57908e-11
1.46136e-11
1.32153e-11
1.16261e-11
9.88062e-12
8.01806e-12
6.08676e-12
4.15683e-12
2.35442e-12
9.19382e-13
1.53146e-13
9.58155e-16
1.47408e-15
2.44174e-13
1.59606e-12
4.49344e-12
8.54242e-12
1.31401e-11
1.78435e-11
2.2379e-11
2.65747e-11
3.03128e-11
3.35067e-11
3.60906e-11
3.80161e-11
3.92494e-11
3.97726e-11
3.95878e-11
3.8704e-11
3.71461e-11
3.49526e-11
3.21738e-11
2.88719e-11
2.51211e-11
2.10107e-11
1.66527e-11
1.22025e-11
7.90266e-12
4.14573e-12
1.4697e-12
2.24412e-13
1.3531e-15
1.92296e-15
3.23771e-13
2.20894e-12
6.57956e-12
1.31899e-11
2.11629e-11
2.96422e-11
3.80059e-11
4.58397e-11
5.28654e-11
5.88872e-11
6.37659e-11
6.74032e-11
6.97332e-11
7.07214e-11
7.03742e-11
6.87082e-11
6.57726e-11
6.16417e-11
5.64142e-11
5.02149e-11
4.31984e-11
3.55608e-11
2.75637e-11
1.95795e-11
1.21556e-11
6.04685e-12
2.02571e-12
2.96294e-13
1.75762e-15
2.37281e-15
4.0291e-13
2.81368e-12
8.66787e-12
1.80003e-11
2.97899e-11
4.27686e-11
5.58727e-11
6.83283e-11
7.95959e-11
8.93019e-11
9.7186e-11
1.03071e-10
1.06839e-10
1.08431e-10
1.07861e-10
1.05155e-10
1.00398e-10
9.37187e-11
8.52883e-11
7.5329e-11
6.4124e-11
5.20419e-11
3.95796e-11
2.74242e-11
1.65043e-11
7.92461e-12
2.56659e-12
3.66749e-13
2.15737e-15
2.81114e-15
4.7968e-13
3.39614e-12
1.06837e-11
2.27139e-11
3.84313e-11
5.6218e-11
7.45463e-11
9.22136e-11
1.08344e-10
1.22317e-10
1.33702e-10
1.42209e-10
1.4765e-10
1.49932e-10
1.49075e-10
1.45123e-10
1.3821e-10
1.28534e-10
1.16369e-10
1.0207e-10
8.60949e-11
6.90444e-11
5.17147e-11
3.51579e-11
2.06934e-11
9.70441e-12
3.0779e-12
4.33832e-13
2.53978e-15
3.22675e-15
5.52276e-13
3.94398e-12
1.25763e-11
2.71653e-11
4.66887e-11
6.92514e-11
9.28882e-11
1.15949e-10
1.37177e-10
1.55663e-10
1.70767e-10
1.82061e-10
1.89269e-10
1.92256e-10
1.91053e-10
1.85726e-10
1.76465e-10
1.63561e-10
1.4741e-10
1.2853e-10
1.07588e-10
8.54531e-11
6.32476e-11
4.23922e-11
2.45603e-11
1.13359e-11
3.54721e-12
4.95743e-13
2.89375e-15
3.60953e-15
6.19025e-13
4.44573e-12
1.43048e-11
3.12375e-11
5.42849e-11
8.13387e-11
1.10044e-10
1.38321e-10
1.64528e-10
1.87448e-10
2.06215e-10
2.20248e-10
2.29172e-10
2.32813e-10
2.31211e-10
2.24457e-10
2.12812e-10
1.9667e-10
1.76563e-10
1.53187e-10
1.27435e-10
1.00447e-10
7.36704e-11
4.88636e-11
2.79926e-11
1.27798e-11
3.96345e-12
5.50865e-13
3.20954e-15
3.95045e-15
6.7841e-13
4.89085e-12
1.58339e-11
3.48378e-11
6.1015e-11
9.20918e-11
1.2538e-10
1.58411e-10
1.89182e-10
2.16177e-10
2.38309e-10
2.54843e-10
2.65307e-10
2.6949e-10
2.67445e-10
2.59296e-10
2.45377e-10
2.26187e-10
2.02401e-10
1.74893e-10
1.44773e-10
1.1344e-10
8.26271e-11
5.43853e-11
3.09066e-11
1.40038e-11
4.31694e-12
5.978e-13
3.47881e-15
4.24158e-15
7.29084e-13
5.26984e-12
1.71322e-11
3.78893e-11
6.67184e-11
1.01216e-10
1.38416e-10
1.75521e-10
2.10209e-10
2.40699e-10
2.65703e-10
2.84349e-10
2.96074e-10
3.00646e-10
2.98132e-10
2.8869e-10
2.72729e-10
2.50853e-10
2.23869e-10
1.92814e-10
1.58989e-10
1.24018e-10
8.98675e-11
5.88229e-11
3.32389e-11
1.49821e-11
4.59966e-12
6.35395e-13
3.69475e-15
4.47612e-15
7.69891e-13
5.57446e-12
1.81727e-11
4.03276e-11
7.12661e-11
1.08481e-10
1.48789e-10
1.89125e-10
2.2691e-10
2.60146e-10
2.87382e-10
3.07636e-10
3.20271e-10
3.25052e-10
3.22061e-10
3.11493e-10
2.93829e-10
2.69764e-10
2.40218e-10
2.06364e-10
1.69659e-10
1.31897e-10
9.52209e-11
6.20824e-11
3.49432e-11
1.56947e-11
4.80543e-12
6.62765e-13
3.85214e-15
4.64851e-15
7.99872e-13
5.79779e-12
1.89324e-11
4.20994e-11
7.45548e-11
1.13709e-10
1.56221e-10
1.98828e-10
2.38767e-10
2.73882e-10
3.02607e-10
3.23889e-10
3.37037e-10
3.41839e-10
3.38385e-10
3.26914e-10
3.07964e-10
2.82306e-10
2.50947e-10
2.15157e-10
1.76504e-10
1.36892e-10
9.85735e-11
6.41001e-11
3.59872e-11
1.61276e-11
4.9298e-12
6.7928e-13
3.94729e-15
4.75443e-15
8.18285e-13
5.93444e-12
1.93936e-11
4.31628e-11
7.65039e-11
1.16767e-10
1.60509e-10
2.0435e-10
2.45416e-10
2.81467e-10
3.10878e-10
3.32565e-10
3.4581e-10
3.50447e-10
3.46567e-10
3.34451e-10
3.14689e-10
2.88103e-10
2.55757e-10
2.18975e-10
1.79374e-10
1.3891e-10
9.98751e-11
6.48505e-11
3.63588e-11
1.62756e-11
4.97102e-12
6.84673e-13
3.97858e-15
4.79093e-15
8.24615e-13
5.98059e-12
1.95432e-11
4.34879e-11
7.70568e-11
1.17563e-10
1.6152e-10
2.05511e-10
2.46636e-10
2.82644e-10
3.1191e-10
3.33367e-10
3.463e-10
3.50605e-10
3.46375e-10
3.33931e-10
3.13888e-10
2.87093e-10
2.54628e-10
2.17822e-10
1.78292e-10
1.37979e-10
9.91487e-11
6.43491e-11
3.60658e-11
1.61412e-11
4.92965e-12
6.7899e-13
3.94615e-15
4.75661e-15
8.1863e-13
5.93456e-12
1.93758e-11
4.30624e-11
7.61927e-11
1.16067e-10
1.59217e-10
2.0227e-10
2.42386e-10
2.77374e-10
3.05673e-10
3.26274e-10
3.38501e-10
3.42317e-10
3.37826e-10
3.25381e-10
3.05601e-10
2.79325e-10
2.47613e-10
2.11755e-10
1.73311e-10
1.34144e-10
9.64305e-11
6.26206e-11
3.51223e-11
1.57308e-11
4.80758e-12
6.62487e-13
3.85151e-15
4.65105e-15
8.00239e-13
5.79541e-12
1.88871e-11
4.1875e-11
7.38894e-11
1.12245e-10
1.53559e-10
1.9459e-10
2.32643e-10
2.65667e-10
2.92221e-10
3.11396e-10
3.22585e-10
3.25816e-10
3.212e-10
3.09101e-10
2.90129e-10
2.65087e-10
2.34974e-10
2.01e-10
1.64613e-10
1.27543e-10
9.18162e-11
5.97249e-11
3.3561e-11
1.50588e-11
4.60905e-12
6.35734e-13
3.69792e-15
4.47518e-15
7.6957e-13
5.56379e-12
1.80789e-11
3.99301e-11
7.01615e-11
1.06137e-10
1.44628e-10
1.82615e-10
2.17629e-10
2.4783e-10
2.71945e-10
2.89197e-10
2.99074e-10
3.01656e-10
2.9706e-10
2.85656e-10
2.68013e-10
2.44873e-10
2.17145e-10
1.85915e-10
1.52479e-10
1.18381e-10
8.54445e-11
5.57474e-11
3.14279e-11
1.41451e-11
4.34014e-12
5.99562e-13
3.49016e-15
4.23206e-15
7.2715e-13
5.24337e-12
1.69627e-11
3.72553e-11
6.5068e-11
9.78513e-11
1.32611e-10
1.66629e-10
1.97745e-10
2.24382e-10
2.45479e-10
2.60408e-10
2.68775e-10
2.70689e-10
2.66278e-10
2.55893e-10
2.40051e-10
2.19404e-10
1.94744e-10
1.67005e-10
1.37296e-10
1.06934e-10
7.74954e-11
5.07963e-11
2.87804e-11
1.3015e-11
4.00854e-12
5.5503e-13
3.23435e-15
3.92608e-15
6.73707e-13
4.83908e-12
1.55543e-11
3.38892e-11
5.8693e-11
8.75516e-11
1.17787e-10
1.47064e-10
1.7359e-10
1.96095e-10
2.13753e-10
2.26093e-10
2.32844e-10
2.34124e-10
2.30066e-10
2.2099e-10
2.07335e-10
1.89654e-10
1.68599e-10
1.44937e-10
1.19565e-10
9.35542e-11
6.81931e-11
4.5003e-11
2.56861e-11
1.16978e-11
3.62325e-12
5.03392e-13
2.93779e-15
3.56321e-15
6.10233e-13
4.35766e-12
1.38756e-11
2.98887e-11
5.11637e-11
7.54879e-11
1.00582e-10
1.24561e-10
1.46039e-10
1.64074e-10
1.78075e-10
1.87722e-10
1.92858e-10
1.93586e-10
1.90043e-10
1.82496e-10
1.71301e-10
1.56895e-10
1.39789e-10
1.20574e-10
9.99366e-11
7.86876e-11
5.7816e-11
3.85247e-11
2.22215e-11
1.02258e-11
3.19425e-12
4.46055e-13
2.60873e-15
3.15109e-15
5.37988e-13
3.80762e-12
1.19557e-11
2.53345e-11
4.26686e-11
6.20319e-11
8.162e-11
1.0004e-10
1.16321e-10
1.29835e-10
1.40205e-10
1.47241e-10
1.50873e-10
1.51178e-10
1.48283e-10
1.42391e-10
1.33773e-10
1.22749e-10
1.09693e-10
9.50297e-11
7.92467e-11
6.29118e-11
4.67205e-11
3.15493e-11
1.84746e-11
8.6338e-12
2.73212e-12
3.84545e-13
2.25616e-15
2.69916e-15
4.58506e-13
3.19937e-12
9.83276e-12
2.03438e-11
3.34906e-11
4.77376e-11
6.18056e-11
7.47901e-11
8.61021e-11
9.53796e-11
1.02416e-10
1.07114e-10
1.09456e-10
1.09493e-10
1.07329e-10
1.03093e-10
9.69782e-11
8.92025e-11
8.00165e-11
6.9701e-11
5.85695e-11
4.69814e-11
3.53761e-11
2.43208e-11
1.45511e-11
6.95949e-12
2.24776e-12
3.20462e-13
1.88967e-15
2.21881e-15
3.73606e-13
2.54546e-12
7.56086e-12
1.50951e-11
2.40697e-11
3.34291e-11
4.24157e-11
5.05477e-11
5.75328e-11
6.32001e-11
6.74549e-11
7.02556e-11
7.16006e-11
7.15226e-11
7.00924e-11
6.73755e-11
6.34948e-11
5.85809e-11
5.27839e-11
4.62712e-11
3.92278e-11
3.1862e-11
2.44128e-11
1.71809e-11
1.05941e-11
5.24667e-12
1.75216e-12
2.55445e-13
1.51931e-15
1.72385e-15
2.85403e-13
1.86192e-12
5.22682e-12
9.88817e-12
1.50935e-11
2.02855e-11
2.51316e-11
2.94426e-11
3.31087e-11
3.6062e-11
3.8265e-11
3.97008e-11
4.03695e-11
4.02863e-11
3.94922e-11
3.80084e-11
3.59045e-11
3.32461e-11
3.01107e-11
2.65851e-11
2.27638e-11
1.87487e-11
1.46527e-11
1.06125e-11
6.81703e-12
3.55743e-12
1.25701e-12
1.91125e-13
1.15558e-15
1.23136e-15
1.96338e-13
1.17446e-12
2.99258e-12
5.23329e-12
7.55518e-12
9.77966e-12
1.18148e-11
1.36082e-11
1.51273e-11
1.63507e-11
1.72641e-11
1.78595e-11
1.81348e-11
1.80938e-11
1.77547e-11
1.71188e-11
1.62178e-11
1.50778e-11
1.37309e-11
1.22134e-11
1.05653e-11
8.82874e-12
7.04813e-12
5.27104e-12
3.55626e-12
1.99956e-12
7.7841e-13
1.29057e-13
8.0963e-16
7.6395e-16
1.09531e-13
5.41277e-13
1.1764e-12
1.86067e-12
2.53076e-12
3.15985e-12
3.73336e-12
4.24076e-12
4.67352e-12
5.02481e-12
5.28949e-12
5.46415e-12
5.54714e-12
5.5386e-12
5.4437e-12
5.26092e-12
4.99969e-12
4.66726e-12
4.27282e-12
3.82698e-12
3.34152e-12
2.82908e-12
2.30278e-12
1.77589e-12
1.2618e-12
7.7639e-13
3.51702e-13
7.08332e-14
4.94059e-16
3.55407e-16
3.31499e-14
1.09494e-13
1.95406e-13
2.82154e-13
3.6677e-13
4.47116e-13
5.21323e-13
5.87767e-13
6.45068e-13
6.92097e-13
7.27986e-13
7.52126e-13
7.64174e-13
7.64036e-13
7.5237e-13
7.28791e-13
6.9453e-13
6.50563e-13
5.98094e-13
5.38536e-13
4.73481e-13
4.0467e-13
3.33955e-13
2.63259e-13
1.94519e-13
1.29603e-13
7.03304e-14
2.09255e-14
2.26474e-16
7.1871e-17
3.55119e-16
7.56925e-16
1.2102e-15
1.68267e-15
2.15315e-15
2.60572e-15
3.02749e-15
3.40778e-15
3.73774e-15
4.01025e-15
4.2198e-15
4.36252e-15
4.43611e-15
4.43977e-15
4.37772e-15
4.24716e-15
4.05464e-15
3.80584e-15
3.50757e-15
3.16793e-15
2.7961e-15
2.40217e-15
1.99702e-15
1.59215e-15
1.19956e-15
8.31793e-16
5.02512e-16
2.29311e-16
4.61099e-17
)
;

boundaryField
{
    movingWall
    {
        type            nutkWallFunction;
        Cmu             0.09;
        kappa           0.41;
        E               9.8;
        value           uniform 0;
    }
    fixedWalls
    {
        type            nutkWallFunction;
        Cmu             0.09;
        kappa           0.41;
        E               9.8;
        value           uniform 0;
    }
    frontAndBack
    {
        type            empty;
    }
}


// ************************************************************************* //
