/*--------------------------------*- C++ -*----------------------------------*\
  =========                 |
  \\      /  F ield         | OpenFOAM: The Open Source CFD Toolbox
   \\    /   O peration     | Website:  https://openfoam.org
    \\  /    A nd           | Version:  12
     \\/     M anipulation  |
\*---------------------------------------------------------------------------*/
FoamFile
{
    format      ascii;
    class       volScalarField;
    location    "0.65";
    object      p;
}
// * * * * * * * * * * * * * * * * * * * * * * * * * * * * * * * * * * * * * //

dimensions      [0 2 -2 0 0 0 0];

internalField   nonuniform List<scalar> 
400
(
3.08105e-07
0.00037779
0.000551949
0.000299856
-0.000382422
-0.00144253
-0.00281572
-0.00443177
-0.00621863
-0.00810638
-0.0100274
-0.0119155
-0.0137029
-0.0153197
-0.0166935
-0.0177539
-0.0184362
-0.0186877
-0.0185129
-0.0181348
-0.000292919
0.000167241
0.000361
7.70791e-05
-0.000634474
-0.00169694
-0.00304359
-0.00460997
-0.00633143
-0.0081448
-0.00998857
-0.0118021
-0.0135239
-0.0150907
-0.0164376
-0.0175001
-0.0182113
-0.0184944
-0.0182996
-0.0178383
0.00137124
0.00176792
0.00181559
0.00131438
0.000363927
-0.000927328
-0.00248029
-0.0042287
-0.00611143
-0.0080725
-0.0100594
-0.0120207
-0.0139039
-0.0156527
-0.017206
-0.0184971
-0.0194469
-0.0199467
-0.019897
-0.0194983
0.00584413
0.00584694
0.00537934
0.00432252
0.00281567
0.000993338
-0.00105039
-0.00324771
-0.00553934
-0.00788409
-0.010246
-0.0125917
-0.0148849
-0.0170822
-0.0191274
-0.0209502
-0.0224561
-0.0235106
-0.0239743
-0.0239673
0.0136846
0.0127682
0.0112026
0.00908335
0.00659146
0.00387842
0.00104853
-0.0018317
-0.00472531
-0.00761797
-0.0105094
-0.0134038
-0.0163004
-0.0191843
-0.0220176
-0.0247328
-0.0272246
-0.0293404
-0.0308988
-0.0318068
0.0255529
0.0228921
0.0193492
0.0154469
0.0114098
0.0073873
0.00348144
-0.000262965
-0.00385363
-0.00733715
-0.0107837
-0.0142711
-0.017869
-0.0216225
-0.0255378
-0.0295679
-0.0336083
-0.037507
-0.0410377
-0.0436828
0.0419917
0.0363032
0.0294594
0.022764
0.0164746
0.0106963
0.00549713
0.000863278
-0.00330506
-0.00717105
-0.010935
-0.0148091
-0.0189927
-0.0236468
-0.0288682
-0.0346666
-0.040969
-0.0476642
-0.0544899
-0.0601523
0.0629977
0.0523323
0.0402585
0.0294087
0.0200363
0.0121153
0.00561739
0.000402727
-0.00380172
-0.00736631
-0.0107168
-0.0142968
-0.0185306
-0.0237857
-0.0303302
-0.0382972
-0.0477055
-0.0585685
-0.0706221
-0.0812483
0.0872107
0.0687323
0.0487295
0.0319935
0.0186837
0.00848294
0.00115076
-0.00369392
-0.00662778
-0.00836841
-0.00971152
-0.0114777
-0.0144615
-0.0193777
-0.0267969
-0.0370904
-0.0504824
-0.067267
-0.087261
-0.105691
0.110522
0.0802886
0.0487821
0.0241491
0.00627546
-0.00572807
-0.0125149
-0.0148958
-0.0139501
-0.0109477
-0.0072601
-0.00429188
-0.00341615
-0.00590362
-0.0128308
-0.0249978
-0.0430349
-0.0677915
-0.0993358
-0.129534
0.123804
0.0766281
0.0292127
-0.00528888
-0.0276054
-0.0396708
-0.0428894
-0.0387961
-0.0292621
-0.0163903
-0.00240124
0.0104454
0.0199189
0.023901
0.0205078
0.00820405
-0.0143903
-0.0491507
-0.0967241
-0.14394
0.109332
0.038848
-0.029328
-0.0748796
-0.0997775
-0.10779
-0.101628
-0.083995
-0.0579472
-0.0267715
0.00614149
0.0373623
0.0634683
0.0811176
0.0871944
0.078952
0.0536802
0.00767526
-0.0609053
-0.131637
0.035234
-0.0655802
-0.158742
-0.214148
-0.23619
-0.231807
-0.205914
-0.163027
-0.107874
-0.0452927
0.0198624
0.0827169
0.138335
0.181729
0.208007
0.212496
0.190184
0.134154
0.0401762
-0.0613305
-0.153221
-0.29056
-0.409782
-0.468217
-0.475007
-0.442563
-0.379452
-0.292863
-0.189671
-0.076496
0.0402666
0.154272
0.258943
0.347319
0.412172
0.445902
0.439589
0.380662
0.260106
0.1213
-0.548531
-0.723882
-0.861031
-0.903103
-0.868888
-0.780289
-0.651676
-0.49383
-0.315926
-0.12612
0.0681993
0.25983
0.441162
0.603676
0.737331
0.830308
0.867306
0.825902
0.687176
0.509316
-1.31218
-1.51089
-1.63331
-1.61139
-1.4843
-1.29023
-1.05186
-0.783763
-0.496614
-0.198538
0.1042
0.405941
0.700068
0.977654
1.22665
1.43091
1.56614
1.59243
1.46963
1.2677
-2.73138
-2.89141
-2.90674
-2.71189
-2.38976
-2.00562
-1.5914
-1.16332
-0.72931
-0.292045
0.148341
0.59222
1.03856
1.48301
1.91601
2.31975
2.65927
2.86618
2.85525
2.69339
-5.33453
-5.25661
-4.90856
-4.30771
-3.61165
-2.91183
-2.23962
-1.60023
-0.988309
-0.392892
0.199833
0.804361
1.43407
2.09878
2.80156
3.53313
4.25772
4.88106
5.24224
5.32428
-11.1826
-9.54073
-7.66715
-6.05722
-4.724
-3.6043
-2.65476
-1.83637
-1.10859
-0.431982
0.231225
0.918074
1.66654
2.5156
3.50456
4.66978
6.0497
7.69915
9.60202
11.2636
-29.316
-19.966
-13.208
-9.10226
-6.39378
-4.46385
-3.05231
-1.99195
-1.15159
-0.428671
0.260501
0.995048
1.85884
2.95379
4.41246
6.40296
9.18326
13.3626
20.1807
29.568
)
;

boundaryField
{
    movingWall
    {
        type            zeroGradient;
    }
    fixedWalls
    {
        type            zeroGradient;
    }
    frontAndBack
    {
        type            empty;
    }
}


// ************************************************************************* //
