/*--------------------------------*- C++ -*----------------------------------*\
  =========                 |
  \\      /  F ield         | OpenFOAM: The Open Source CFD Toolbox
   \\    /   O peration     | Website:  https://openfoam.org
    \\  /    A nd           | Version:  12
     \\/     M anipulation  |
\*---------------------------------------------------------------------------*/
FoamFile
{
    format      ascii;
    class       volScalarField;
    location    "4";
    object      epsilon;
}
// * * * * * * * * * * * * * * * * * * * * * * * * * * * * * * * * * * * * * //

dimensions      [0 2 -3 0 0 0 0];

internalField   nonuniform List<scalar> 
5625
(
5.59154e-07
3.78195e-06
8.41668e-06
1.39237e-05
2.00454e-05
2.66204e-05
3.35394e-05
4.07321e-05
4.81621e-05
5.58252e-05
6.37475e-05
7.19843e-05
8.06185e-05
8.97582e-05
9.95354e-05
0.000110103
0.000121633
0.000134315
0.000148353
0.000163963
0.000181373
0.000200819
0.000222541
0.000246785
0.000273796
0.000303818
0.000337088
0.000373837
0.000414284
0.000458635
0.000507079
0.000559788
0.000616915
0.000678591
0.000744925
0.000816002
0.000891882
0.000972597
0.00105814
0.00114848
0.00124351
0.00134308
0.00144695
0.00155475
0.00166598
0.00177995
0.00189573
0.0020121
0.00212748
0.00223989
0.0023469
0.00244557
0.00253238
0.00260302
0.00265091
0.00267243
0.00267335
0.00263918
0.002568
0.00245949
0.00231475
0.00213702
0.00193199
0.00170757
0.0014732
0.0012389
0.00101405
0.000806352
0.000621116
0.000460964
0.000326076
0.000214846
0.000124944
5.49221e-05
8.08975e-06
1.05654e-06
2.05989e-06
4.12688e-06
6.67943e-06
9.54535e-06
1.26358e-05
1.58953e-05
1.92889e-05
2.27988e-05
2.64227e-05
3.01729e-05
3.40753e-05
3.81692e-05
4.25058e-05
4.71476e-05
5.21671e-05
5.76464e-05
6.36756e-05
7.03518e-05
7.77788e-05
8.60655e-05
9.53251e-05
0.000105674
0.000117231
0.000130115
0.000144445
0.000160339
0.00017791
0.00019727
0.000218521
0.000241762
0.000267082
0.000294563
0.000324276
0.000356281
0.000390628
0.000427353
0.000466476
0.000507999
0.000551902
0.000598135
0.000646611
0.000697195
0.00074969
0.000803817
0.0008592
0.000915335
0.000971572
0.00102709
0.00108086
0.00113164
0.00117796
0.0012181
0.00124997
0.00127044
0.00127845
0.00127592
0.00125678
0.00122025
0.00116638
0.00109591
0.00101052
0.000912937
0.00080684
0.000696529
0.000586505
0.000480977
0.000383409
0.00029621
0.000220613
0.000156782
0.000104114
6.18154e-05
3.0067e-05
1.52713e-05
2.24464e-06
2.00761e-06
3.181e-06
4.83564e-06
6.75708e-06
8.85697e-06
1.10874e-05
1.34206e-05
1.58427e-05
1.83513e-05
2.09546e-05
2.36706e-05
2.65267e-05
2.95587e-05
3.28106e-05
3.63336e-05
4.0186e-05
4.4432e-05
4.91414e-05
5.43892e-05
6.02547e-05
6.68213e-05
7.41756e-05
8.24067e-05
9.16059e-05
0.000101866
0.000113279
0.000125938
0.000139934
0.000155355
0.000172288
0.000190812
0.000211005
0.000232934
0.000256661
0.000282234
0.00030969
0.000339051
0.000370317
0.000403462
0.00043843
0.000475125
0.000513399
0.000553045
0.000593782
0.000635243
0.000676961
0.000718351
0.000758705
0.000797179
0.000832794
0.000864438
0.000890845
0.000910501
0.00092107
0.000923304
0.000916936
0.000898889
0.000868875
0.000827172
0.000774524
0.000712268
0.000642365
0.000567314
0.000489957
0.000413216
0.000339797
0.000271926
0.000211165
0.00015836
0.000113716
7.70554e-05
4.83661e-05
2.93554e-05
3.23153e-05
3.67286e-06
2.40662e-06
3.00965e-06
4.17114e-06
5.61225e-06
7.22838e-06
8.96834e-06
1.08045e-05
1.27234e-05
1.4722e-05
1.68067e-05
1.89919e-05
2.12998e-05
2.376e-05
2.64086e-05
2.92886e-05
3.24487e-05
3.59434e-05
3.98326e-05
4.41813e-05
4.90593e-05
5.4541e-05
6.07051e-05
6.76341e-05
7.54144e-05
8.41352e-05
9.38886e-05
0.000104768
0.00011687
0.000130288
0.000145117
0.000161447
0.000179366
0.00019895
0.00022027
0.000243379
0.000268313
0.000295085
0.000323677
0.000354035
0.000386061
0.000419607
0.000454462
0.000490348
0.000526914
0.000563729
0.00060028
0.000635964
0.000670091
0.000701889
0.000730517
0.000755076
0.000774632
0.000787508
0.000792681
0.000791418
0.000782216
0.000763571
0.000735366
0.000697911
0.000651859
0.000598323
0.000538899
0.000475608
0.000410746
0.000346668
0.000285548
0.000229167
0.000178773
0.000135063
9.82876e-05
6.85425e-05
4.64255e-05
3.50299e-05
5.24981e-05
5.29832e-06
3.02636e-06
3.17326e-06
3.98539e-06
5.11298e-06
6.42956e-06
7.87663e-06
9.42402e-06
1.10572e-05
1.27724e-05
1.45747e-05
1.64768e-05
1.84985e-05
2.06667e-05
2.30143e-05
2.55807e-05
2.84115e-05
3.15579e-05
3.50772e-05
3.90324e-05
4.34923e-05
4.85316e-05
5.42308e-05
6.0676e-05
6.7959e-05
7.6177e-05
8.54319e-05
9.58303e-05
0.000107482
0.000120497
0.000134988
0.000151062
0.000168819
0.000188347
0.000209722
0.000232994
0.000258183
0.000285274
0.000314203
0.000344857
0.000377064
0.000410585
0.00044511
0.000480261
0.000515596
0.000550614
0.000584762
0.000617447
0.00064803
0.000675852
0.000700242
0.000720529
0.000736065
0.000745015
0.000747759
0.00074495
0.000734941
0.000716752
0.000690148
0.00065519
0.000612322
0.000562413
0.000506838
0.000447448
0.000386429
0.000326086
0.000268574
0.000215662
0.000168588
0.000128048
9.43549e-05
6.77995e-05
4.94634e-05
4.36853e-05
7.49595e-05
7.09215e-06
3.78734e-06
3.53009e-06
4.06221e-06
4.95652e-06
6.0629e-06
7.31363e-06
8.67485e-06
1.01303e-05
1.16754e-05
1.33143e-05
1.50591e-05
1.69288e-05
1.89493e-05
2.11528e-05
2.35783e-05
2.62713e-05
2.92838e-05
3.26746e-05
3.65093e-05
4.0861e-05
4.58101e-05
5.14448e-05
5.7861e-05
6.51627e-05
7.34614e-05
8.2876e-05
9.35315e-05
0.000105558
0.000119087
0.00013425
0.00015117
0.000169948
0.000190683
0.000213441
0.00023825
0.000265093
0.000293895
0.00032452
0.00035676
0.00039034
0.000424915
0.00046006
0.000495303
0.000530135
0.000564024
0.000596443
0.000626883
0.000654828
0.000679804
0.00070136
0.000719052
0.000732493
0.000740169
0.000742582
0.000740292
0.000731502
0.000715257
0.000691034
0.000658546
0.000617844
0.000569498
0.0005147
0.000455267
0.000393516
0.000332001
0.000273185
0.000219123
0.000171265
0.000130439
9.70474e-05
7.15316e-05
5.53829e-05
5.40847e-05
9.9036e-05
9.03736e-06
4.65432e-06
4.01831e-06
4.31035e-06
5.01739e-06
5.9655e-06
7.07651e-06
8.31196e-06
9.6538e-06
1.10965e-05
1.2644e-05
1.43082e-05
1.61082e-05
1.80705e-05
2.02282e-05
2.2622e-05
2.52995e-05
2.8316e-05
3.17349e-05
3.5628e-05
4.00759e-05
4.51688e-05
5.10068e-05
5.77006e-05
6.53695e-05
7.4143e-05
8.41614e-05
9.55711e-05
0.000108524
0.000123171
0.000139664
0.000158138
0.000178714
0.000201471
0.000226447
0.000253626
0.000282922
0.000314169
0.00034712
0.00038144
0.000416712
0.000452454
0.000488155
0.000523279
0.000557304
0.000589746
0.000620182
0.000648259
0.00067373
0.000696397
0.000716096
0.000732655
0.000745797
0.000754716
0.000758753
0.000758893
0.000753307
0.000740703
0.000720097
0.000690688
0.000652088
0.000604526
0.000549009
0.000487377
0.000422186
0.000356415
0.000293048
0.000234659
0.000183113
0.000139506
0.000104396
7.83607e-05
6.32604e-05
6.56395e-05
0.00012425
1.11247e-05
5.60971e-06
4.60632e-06
4.68329e-06
5.2332e-06
6.05695e-06
7.06537e-06
8.21549e-06
9.48694e-06
1.08734e-05
1.23786e-05
1.40151e-05
1.58029e-05
1.77702e-05
1.99523e-05
2.23927e-05
2.51434e-05
2.8265e-05
3.18275e-05
3.59112e-05
4.06073e-05
4.60187e-05
5.22604e-05
5.9461e-05
6.77617e-05
7.73154e-05
8.82851e-05
0.000100842
0.00011516
0.000131411
0.000149751
0.000170323
0.000193231
0.000218526
0.000246194
0.00027614
0.000308175
0.00034201
0.000377256
0.000413432
0.000449991
0.000486349
0.000521931
0.000556205
0.00058872
0.000619141
0.000647257
0.000672987
0.000696363
0.000717467
0.000736383
0.000753112
0.000767474
0.000779014
0.000787086
0.000790691
0.000789728
0.000781996
0.000766
0.000740349
0.000704189
0.000657382
0.000600708
0.000535994
0.00046603
0.000394266
0.000324321
0.000259447
0.000202107
0.000153824
0.000115404
8.75936e-05
7.26103e-05
7.80248e-05
0.000150265
1.33502e-05
6.64445e-06
5.27644e-06
5.15445e-06
5.56888e-06
6.29251e-06
7.22534e-06
8.31938e-06
9.55211e-06
1.09165e-05
1.24165e-05
1.40656e-05
1.58855e-05
1.79066e-05
2.01676e-05
2.27164e-05
2.56103e-05
2.89172e-05
3.27162e-05
3.70987e-05
4.2169e-05
4.80456e-05
5.48618e-05
6.27656e-05
7.19206e-05
8.2504e-05
9.47036e-05
0.000108714
0.000124728
0.00014293
0.000163483
0.000186511
0.000212087
0.000240205
0.000270769
0.00030357
0.000338286
0.000374474
0.000411589
0.00044901
0.000486079
0.000522159
0.000556686
0.000589221
0.000619483
0.000647373
0.000672966
0.000696484
0.000718241
0.000738565
0.000757716
0.000775794
0.000792655
0.000807856
0.000820715
0.000829736
0.000833396
0.000831197
0.000820485
0.00079921
0.000766062
0.000720515
0.000663052
0.000595373
0.000520394
0.000441973
0.00036438
0.000291648
0.000226998
0.000172551
0.000129502
9.88362e-05
8.31575e-05
9.10508e-05
0.000176862
1.57131e-05
7.75411e-06
6.01845e-06
5.70788e-06
6.00291e-06
6.64484e-06
7.52306e-06
8.5841e-06
9.80328e-06
1.11729e-05
1.26976e-05
1.43921e-05
1.62803e-05
1.83958e-05
2.07815e-05
2.34909e-05
2.65884e-05
3.01504e-05
3.42665e-05
3.90408e-05
4.4593e-05
5.10592e-05
5.85928e-05
6.73645e-05
7.75616e-05
8.9386e-05
0.000103049
0.000118765
0.000136741
0.000157166
0.000180188
0.000205901
0.000234318
0.000265347
0.000298776
0.000334254
0.000371297
0.000409297
0.000447557
0.00048534
0.000521935
0.000556723
0.000589245
0.000619245
0.000646698
0.000671802
0.000694939
0.000716613
0.000737369
0.000757696
0.000777935
0.000798196
0.000818284
0.000837663
0.000855435
0.000870253
0.000879407
0.000882067
0.000877026
0.000860669
0.000831262
0.000787888
0.000730631
0.000660908
0.000581573
0.000496732
0.000411231
0.000329923
0.000256925
0.000195148
0.000146341
0.000111853
9.47412e-05
0.000104613
0.000203944
1.82155e-05
8.93707e-06
6.82643e-06
6.3337e-06
6.5214e-06
7.09635e-06
7.93713e-06
8.98427e-06
1.0211e-05
1.16091e-05
1.31839e-05
1.49519e-05
1.69399e-05
1.91852e-05
2.1736e-05
2.4652e-05
2.8006e-05
3.18843e-05
3.63888e-05
4.16381e-05
4.77686e-05
5.4936e-05
6.33153e-05
7.31008e-05
8.45043e-05
9.7751e-05
0.000113073
0.0001307
0.000150844
0.000173681
0.000199332
0.000227833
0.000259111
0.000292957
0.000329012
0.00036676
0.000405541
0.000444588
0.000483082
0.000520224
0.000555323
0.000587869
0.000617598
0.00064452
0.000668913
0.000691282
0.000712285
0.000732644
0.000753041
0.000774021
0.000795909
0.000818745
0.000842232
0.000865711
0.000888131
0.000908025
0.000923219
0.000930238
0.000930499
0.000919539
0.000894687
0.000854659
0.000799051
0.000728811
0.000646494
0.000556221
0.00046325
0.000373223
0.000291258
0.000221247
0.000165706
0.000126505
0.000107271
0.000118644
0.00023141
2.08616e-05
1.01935e-05
7.69725e-06
7.0257e-06
7.11514e-06
7.63537e-06
8.45323e-06
9.50298e-06
1.07556e-05
1.22026e-05
1.38503e-05
1.57171e-05
1.78332e-05
2.02403e-05
2.29926e-05
2.61572e-05
2.98161e-05
3.40671e-05
3.90255e-05
4.48257e-05
5.16226e-05
5.95925e-05
6.89331e-05
7.98625e-05
9.26158e-05
0.00010744
0.000124582
0.000144278
0.000166734
0.000192098
0.000220439
0.00025171
0.000285722
0.000322123
0.000360383
0.000399807
0.000439567
0.000478765
0.00051651
0.000552019
0.000584705
0.000614259
0.000640686
0.000664305
0.000685703
0.000705654
0.000725021
0.00074464
0.000765222
0.000787272
0.000811022
0.000836393
0.000862975
0.00089001
0.000916369
0.000940534
0.000960739
0.000973092
0.000977205
0.00097202
0.000952524
0.000917108
0.000864825
0.000795978
0.000712573
0.000618452
0.000519047
0.000420673
0.000329503
0.000250596
0.00018747
0.000142713
0.000120704
0.000133115
0.000259241
2.36568e-05
1.15249e-05
8.6296e-06
7.78011e-06
7.77806e-06
8.25404e-06
9.06161e-06
1.01287e-05
1.14239e-05
1.29385e-05
1.46798e-05
1.66687e-05
1.89391e-05
2.15379e-05
2.45256e-05
2.7978e-05
3.19871e-05
3.66633e-05
4.21363e-05
4.85579e-05
5.61022e-05
6.4967e-05
7.53729e-05
8.75608e-05
0.000101787
0.000118316
0.000137403
0.00015928
0.00018413
0.000212056
0.000243049
0.000276953
0.000313438
0.000351984
0.000391878
0.000432252
0.000472136
0.000510548
0.000546601
0.000579607
0.000609178
0.000635271
0.000658206
0.000678612
0.000697345
0.000715375
0.000733663
0.000753055
0.000774198
0.000797474
0.00082298
0.000850511
0.000879561
0.000909328
0.00093869
0.000966209
0.000990266
0.0010078
0.00101559
0.00101569
0.00100223
0.000972607
0.000925325
0.000859927
0.000777627
0.000681679
0.000577374
0.000471495
0.000371245
0.000283008
0.000211566
0.000160451
0.000135035
0.000148032
0.000287467
2.66083e-05
1.29338e-05
9.62346e-06
8.59484e-06
8.5062e-06
8.94707e-06
9.7556e-06
1.08535e-05
1.22068e-05
1.38063e-05
1.56608e-05
1.77939e-05
2.02434e-05
2.30618e-05
2.63172e-05
3.00943e-05
3.44963e-05
3.96469e-05
4.56916e-05
5.27998e-05
6.1166e-05
7.10094e-05
8.25728e-05
9.61183e-05
0.00011192
0.000130252
0.000151371
0.000175491
0.000202754
0.000233196
0.000266706
0.000302995
0.00034157
0.000381729
0.000422582
0.000463107
0.000502238
0.000538978
0.000572523
0.000602369
0.000628392
0.000650865
0.00067042
0.000687961
0.000704538
0.000721219
0.000738959
0.000758519
0.000780406
0.000804844
0.00083178
0.000860898
0.000891642
0.000923223
0.000954598
0.000984472
0.00101134
0.00103301
0.00104556
0.00104943
0.00104248
0.00101957
0.000978751
0.000918753
0.000839829
0.000744337
0.00063706
0.000524943
0.000416098
0.000318336
0.000237958
0.000179729
0.000150289
0.00016342
0.00031615
2.97241e-05
1.44233e-05
1.06797e-05
9.46903e-06
9.29741e-06
9.71089e-06
1.05307e-05
1.1672e-05
1.30979e-05
1.47991e-05
1.67855e-05
1.90836e-05
2.1736e-05
2.4801e-05
2.83547e-05
3.24916e-05
3.73269e-05
4.29982e-05
4.96675e-05
5.75227e-05
6.67784e-05
7.76748e-05
9.04754e-05
0.000105461
0.000122917
0.000143121
0.000166318
0.000192689
0.000222318
0.00025515
0.000290951
0.000329278
0.000369461
0.000410616
0.000451694
0.000491561
0.000529114
0.000563421
0.00059384
0.000620125
0.00064246
0.000661437
0.000677971
0.000693173
0.000708192
0.000724093
0.000741734
0.000761718
0.000784382
0.000809774
0.00083771
0.000867799
0.000899473
0.000932009
0.000964496
0.000995827
0.00102472
0.0010493
0.00106661
0.00107401
0.00107303
0.00105737
0.00102408
0.000971121
0.000897692
0.00080501
0.000696958
0.000580249
0.000463657
0.000356434
0.000266633
0.000200582
0.000166508
0.000179323
0.000345374
3.30135e-05
1.59972e-05
1.18e-05
1.04027e-05
1.01506e-05
1.05434e-05
1.1384e-05
1.25806e-05
1.40933e-05
1.59122e-05
1.80485e-05
2.0532e-05
2.341e-05
2.67474e-05
3.06287e-05
3.51588e-05
4.04653e-05
4.67006e-05
5.40436e-05
6.27005e-05
7.29057e-05
8.49194e-05
9.9023e-05
0.000115511
0.000134676
0.000156787
0.000182065
0.000210643
0.000242526
0.000277548
0.000315331
0.000355266
0.000396502
0.00043799
0.000478553
0.000517
0.000552267
0.000583559
0.000610474
0.000633064
0.000651836
0.000667679
0.000681725
0.000695205
0.000709274
0.00072491
0.000742806
0.000763362
0.000786743
0.000812837
0.000841356
0.000871871
0.000903839
0.000936613
0.000969445
0.00100144
0.00103154
0.00105814
0.00107937
0.00109125
0.00109452
0.00108624
0.00106104
0.00101625
0.000950081
0.000862436
0.000755937
0.000636593
0.000513464
0.00039713
0.000297584
0.000223053
0.000183747
0.000195791
0.000375234
3.64864e-05
1.76599e-05
1.29865e-05
1.13967e-05
1.10654e-05
1.14434e-05
1.2314e-05
1.35774e-05
1.51905e-05
1.71426e-05
1.94464e-05
2.2135e-05
2.52605e-05
2.88951e-05
3.31318e-05
3.80865e-05
4.38998e-05
5.07392e-05
5.88001e-05
6.83073e-05
7.95137e-05
9.26974e-05
0.000108154
0.000126188
0.000147087
0.000171106
0.000198425
0.000229111
0.000263073
0.000300016
0.000339405
0.000380457
0.000422154
0.000463306
0.000502658
0.000539026
0.000571457
0.000599367
0.000622641
0.000641651
0.000657211
0.000670447
0.000682632
0.000695053
0.000708792
0.000724576
0.000742956
0.000764164
0.000788179
0.000814756
0.000843542
0.000874093
0.00090592
0.00093848
0.000971164
0.00100328
0.00103397
0.00106191
0.00108566
0.00110216
0.00110897
0.00110712
0.00109001
0.00105393
0.000996247
0.000915546
0.00081289
0.000693087
0.000564978
0.000440204
0.000330784
0.00024719
0.000202071
0.00021288
0.000405825
4.01535e-05
1.9416e-05
1.42418e-05
1.24523e-05
1.20424e-05
1.24109e-05
1.33199e-05
1.46614e-05
1.63882e-05
1.84887e-05
2.09772e-05
2.38898e-05
2.72841e-05
3.12393e-05
3.58577e-05
4.12664e-05
4.76193e-05
5.50988e-05
6.39169e-05
7.43159e-05
8.65656e-05
0.000100959
0.000117803
0.000137402
0.000160034
0.000185924
0.000215199
0.000247844
0.000283654
0.000322191
0.000362759
0.000404405
0.000445964
0.000486147
0.000523677
0.000557447
0.000586682
0.000611063
0.000630787
0.000646541
0.0006594
0.000670661
0.000681788
0.000693752
0.000707533
0.000723822
0.000742922
0.000764828
0.000789426
0.000816357
0.000845228
0.00087561
0.000907084
0.000939214
0.000971512
0.00100346
0.00103434
0.00106303
0.00108828
0.00110826
0.00111895
0.00112149
0.00111198
0.00108449
0.00103588
0.000963527
0.000866783
0.00074879
0.000617562
0.000485358
0.000366175
0.000273034
0.000221542
0.000230649
0.000437236
4.40265e-05
2.12708e-05
1.55689e-05
1.35712e-05
1.30826e-05
1.34461e-05
1.4402e-05
1.58325e-05
1.7686e-05
1.995e-05
2.26397e-05
2.57947e-05
2.94779e-05
3.3776e-05
3.88006e-05
4.46903e-05
5.16122e-05
5.97634e-05
6.93721e-05
8.06962e-05
9.40208e-05
0.00010965
0.000127896
0.000149056
0.00017339
0.000201079
0.000232183
0.00026659
0.000303969
0.000343732
0.00038502
0.00042673
0.000467581
0.000506233
0.00054145
0.000572267
0.000598141
0.000619053
0.000635515
0.000648491
0.000659281
0.00066941
0.000679853
0.000691881
0.000706238
0.000723361
0.000743317
0.000766035
0.000791223
0.000818479
0.000847396
0.000877586
0.000908688
0.000940349
0.000972188
0.0010038
0.00103459
0.00106359
0.00108978
0.00111172
0.00112613
0.00113166
0.0011284
0.0011088
0.00106912
0.00100589
0.000916729
0.000802749
0.00067049
0.000532209
0.000403651
0.000300613
0.000242219
0.000249147
0.000469545
4.81174e-05
2.32296e-05
1.69712e-05
1.47557e-05
1.41875e-05
1.45503e-05
1.5561e-05
1.70912e-05
1.90845e-05
2.15264e-05
2.44334e-05
2.78484e-05
3.18396e-05
3.65012e-05
4.19545e-05
4.83493e-05
5.58657e-05
6.47154e-05
7.5141e-05
8.7415e-05
0.000101834
0.00011871
0.000138352
0.000161047
0.00018702
0.000216401
0.000249168
0.000285101
0.000323734
0.000364326
0.000405871
0.000447135
0.000486764
0.000523424
0.000555978
0.000583657
0.000606193
0.000623875
0.000637512
0.000648316
0.000657838
0.000667144
0.000677654
0.000690284
0.00070559
0.000723754
0.000744743
0.000768406
0.00079426
0.000821913
0.000850969
0.000881078
0.00091193
0.000943239
0.000974701
0.00100599
0.00103658
0.00106562
0.00109223
0.00111513
0.0011322
0.00114017
0.00114107
0.00112816
0.0010966
0.00104255
0.000962067
0.000854058
0.000722966
0.000580281
0.000443046
0.000329936
0.000264144
0.000268422
0.000502817
5.24391e-05
2.52984e-05
1.84521e-05
1.60082e-05
1.53589e-05
1.57249e-05
1.67982e-05
1.84388e-05
2.05844e-05
2.32186e-05
2.63584e-05
3.00499e-05
3.43668e-05
3.94108e-05
4.53126e-05
5.22333e-05
6.03656e-05
6.99345e-05
8.11961e-05
9.44347e-05
0.000109955
0.000128072
0.000149087
0.000173263
0.000200786
0.00023172
0.000265951
0.000303142
0.000342689
0.000383707
0.000425057
0.000465411
0.000503387
0.00053771
0.000567399
0.000591923
0.000611308
0.00062614
0.000637482
0.0006469
0.000655481
0.000664775
0.000675885
0.000689543
0.000706048
0.000725471
0.000747772
0.000772473
0.000799124
0.000827324
0.000856693
0.000886915
0.000917729
0.000948901
0.000980181
0.00101129
0.00104174
0.00107073
0.00109745
0.00112072
0.00113903
0.00114906
0.00115207
0.00114424
0.00111941
0.00107384
0.00100245
0.000901939
0.000774169
0.000629014
0.000484128
0.000360989
0.000287334
0.000288512
0.000537097
5.70053e-05
2.74834e-05
2.00157e-05
1.73314e-05
1.65991e-05
1.69718e-05
1.81155e-05
1.98769e-05
2.21873e-05
2.50274e-05
2.84147e-05
3.23982e-05
3.70568e-05
4.24998e-05
4.88672e-05
5.63309e-05
6.50954e-05
7.5398e-05
8.75063e-05
0.000101714
0.00011833
0.000137665
0.000160007
0.000185589
0.000214545
0.000246864
0.000282334
0.000320494
0.000360607
0.000401657
0.000442394
0.000481439
0.000517429
0.000549199
0.000575967
0.00059747
0.000614024
0.000626487
0.00063631
0.000644621
0.000653065
0.000662903
0.000675073
0.00069004
0.000708002
0.000729065
0.00075276
0.000778638
0.000806247
0.000835174
0.000865061
0.000895625
0.000926651
0.000957948
0.000989307
0.00102047
0.00105098
0.00108003
0.00110679
0.00113012
0.00114871
0.0011597
0.00116369
0.00115892
0.00113897
0.00110053
0.00103788
0.000945816
0.000823308
0.000677776
0.000526593
0.000393742
0.000311762
0.00030945
0.000572416
6.18319e-05
2.97915e-05
2.16661e-05
1.87284e-05
1.79104e-05
1.82932e-05
1.95149e-05
2.14075e-05
2.38947e-05
2.69539e-05
3.06024e-05
3.48919e-05
3.99066e-05
4.57627e-05
5.26093e-05
6.06287e-05
7.00364e-05
8.10802e-05
9.40371e-05
0.000109206
0.000126898
0.000147413
0.000171019
0.000197908
0.000228158
0.000261672
0.000298136
0.000336968
0.000377303
0.000418013
0.000457774
0.000495191
0.000528969
0.000558097
0.000582023
0.000600761
0.000614905
0.000625673
0.000634259
0.000642271
0.000651143
0.000662009
0.000675545
0.000692102
0.000711973
0.000734725
0.000759945
0.000787152
0.000815873
0.000845699
0.000876296
0.000907419
0.000938894
0.000970578
0.0010023
0.00103382
0.00106468
0.00109404
0.00112101
0.00114436
0.00116275
0.00117368
0.00117781
0.00117414
0.001157
0.00112379
0.00106879
0.000985393
0.000869686
0.0007259
0.000570061
0.000428083
0.000337424
0.000331255
0.000608786
6.6933e-05
3.22293e-05
2.34075e-05
2.02023e-05
1.92956e-05
1.96918e-05
2.09988e-05
2.30329e-05
2.57086e-05
2.89993e-05
3.29216e-05
3.75295e-05
4.2912e-05
4.91925e-05
5.65284e-05
6.51116e-05
7.51673e-05
8.69523e-05
0.00010075
0.000116863
0.000135597
0.000157237
0.000182024
0.000210104
0.000241487
0.000275992
0.000313197
0.000352403
0.000392636
0.000432676
0.00047116
0.00050672
0.000538168
0.000564683
0.00058596
0.000602288
0.000614543
0.000624001
0.000632084
0.00064036
0.000650158
0.000662389
0.000677565
0.000696219
0.000718009
0.000742579
0.000769448
0.000798099
0.000828052
0.000858906
0.000890357
0.000922202
0.000954317
0.000986613
0.00101896
0.00105116
0.00108273
0.0011128
0.00114034
0.00116394
0.00118208
0.0011923
0.00119598
0.00119172
0.00117531
0.00114509
0.00109598
0.0010207
0.000912765
0.000772718
0.000614088
0.000463837
0.000364324
0.000353936
0.000646206
7.23237e-05
3.48037e-05
2.52444e-05
2.17565e-05
2.07575e-05
2.11702e-05
2.25701e-05
2.47555e-05
2.76309e-05
3.11646e-05
3.53719e-05
4.03086e-05
4.60684e-05
5.27811e-05
6.06122e-05
6.9762e-05
8.04643e-05
9.29828e-05
0.000107605
0.000124632
0.00014436
0.000167056
0.000192925
0.000222062
0.000254406
0.000289687
0.000327378
0.000366676
0.00040651
0.000445603
0.000482582
0.000516147
0.000545253
0.00056929
0.000588204
0.000602523
0.000613429
0.00062212
0.000630258
0.000639299
0.0006504
0.000664233
0.000681606
0.000702343
0.000726175
0.000752656
0.000781247
0.000811407
0.000842652
0.000874596
0.000906971
0.000939625
0.000972498
0.00100557
0.00103876
0.00107193
0.0011046
0.00113585
0.00116451
0.0011889
0.00120707
0.0012164
0.00121932
0.00121326
0.00119568
0.00116606
0.00112059
0.00105211
0.00095223
0.000817611
0.000658186
0.000500795
0.000392423
0.000377494
0.000684657
7.80202e-05
3.7522e-05
2.71816e-05
2.33945e-05
2.22995e-05
2.27316e-05
2.42317e-05
2.65781e-05
2.96637e-05
3.34507e-05
3.79525e-05
4.32263e-05
4.93699e-05
5.65191e-05
6.48467e-05
7.45607e-05
8.59014e-05
9.91374e-05
0.000114558
0.000132458
0.000153121
0.00017679
0.000203628
0.000233677
0.000266801
0.00030264
0.000340572
0.000379701
0.000418882
0.000456808
0.000492133
0.000523656
0.000550501
0.00057228
0.00058919
0.000602039
0.000611952
0.000620477
0.000629167
0.000639389
0.000651974
0.000668007
0.000687567
0.000710502
0.000736444
0.000764871
0.000795199
0.000826865
0.000859386
0.000892401
0.000925686
0.000959151
0.000992814
0.00102674
0.00106094
0.00109532
0.00112946
0.0011624
0.00119282
0.00121881
0.00123754
0.00124637
0.00124849
0.00124002
0.00121976
0.00118844
0.001144
0.00108035
0.000988027
0.000860057
0.000701844
0.00053871
0.000421657
0.00040192
0.000724111
8.40395e-05
4.03919e-05
2.92239e-05
2.51202e-05
2.39248e-05
2.43792e-05
2.59866e-05
2.85033e-05
3.18089e-05
3.58582e-05
4.06621e-05
4.62787e-05
5.28093e-05
6.03955e-05
6.92163e-05
7.94859e-05
9.14501e-05
0.00010538
0.000121562
0.000140284
0.000161812
0.000186359
0.000214045
0.000244853
0.000278572
0.000314759
0.000352703
0.000391432
0.000429754
0.000466357
0.000499955
0.000529472
0.000554218
0.000574025
0.000589303
0.00060108
0.000610596
0.000619437
0.000629115
0.000640653
0.000655348
0.000673612
0.000695454
0.000720637
0.000748697
0.000779044
0.000811054
0.000844149
0.000877855
0.000911841
0.000945937
0.000980131
0.00101453
0.00104931
0.00108459
0.00112037
0.00115629
0.0011914
0.00122424
0.0012527
0.00127305
0.00128212
0.0012837
0.00127283
0.00124889
0.00121386
0.00116778
0.00110642
0.00102039
0.000899679
0.000744551
0.000577291
0.000451933
0.000427191
0.000764529
9.03994e-05
4.34214e-05
3.13764e-05
2.69375e-05
2.56371e-05
2.61165e-05
2.78382e-05
3.05339e-05
3.40682e-05
3.83875e-05
4.34989e-05
4.94611e-05
5.63786e-05
6.43978e-05
7.37034e-05
8.45147e-05
9.70805e-05
0.000111672
0.000128572
0.000148056
0.000170368
0.000195689
0.000224094
0.000255504
0.000289638
0.000325974
0.000363726
0.000401864
0.000439171
0.00047436
0.000506231
0.000533851
0.000556723
0.000574899
0.000589014
0.000600123
0.000609703
0.000619285
0.000630096
0.000643563
0.000660468
0.000681031
0.000705199
0.000732619
0.000762741
0.000794916
0.000828486
0.000862864
0.000897591
0.000932376
0.000967114
0.00100188
0.0010369
0.00107247
0.00110883
0.00114609
0.00118402
0.0012217
0.00125759
0.00128934
0.00131274
0.00132314
0.00132473
0.00131206
0.00128406
0.00124378
0.00119349
0.00113156
0.00104984
0.000936283
0.000785831
0.000616217
0.000483133
0.000453278
0.000805859
9.71186e-05
4.66188e-05
3.36444e-05
2.88506e-05
2.74401e-05
2.7947e-05
2.979e-05
3.26729e-05
3.64435e-05
4.10383e-05
4.64602e-05
5.27678e-05
6.00684e-05
6.85124e-05
7.82893e-05
8.96221e-05
0.000102761
0.000117976
0.000135541
0.000155718
0.000178727
0.000204713
0.000233704
0.000265562
0.000299939
0.000336243
0.000373628
0.000411024
0.000447216
0.000480963
0.000511172
0.000537065
0.000558337
0.000575235
0.000588556
0.000599492
0.000609553
0.000620062
0.000632551
0.000648134
0.000667291
0.000690198
0.000716672
0.000746258
0.000778327
0.000812178
0.000847126
0.000882581
0.000918107
0.000953463
0.000988622
0.00102376
0.00105922
0.00109543
0.0011328
0.00117157
0.00121163
0.00125218
0.00129163
0.00132743
0.00135537
0.00136857
0.00137097
0.00135764
0.00132585
0.00127938
0.00122264
0.00115715
0.00107715
0.000969883
0.000825269
0.000655138
0.000515118
0.000480138
0.000848041
0.000104217
4.99929e-05
3.60336e-05
3.08638e-05
2.93378e-05
2.98748e-05
3.18454e-05
3.49229e-05
3.89361e-05
4.38101e-05
4.9543e-05
5.61925e-05
6.38682e-05
7.27243e-05
8.29539e-05
9.47824e-05
0.00010846
0.000124253
0.000142424
0.000163219
0.000186831
0.00021337
0.000242815
0.000274974
0.000309435
0.00034555
0.000382427
0.000418978
0.000454006
0.000486341
0.000515008
0.000539392
0.000559367
0.000575357
0.000588301
0.000599461
0.000610208
0.000622131
0.000636574
0.000654304
0.000675765
0.000700998
0.000729702
0.000761326
0.000795173
0.000830496
0.00086659
0.000902872
0.000938937
0.000974604
0.00100993
0.00104521
0.0010809
0.00111759
0.00115583
0.00119604
0.00123826
0.00128185
0.00132525
0.00136579
0.00139941
0.00141724
0.00142155
0.00140905
0.00137441
0.0013215
0.00125659
0.00118462
0.00110331
0.00100072
0.000862544
0.000693693
0.000547722
0.000507714
0.000890999
0.000111714
5.35527e-05
3.85497e-05
3.29817e-05
3.13346e-05
3.19039e-05
3.40082e-05
3.72869e-05
4.15473e-05
4.67021e-05
5.27432e-05
5.97277e-05
6.77667e-05
7.70176e-05
8.76763e-05
9.99694e-05
0.000114146
0.000130464
0.000149177
0.000170511
0.000194631
0.00022161
0.000251383
0.000283704
0.000318111
0.000353907
0.000390171
0.000425816
0.000459683
0.000490688
0.000517981
0.000541106
0.000560102
0.000575546
0.000588453
0.000600089
0.000612002
0.00062566
0.000642093
0.000662037
0.000685796
0.000713281
0.000744085
0.000777572
0.000812983
0.000849534
0.00088651
0.000923342
0.000959669
0.000995378
0.00103062
0.00106579
0.00110149
0.00113846
0.00117741
0.00121892
0.00126324
0.00130991
0.00135749
0.00140335
0.00144333
0.00146785
0.00147539
0.00146545
0.00142946
0.0013706
0.00129643
0.00121535
0.00112945
0.00102923
0.000897451
0.000731519
0.000580763
0.00053594
0.000934648
0.000119632
5.73079e-05
4.11987e-05
3.5209e-05
3.34348e-05
3.40385e-05
3.62822e-05
3.97676e-05
4.42781e-05
4.97126e-05
5.60564e-05
6.33652e-05
7.17516e-05
8.13756e-05
9.24352e-05
0.000105157
0.000119786
0.000136574
0.000155761
0.000177551
0.000202084
0.000229395
0.000259376
0.000291738
0.000325972
0.000361349
0.000396934
0.000431656
0.000464411
0.00049421
0.000520333
0.00054247
0.000560808
0.000576024
0.0005892
0.00060174
0.000615135
0.000630589
0.0006491
0.000671266
0.000697259
0.000726875
0.000759605
0.000794739
0.000831466
0.000868977
0.000906554
0.000943656
0.000979971
0.00101546
0.00105037
0.00108522
0.00112073
0.00115777
0.00119724
0.00123988
0.00128614
0.0013358
0.00138761
0.00143903
0.00148589
0.00151899
0.00153138
0.00152567
0.00149037
0.00142675
0.00134295
0.0012506
0.00115681
0.00105607
0.000929927
0.000768273
0.000614041
0.000564734
0.000978885
0.000127994
6.12683e-05
4.39869e-05
3.75508e-05
3.56431e-05
3.6283e-05
3.86712e-05
4.23676e-05
4.71293e-05
5.28398e-05
5.94775e-05
6.70963e-05
7.58103e-05
8.57816e-05
9.72094e-05
0.000110319
0.000125353
0.000142551
0.000162141
0.000184306
0.000209157
0.000236697
0.00026678
0.000299076
0.000333045
0.000367933
0.00040281
0.000436633
0.000468366
0.000497119
0.0005223
0.000543735
0.000561733
0.000577054
0.000590861
0.000604599
0.000619577
0.000636936
0.000657552
0.000681896
0.000710015
0.000741595
0.000776042
0.000812579
0.000850356
0.000888546
0.000926445
0.000963546
0.000999597
0.00103464
0.00106902
0.00110335
0.00113849
0.00117543
0.00121522
0.00125879
0.00130677
0.00135921
0.00141511
0.00147213
0.00152607
0.00156911
0.00158853
0.00158837
0.00155615
0.00148963
0.00139663
0.00129145
0.00118662
0.00108205
0.000960056
0.000803639
0.000647342
0.000594001
0.00102359
0.000136822
6.54443e-05
4.69209e-05
4.00123e-05
3.79643e-05
3.86422e-05
4.11793e-05
4.50896e-05
5.01013e-05
5.60814e-05
6.30009e-05
7.09118e-05
7.99298e-05
9.02187e-05
0.000101979
0.000115433
0.000130818
0.000148367
0.000168289