/*--------------------------------*- C++ -*----------------------------------*\
  =========                 |
  \\      /  F ield         | OpenFOAM: The Open Source CFD Toolbox
   \\    /   O peration     | Website:  https://openfoam.org
    \\  /    A nd           | Version:  12
     \\/     M anipulation  |
\*---------------------------------------------------------------------------*/
FoamFile
{
    format      ascii;
    class       volVectorField;
    location    "4";
    object      U;
}
// * * * * * * * * * * * * * * * * * * * * * * * * * * * * * * * * * * * * * //

dimensions      [0 1 -1 0 0 0 0];

internalField   nonuniform List<vector> 
5625
(
(-6.36013e-06 2.58625e-06 0)
(8.41492e-06 -2.6196e-06 0)
(6.2791e-05 -6.12111e-06 0)
(0.000143256 -8.01066e-06 0)
(0.000237811 -8.84789e-06 0)
(0.000337603 -8.9733e-06 0)
(0.000436293 -8.64597e-06 0)
(0.000529579 -8.04071e-06 0)
(0.00061467 -7.27872e-06 0)
(0.000689874 -6.44295e-06 0)
(0.000754274 -5.589e-06 0)
(0.00080747 -4.75101e-06 0)
(0.000849373 -3.94781e-06 0)
(0.000880047 -3.18679e-06 0)
(0.000899551 -2.46037e-06 0)
(0.000907877 -1.76541e-06 0)
(0.000904832 -1.0805e-06 0)
(0.000889916 -3.81664e-07 0)
(0.000862337 3.55803e-07 0)
(0.000820904 1.16355e-06 0)
(0.000763985 2.07603e-06 0)
(0.000689442 3.13435e-06 0)
(0.000594601 4.38269e-06 0)
(0.000476189 5.86941e-06 0)
(0.00033031 7.64779e-06 0)
(0.00015239 9.77022e-06 0)
(-6.28412e-05 1.22967e-05 0)
(-0.000321369 1.52896e-05 0)
(-0.000629911 1.88227e-05 0)
(-0.000995882 2.29643e-05 0)
(-0.00142733 2.77816e-05 0)
(-0.00193288 3.33429e-05 0)
(-0.00252158 3.97102e-05 0)
(-0.00320274 4.69355e-05 0)
(-0.00398564 5.50547e-05 0)
(-0.0048792 6.40812e-05 0)
(-0.00589159 7.39979e-05 0)
(-0.0070297 8.47479e-05 0)
(-0.00829859 9.62262e-05 0)
(-0.00970082 0.000108269 0)
(-0.0112358 0.000120647 0)
(-0.0128989 0.000133056 0)
(-0.014681 0.000145113 0)
(-0.0165676 0.000156352 0)
(-0.0185384 0.000166226 0)
(-0.0205665 0.000174115 0)
(-0.0226182 0.000179332 0)
(-0.0246533 0.000181143 0)
(-0.0266246 0.000178788 0)
(-0.0284787 0.000171533 0)
(-0.0301569 0.000158764 0)
(-0.0315924 0.00013892 0)
(-0.0327252 0.000113264 0)
(-0.0334825 8.12215e-05 0)
(-0.0338181 4.10782e-05 0)
(-0.0336706 -3.46539e-06 0)
(-0.032992 -5.25943e-05 0)
(-0.0317663 -0.000104873 0)
(-0.0299917 -0.000157206 0)
(-0.0276955 -0.000206547 0)
(-0.0249366 -0.00024942 0)
(-0.0218059 -0.000282318 0)
(-0.018424 -0.000302145 0)
(-0.0149353 -0.000306707 0)
(-0.0114977 -0.00029516 0)
(-0.00826902 -0.000268287 0)
(-0.0053926 -0.000228503 0)
(-0.00298336 -0.000179545 0)
(-0.00111732 -0.000125872 0)
(0.000173941 -7.21107e-05 0)
(0.000903022 -2.21553e-05 0)
(0.00112476 2.02631e-05 0)
(0.000935532 5.19647e-05 0)
(0.000505266 6.3364e-05 0)
(9.11277e-05 4.20789e-05 0)
(-4.4026e-06 -1.25723e-06 0)
(5.59516e-05 -3.74642e-05 0)
(0.000206376 -6.92659e-05 0)
(0.000419838 -8.90087e-05 0)
(0.000668886 -9.86591e-05 0)
(0.000931823 -0.000100722 0)
(0.00119216 -9.74265e-05 0)
(0.00143817 -9.05139e-05 0)
(0.00166187 -8.12905e-05 0)
(0.00185815 -7.07025e-05 0)
(0.00202394 -5.94076e-05 0)
(0.00215756 -4.78269e-05 0)
(0.00225821 -3.61961e-05 0)
(0.00232547 -2.45983e-05 0)
(0.00235895 -1.29806e-05 0)
(0.00235802 -1.22827e-06 0)
(0.00232152 1.09106e-05 0)
(0.0022474 2.37575e-05 0)
(0.00213284 3.76551e-05 0)
(0.00197379 5.30422e-05 0)
(0.00176496 7.04021e-05 0)
(0.00149959 9.02743e-05 0)
(0.00116941 0.00011325 0)
(0.000764421 0.000139958 0)
(0.000272893 0.000171027 0)
(-0.000318769 0.000207177 0)
(-0.00102617 0.000249157 0)
(-0.00186686 0.000297699 0)
(-0.00286012 0.000353496 0)
(-0.00402702 0.00041723 0)
(-0.00539023 0.000489511 0)
(-0.00697358 0.000570829 0)
(-0.00880162 0.000661501 0)
(-0.010899 0.00076161 0)
(-0.0132894 0.000870925 0)
(-0.0159949 0.000988827 0)
(-0.0190342 0.00111423 0)
(-0.0224216 0.00124547 0)
(-0.0261651 0.0013803 0)
(-0.0302645 0.00151574 0)
(-0.03471 0.00164812 0)
(-0.0394799 0.00177303 0)
(-0.0445392 0.00188535 0)
(-0.0498381 0.00197933 0)
(-0.0553107 0.00204869 0)
(-0.0608743 0.00208676 0)
(-0.0664295 0.00208667 0)
(-0.0718603 0.00204165 0)
(-0.0770355 0.00194527 0)
(-0.0818108 0.00179181 0)
(-0.0860315 0.00157641 0)
(-0.0895304 0.00129444 0)
(-0.0921677 0.00094405 0)
(-0.0937283 0.000536436 0)
(-0.0941536 8.10687e-05 0)
(-0.0932866 -0.000435651 0)
(-0.0910357 -0.000979719 0)
(-0.0873745 -0.00153399 0)
(-0.0823222 -0.00207339 0)
(-0.075967 -0.0025686 0)
(-0.0684699 -0.00298812 0)
(-0.0600661 -0.00330115 0)
(-0.0510588 -0.00348108 0)
(-0.0418047 -0.00350941 0)
(-0.0326912 -0.00337927 0)
(-0.0241067 -0.00309768 0)
(-0.016407 -0.00268593 0)
(-0.00988284 -0.00217753 0)
(-0.00473407 -0.00161413 0)
(-0.00105278 -0.00104058 0)
(0.00118054 -0.000500976 0)
(0.00209721 -3.74711e-05 0)
(0.00194019 0.000300655 0)
(0.00111905 0.000438148 0)
(0.000201265 0.000275312 0)
(2.6343e-06 -2.00915e-05 0)
(0.000116091 -0.000108075 0)
(0.000352624 -0.00018462 0)
(0.000676802 -0.000233906 0)
(0.00105131 -0.000258665 0)
(0.00144555 -0.000264136 0)
(0.00183527 -0.000255472 0)
(0.00220262 -0.000236954 0)
(0.00253504 -0.000211905 0)
(0.00282413 -0.000182788 0)
(0.00306454 -0.000151341 0)
(0.00325303 -0.000118689 0)
(0.00338762 -8.5465e-05 0)
(0.00346696 -5.18851e-05 0)
(0.00348967 -1.78081e-05 0)
(0.00345407 1.70857e-05 0)
(0.00335738 5.35706e-05 0)
(0.00319572 9.24513e-05 0)
(0.00296366 0.000134748 0)
(0.00265395 0.000181684 0)
(0.00225726 0.00023462 0)
(0.00176194 0.000295093 0)
(0.00115391 0.000364618 0)
(0.000416411 0.00044498 0)
(-0.000470293 0.000538069 0)
(-0.00152887 0.000645803 0)
(-0.00278477 0.000770081 0)
(-0.00426636 0.000912801 0)
(-0.00600489 0.0010758 0)
(-0.00803402 0.00126076 0)
(-0.0103894 0.00146908 0)
(-0.0131082 0.00170176 0)
(-0.0162278 0.00195922 0)
(-0.0197848 0.00224115 0)
(-0.0238137 0.00254627 0)
(-0.0283447 0.00287216 0)
(-0.0334018 0.00321501 0)
(-0.0390003 0.00356946 0)
(-0.0451441 0.00392842 0)
(-0.0518231 0.00428297 0)
(-0.0590107 0.00462236 0)
(-0.0666607 0.00493404 0)
(-0.0747057 0.00520384 0)
(-0.0830549 0.00541622 0)
(-0.0915937 0.00555467 0)
(-0.100183 0.00560217 0)
(-0.10866 0.00554181 0)
(-0.11684 0.00535745 0)
(-0.12452 0.00503452 0)
(-0.131482 0.00456092 0)
(-0.137496 0.00392775 0)
(-0.142327 0.00312917 0)
(-0.14578 0.00215472 0)
(-0.147546 0.00106661 0)
(-0.147591 -0.000175773 0)
(-0.145664 -0.0015208 0)
(-0.141702 -0.00292987 0)
(-0.135677 -0.00434785 0)
(-0.127644 -0.00571284 0)
(-0.117749 -0.0069538 0)
(-0.106238 -0.00799559 0)
(-0.0934542 -0.00876541 0)
(-0.0798298 -0.00920079 0)
(-0.0658696 -0.00925828 0)
(-0.0521202 -0.00892143 0)
(-0.0391313 -0.0082063 0)
(-0.0274118 -0.00716279 0)
(-0.0173858 -0.00587077 0)
(-0.0093539 -0.0044315 0)
(-0.00346726 -0.00295682 0)
(0.000285189 -0.00156067 0)
(0.00208069 -0.000354625 0)
(0.00226286 0.000535111 0)
(0.00140236 0.000939521 0)
(0.000257338 0.000633631 0)
(1.0328e-05 -5.59846e-05 0)
(0.000176515 -0.000214125 0)
(0.000489547 -0.000347755 0)
(0.00090606 -0.000435016 0)
(0.00138159 -0.000479239 0)
(0.00187946 -0.000488668 0)
(0.00236965 -0.000471968 0)
(0.00282946 -0.000436627 0)
(0.00324249 -0.00038861 0)
(0.00359736 -0.000332416 0)
(0.00388646 -0.000271251 0)
(0.0041048 -0.000207202 0)
(0.00424896 -0.00014144 0)
(0.00431628 -7.43547e-05 0)
(0.00430403 -5.68405e-06 0)
(0.00420893 6.53241e-05 0)
(0.00402628 0.000140052 0)
(0.00374989 0.000220116 0)
(0.00337139 0.000307544 0)
(0.00287993 0.000404737 0)
(0.00226188 0.000514267 0)
(0.00150056 0.00063902 0)
(0.000575723 0.000782289 0)
(-0.000536438 0.000947406 0)
(-0.00186335 0.00113786 0)
(-0.0034363 0.00135725 0)
(-0.00529043 0.00160921 0)
(-0.00746457 0.00189727 0)
(-0.0100009 0.00222474 0)
(-0.0129446 0.00259453 0)
(-0.0163427 0.00300889 0)
(-0.0202434 0.00346918 0)
(-0.0246944 0.00397551 0)
(-0.0297412 0.00452643 0)
(-0.0354247 0.00511848 0)
(-0.0417789 0.00574588 0)
(-0.0488273 0.00640009 0)
(-0.0565803 0.00706952 0)
(-0.0650313 0.00773931 0)
(-0.0741533 0.00839122 0)
(-0.0838958 0.00900372 0)
(-0.094182 0.0095522 0)
(-0.104907 0.0100095 0)
(-0.115934 0.0103464 0)
(-0.127101 0.0105327 0)
(-0.138212 0.0105381 0)
(-0.149047 0.0103332 0)
(-0.159363 0.00989116 0)
(-0.168898 0.0091889 0)
(-0.177378 0.00820859 0)
(-0.184524 0.00693928 0)
(-0.190057 0.00537786 0)
(-0.193738 0.00352378 0)
(-0.195292 0.0014339 0)
(-0.194569 -0.000873252 0)
(-0.191386 -0.00335718 0)
(-0.185678 -0.00593032 0)
(-0.17744 -0.00849776 0)
(-0.166763 -0.0109504 0)
(-0.153845 -0.0131654 0)
(-0.13899 -0.0150141 0)
(-0.122616 -0.0163726 0)
(-0.105242 -0.0171344 0)
(-0.0874682 -0.0172247 0)
(-0.0699464 -0.0166142 0)
(-0.0533364 -0.0153283 0)
(-0.0382573 -0.0134506 0)
(-0.0252349 -0.0111177 0)
(-0.014655 -0.00850633 0)
(-0.0067266 -0.00581567 0)
(-0.00146057 -0.00325271 0)
(0.00133975 -0.00102586 0)
(0.00208008 0.000637702 0)
(0.00143224 0.00145516 0)
(0.000274714 0.0010504 0)
(1.72043e-05 -0.000108092 0)
(0.000231232 -0.000351494 0)
(0.000610349 -0.000550106 0)
(0.00110265 -0.000679957 0)
(0.00165773 -0.000745508 0)
(0.00223455 -0.000758188 0)
(0.00279894 -0.000730431 0)
(0.0033245 -0.000673289 0)
(0.00379168 -0.000595741 0)
(0.00418653 -0.000504647 0)
(0.00449932 -0.000404931 0)
(0.00472323 -0.000299813 0)
(0.00485322 -0.000191083 0)
(0.00488503 -7.93087e-05 0)
(0.00481427 3.5966e-05 0)
(0.00463568 0.000156073 0)
(0.00434236 0.000283175 0)
(0.00392539 0.000420002 0)
(0.00337316 0.000569816 0)
(0.00267101 0.000736455 0)
(0.00180063 0.000924343 0)
(0.00073991 0.0011382 0)
(-0.000537396 0.00138312 0)
(-0.00206192 0.00166451 0)
(-0.00386889 0.00198799 0)
(-0.00599814 0.00235931 0)
(-0.008494 0.00278415 0)
(-0.011405 0.00326794 0)
(-0.0147835 0.00381565 0)
(-0.0186845 0.00443143 0)
(-0.0231649 0.00511822 0)
(-0.0282819 0.00587729 0)
(-0.0340906 0.00670775 0)
(-0.0406418 0.00760588 0)
(-0.0479791 0.00856462 0)
(-0.056135 0.00957289 0)
(-0.0651276 0.0106151 0)
(-0.0749562 0.0116707 0)
(-0.0855974 0.0127141 0)
(-0.097001 0.0137143 0)
(-0.109087 0.0146358 0)
(-0.121743 0.0154384 0)
(-0.134822 0.016079 0)
(-0.148144 0.0165122 0)
(-0.161495 0.0166922 0)
(-0.17463 0.0165742 0)
(-0.187282 0.0161164 0)
(-0.199158 0.0152821 0)
(-0.209956 0.0140415 0)
(-0.219367 0.012374 0)
(-0.227084 0.0102703 0)
(-0.232812 0.00773386 0)
(-0.236295 0.00478007 0)
(-0.237279 0.00147843 0)
(-0.235587 -0.00212673 0)
(-0.231077 -0.00596157 0)
(-0.2237 -0.00990028 0)
(-0.213479 -0.0138033 0)
(-0.200536 -0.01751 0)
(-0.185101 -0.0208419 0)
(-0.16752 -0.0236131 0)
(-0.148253 -0.0256443 0)
(-0.127866 -0.0267807 0)
(-0.107017 -0.0269124 0)
(-0.0864239 -0.0259928 0)
(-0.0668201 -0.0240545 0)
(-0.0489051 -0.0212148 0)
(-0.0332865 -0.0176706 0)
(-0.0204245 -0.0136823 0)
(-0.0105871 -0.00954926 0)
(-0.00381879 -0.0055883 0)
(7.53412e-05 -0.00212324 0)
(0.00153183 0.000500355 0)
(0.00128009 0.00187195 0)
(0.000268204 0.00145422 0)
(2.28745e-05 -0.000174196 0)
(0.000277606 -0.000515584 0)
(0.000711563 -0.000784472 0)
(0.00126395 -0.000958953 0)
(0.00187894 -0.00104574 0)
(0.00251224 -0.00105975 0)
(0.00312666 -0.00101736 0)
(0.00369307 -0.00093335 0)
(0.00418947 -0.000819918 0)
(0.00459973 -0.000686467 0)
(0.00491217 -0.000539784 0)
(0.00511819 -0.000384289 0)
(0.005211 -0.00022243 0)
(0.00518459 -5.49323e-05 0)
(0.00503262 0.000118983 0)
(0.00474758 0.000301334 0)
(0.00432007 0.000495264 0)
(0.0037382 0.000704784 0)
(0.00298675 0.000934875 0)
(0.00204687 0.00119119 0)
(0.000895616 0.00148003 0)
(-0.000494553 0.00180835 0)
(-0.00215607 0.0021836 0)
(-0.00412647 0.00261363 0)
(-0.00644856 0.00310653 0)
(-0.00917033 0.00367047 0)
(-0.0123448 0.00431345 0)
(-0.0160294 0.00504296 0)
(-0.0202854 0.00586561 0)
(-0.0251766 0.00678663 0)
(-0.0307676 0.00780921 0)
(-0.0371221 0.00893388 0)
(-0.0442997 0.0101577 0)
(-0.052353 0.0114732 0)
(-0.0613238 0.012868 0)
(-0.0712387 0.0143235 0)
(-0.0821048 0.0158145 0)
(-0.0939047 0.0173086 0)
(-0.106593 0.0187664 0)
(-0.12009 0.0201412 0)
(-0.134282 0.0213803 0)
(-0.149018 0.0224258 0)
(-0.164109 0.0232163 0)
(-0.17933 0.0236893 0)
(-0.194423 0.0237829 0)
(-0.209101 0.0234387 0)
(-0.223057 0.0226043 0)
(-0.23597 0.0212359 0)
(-0.247511 0.0193008 0)
(-0.257357 0.0167797 0)
(-0.265194 0.0136695 0)
(-0.270732 0.00998556 0)
(-0.27372 0.00576324 0)
(-0.273931 0.00108517 0)
(-0.271195 -0.00397313 0)
(-0.265406 -0.00929984 0)
(-0.256533 -0.0147327 0)
(-0.244621 -0.0200868 0)
(-0.229815 -0.0251499 0)
(-0.21236 -0.0296879 0)
(-0.192617 -0.0334572 0)
(-0.171062 -0.0362219 0)
(-0.14828 -0.037776 0)
(-0.124958 -0.0379699 0)
(-0.101849 -0.0367354 0)
(-0.0797391 -0.0341069 0)
(-0.0593892 -0.0302318 0)
(-0.0414762 -0.0253671 0)
(-0.0265305 -0.0198599 0)
(-0.0148813 -0.0141181 0)
(-0.00661696 -0.00858027 0)
(-0.00156197 -0.00369886 0)
(0.000726671 4.80825e-05 0)
(0.00100373 0.00211395 0)
(0.000247297 0.00180025 0)
(2.7303e-05 -0.000251695 0)
(0.000314686 -0.000701504 0)
(0.000791724 -0.00104416 0)
(0.00138892 -0.0012635 0)
(0.00204541 -0.0013699 0)
(0.00271433 -0.00138224 0)
(0.0033563 -0.001321 0)
(0.00394023 -0.0012048 0)
(0.00444227 -0.00104914 0)
(0.00484452 -0.000866042 0)
(0.00513357 -0.000664187 0)
(0.00529913 -0.000449234 0)
(0.0053327 -0.000224292 0)
(0.00522627 9.89497e-06 0)
(0.00497136 0.000254492 0)
(0.00455808 0.00051236 0)
(0.00397418 0.000787901 0)
(0.00320448 0.00108671 0)
(0.00223012 0.00141552 0)
(0.00102798 0.00178211 0)
(-0.000429813 0.00219516 0)
(-0.00217632 0.00266415 0)
(-0.00425013 0.00319919 0)
(-0.00669554 0.00381087 0)
(-0.00956264 0.00451007 0)
(-0.0129072 0.00530759 0)
(-0.0167901 0.00621388 0)
(-0.021277 0.00723849 0)
(-0.0264368 0.00838953 0)
(-0.0323402 0.00967288 0)
(-0.0390577 0.0110914 0)
(-0.0466567 0.0126438 0)
(-0.0551982 0.0143237 0)
(-0.0647329 0.0161185 0)
(-0.0752964 0.0180081 0)
(-0.0869048 0.0199641 0)
(-0.0995487 0.0219489 0)
(-0.113189 0.0239154 0)
(-0.127753 0.0258074 0)
(-0.14313 0.0275599 0)
(-0.159167 0.0291008 0)
(-0.175675 0.0303527 0)
(-0.192422 0.0312355 0)
(-0.209145 0.0316694 0)
(-0.225547 0.0315781 0)
(-0.241311 0.030892 0)
(-0.256105 0.0295515 0)
(-0.269593 0.0275099 0)
(-0.281439 0.0247359 0)
(-0.291322 0.0212166 0)
(-0.298943 0.0169597 0)
(-0.30403 0.0119961 0)
(-0.306355 0.00638267 0)
(-0.305719 0.000218172 0)
(-0.301978 -0.00638951 0)
(-0.295052 -0.0132925 0)
(-0.284928 -0.0202938 0)
(-0.271664 -0.0271654 0)
(-0.255408 -0.0336462 0)
(-0.236404 -0.0394492 0)
(-0.215008 -0.0442737 0)
(-0.191686 -0.0478264 0)
(-0.167023 -0.0498477 0)
(-0.14171 -0.0501432 0)
(-0.116519 -0.0486162 0)
(-0.0922728 -0.0452959 0)
(-0.0697831 -0.0403539 0)
(-0.0497913 -0.0341034 0)
(-0.0328977 -0.0269793 0)
(-0.0194976 -0.0195027 0)
(-0.00973278 -0.0122431 0)
(-0.00346157 -0.0057924 0)
(-0.000253188 -0.000771251 0)
(0.000647141 0.00213089 0)
(0.000218775 0.00206189 0)
(3.05896e-05 -0.000337965 0)
(0.000342408 -0.000904156 0)
(0.000850573 -0.00132248 0)
(0.00147761 -0.00158545 0)
(0.00215805 -0.00170855 0)
(0.00284291 -0.00171526 0)
(0.00349129 -0.00163035 0)
(0.00407074 -0.00147635 0)
(0.00455609 -0.00127206 0)
(0.00492807 -0.0010321 0)
(0.00517179 -0.000767046 0)
(0.00527537 -0.000483811 0)
(0.0052285 -0.000185953 0)
(0.0050212 0.00012578 0)
(0.00464271 0.000453116 0)
(0.0040805 0.00079996 0)
(0.00331941 0.00117208 0)
(0.00234085 0.00157686 0)
(0.00112203 0.00202318 0)
(-0.000364563 0.00252118 0)
(-0.00215178 0.0030822 0)
(-0.0042782 0.00371853 0)
(-0.00678845 0.00444322 0)
(-0.00973339 0.00526989 0)
(-0.0131701 0.00621235 0)
(-0.0171614 0.00728422 0)
(-0.0217755 0.00849837 0)
(-0.0270849 0.00986628 0)
(-0.0331649 0.0113972 0)
(-0.0400912 0.013097 0)
(-0.0479379 0.0149674 0)
(-0.0567734 0.0170041 0)
(-0.0666567 0.0191956 0)
(-0.0776327 0.0215221 0)
(-0.0897268 0.0239537 0)
(-0.102939 0.0264492 0)
(-0.117241 0.0289562 0)
(-0.132566 0.0314102 0)
(-0.14881 0.0337356 0)
(-0.165828 0.0358469 0)
(-0.18343 0.0376513 0)
(-0.201387 0.0390515 0)
(-0.219431 0.0399491 0)
(-0.237265 0.0402491 0)
(-0.254566 0.0398636 0)
(-0.270997 0.0387155 0)
(-0.286218 0.0367426 0)
(-0.29989 0.0339002 0)
(-0.31169 0.0301636 0)
(-0.321316 0.0255304 0)
(-0.328494 0.0200228 0)
(-0.332984 0.0136896 0)
(-0.334587 0.00660893 0)
(-0.333138 -0.00110226 0)
(-0.32852 -0.0093066 0)
(-0.320671 -0.0178245 0)
(-0.309587 -0.0264273 0)
(-0.295327 -0.0348486 0)
(-0.278027 -0.0427831 0)
(-0.257914 -0.0498935 0)
(-0.235316 -0.0558242 0)
(-0.210677 -0.0602239 0)
(-0.184558 -0.0627754 0)
(-0.15764 -0.0632334 0)
(-0.130704 -0.0614645 0)
(-0.104596 -0.0574834 0)
(-0.0801767 -0.0514776 0)
(-0.0582504 -0.043811 0)
(-0.039491 -0.0350045 0)
(-0.0243671 -0.025696 0)
(-0.0130835 -0.0165928 0)
(-0.00554532 -0.00843567 0)
(-0.00134838 -0.00199572 0)
(0.000242016 0.00188871 0)
(0.000187292 0.00222327 0)
(3.2881e-05 -0.000430498 0)
(0.000361146 -0.00111842 0)
(0.000888561 -0.00161274 0)
(0.00153075 -0.00191681 0)
(0.00221823 -0.00205262 0)
(0.0029003 -0.0020489 0)
(0.00353502 -0.00193493 0)
(0.00408912 -0.00173721 0)
(0.00453659 -0.0014778 0)
(0.00485711 -0.00117387 0)
(0.00503457 -0.000837803 0)
(0.00505561 -0.000477563 0)
(0.00490817 -9.71656e-05 0)
(0.00458024 0.000302831 0)
(0.00405871 0.000724877 0)
(0.00332835 0.00117406 0)
(0.00237089 0.00165778 0)
(0.00116419 0.00218543 0)
(-0.000318525 0.00276825 0)
(-0.00210926 0.00341904 0)
(-0.00424581 0.004152 0)
(-0.00677223 0.0049825 0)
(-0.00973901 0.0059268 0)
(-0.0132032 0.00700169 0)
(-0.0172284 0.00822406 0)
(-0.021884 0.00961032 0)
(-0.0272444 0.0111757 0)
(-0.0333877 0.0129332 0)
(-0.040394 0.0148927 0)
(-0.0483421 0.0170594 0)
(-0.0573071 0.0194324 0)
(-0.0673555 0.0220031 0)
(-0.078541 0.0247533 0)
(-0.0908986 0.0276533 0)
(-0.104439 0.0306611 0)
(-0.119144 0.0337206 0)
(-0.134959 0.0367613 0)
(-0.151788 0.0396991 0)
(-0.169495 0.042437 0)
(-0.187898 0.044868 0)
(-0.206771 0.0468781 0)
(-0.225849 0.0483509 0)
(-0.244837 0.0491718 0)
(-0.26341 0.0492337 0)
(-0.281231 0.0484412 0)
(-0.297959 0.0467147 0)
(-0.313255 0.0439946 0)
(-0.326799 0.0402431 0)
(-0.33829 0.0354466 0)
(-0.347459 0.0296169 0)
(-0.354066 0.0227927 0)
(-0.357909 0.0150413 0)
(-0.358822 0.00646069 0)
(-0.356672 -0.00281475 0)
(-0.351363 -0.012623 0)
(-0.342845 -0.0227587 0)
(-0.331113 -0.0329663 0)
(-0.316212 -0.0429467 0)
(-0.298255 -0.0523555 0)
(-0.277434 -0.0608094 0)
(-0.254037 -0.0678993 0)
(-0.228467 -0.0732147 0)
(-0.201249 -0.0763767 0)
(-0.173043 -0.0770815 0)
(-0.144624 -0.0751489 0)
(-0.116861 -0.0705682 0)
(-0.0906581 -0.0635321 0)
(-0.0668871 -0.0544476 0)
(-0.0463013 -0.0439187 0)
(-0.0294517 -0.0327017 0)
(-0.0166172 -0.0216482 0)
(-0.00776135 -0.0116563 0)
(-0.00251872 -0.00365477 0)
(-0.000189959 0.00136508 0)
(0.00015569 0.00227535 0)
(3.4327e-05 -0.000526957 0)
(0.000371469 -0.00133933 0)
(0.000906511 -0.00190834 0)
(0.00154948 -0.00224979 0)
(0.00222761 -0.00239338 0)
(0.00288889 -0.00237368 0)
(0.00349079 -0.00222478 0)
(0.00399969 -0.00197715 0)
(0.00438909 -0.00165605 0)
(0.00463799 -0.00128108 0)
(0.00472929 -0.000866289 0)
(0.00464828 -0.000420581 0)
(0.00438123 5.17669e-05 0)
(0.0039141 0.000550544 0)
(0.00323139 0.0010791 0)
(0.00231508 0.0016439 0)
(0.00114371 0.00225419 0)
(-0.000308472 0.0029216 0)
(-0.00207227 0.00365993 0)
(-0.00418418 0.00448486 0)
(-0.00668691 0.00541372 0)
(-0.00962978 0.00646515 0)
(-0.0130689 0.00765876 0)
(-0.0170672 0.00901464 0)
(-0.0216941 0.0105528 0)
(-0.0270246 0.0122922 0)
(-0.0331384 0.0142503 0)
(-0.0401179 0.0164411 0)
(-0.0480459 0.0188744 0)
(-0.0570025 0.0215536 0)
(-0.0670609 0.0244741 0)
(-0.0782827 0.0276209 0)
(-0.0907128 0.030967 0)
(-0.104373 0.0344711 0)
(-0.119256 0.0380761 0)
(-0.135319 0.0417083 0)
(-0.152481 0.0452774 0)
(-0.170615 0.0486773 0)
(-0.18955 0.0517886 0)
(-0.209069 0.0544825 0)
(-0.228913 0.0566247 0)
(-0.248791 0.0580817 0)
(-0.268382 0.0587262 0)
(-0.28735 0.0584431 0)
(-0.305354 0.0571346 0)
(-0.32206 0.0547241 0)
(-0.337149 0.0511596 0)
(-0.350327 0.0464151 0)
(-0.361329 0.0404915 0)
(-0.369924 0.0334169 0)
(-0.375914 0.0252472 0)
(-0.379134 0.0160669 0)
(-0.379451 0.0059911 0)
(-0.376759 -0.00483123 0)
(-0.370978 -0.0162196 0)
(-0.362059 -0.0279492 0)
(-0.349987 -0.039744 0)
(-0.334785 -0.0512785 0)
(-0.316527 -0.0621746 0)
(-0.295361 -0.0720069 0)
(-0.271522 -0.0803147 0)
(-0.245358 -0.0866269 0)
(-0.217351 -0.090498 0)
(-0.188122 -0.0915573 0)
(-0.158439 -0.0895663 0)
(-0.129182 -0.0844755 0)
(-0.101301 -0.0764703 0)
(-0.0757384 -0.0659911 0)
(-0.0533351 -0.0537202 0)
(-0.0347356 -0.0405332 0)
(-0.0203052 -0.0274321 0)
(-0.0100784 -0.0154804 0)
(-0.00373924 -0.00577213 0)
(-0.000635219 0.000544842 0)
(0.000125382 0.00221422 0)
(3.50608e-05 -0.000625197 0)
(0.000373992 -0.00156208 0)
(0.000905404 -0.00220286 0)
(0.00153514 -0.00257683 0)
(0.00218799 -0.00272237 0)
(0.0028111 -0.0026805 0)
(0.0033618 -0.00249034 0)
(0.00380648 -0.00218637 0)
(0.00411858 -0.00179695 0)
(0.00427669 -0.00134396 0)
(0.00426295 -0.000842926 0)
(0.00406147 -0.000303505 0)
(0.00365692 0.000269956 0)
(0.00303326 0.000877783 0)
(0.00217259 0.00152442 0)
(0.00105406 0.00221793 0)
(-0.000346985 0.00296958 0)
(-0.00205995 0.00379346 0)
(-0.00411966 0.00470613 0)
(-0.00656703 0.00572639 0)
(-0.00944954 0.00687483 0)
(-0.0128216 0.00817354 0)
(-0.0167445 0.00964557 0)
(-0.0212865 0.0113143 0)
(-0.0265222 0.0132028 0)
(-0.0325313 0.0153325 0)
(-0.0393975 0.0177224 0)
(-0.0472059 0.020387 0)
(-0.0560403 0.023335 0)
(-0.0659794 0.0265669 0)
(-0.077092 0.0300725 0)
(-0.089432 0.033829 0)
(-0.103032 0.0377981 0)
(-0.117897 0.0419245 0)
(-0.133998 0.0461338 0)
(-0.151267 0.0503324 0)
(-0.169592 0.0544081 0)
(-0.188815 0.0582319 0)
(-0.208731 0.0616616 0)
(-0.229092 0.0645472 0)
(-0.249613 0.0667364 0)
(-0.269978 0.0680818 0)
(-0.289857 0.0684477 0)
(-0.30891 0.0677163 0)
(-0.326806 0.0657928 0)
(-0.34323 0.0626089 0)
(-0.357893 0.058125 0)
(-0.370536 0.0523305 0)
(-0.380938 0.0452431 0)
(-0.38891 0.0369079 0)
(-0.394296 0.027397 0)
(-0.396966 0.0168096 0)
(-0.396818 0.00527399 0)
(-0.393765 -0.00705076 0)
(-0.387737 -0.0199722 0)
(-0.378679 -0.0332532 0)
(-0.366556 -0.0466035 0)
(-0.351361 -0.0596774 0)
(-0.333126 -0.0720695 0)
(-0.31194 -0.083316 0)
(-0.287978 -0.0929068 0)
(-0.261526 -0.100309 0)
(-0.233005 -0.105005 0)
(-0.202995 -0.106549 0)
(-0.17224 -0.10463 0)
(-0.141629 -0.0991464 0)
(-0.112156 -0.0902599 0)
(-0.084835 -0.0784327 0)
(-0.0606049 -0.0644182 0)
(-0.0402163 -0.0492118 0)
(-0.0241354 -0.0339709 0)
(-0.0124807 -0.0199338 0)
(-0.0049969 -0.00836832 0)
(-0.0010864 -0.000582977 0)
(9.71333e-05 0.00203853 0)
(3.51932e-05 -0.000723258 0)
(0.000369305 -0.00178213 0)
(0.000886241 -0.00249006 0)
(0.0014891 -0.00289054 0)
(0.00210117 -0.00303139 0)
(0.00266927 -0.00296059 0)
(0.00315104 -0.00272247 0)
(0.0035133 -0.00235553 0)
(0.00372974 -0.00189114 0)
(0.00377885 -0.00135325 0)
(0.00364222 -0.000758654 0)
(0.00330294 -0.000117536 0)
(0.00274418 0.000565903 0)
(0.00194796 0.00129274 0)
(0.000893983 0.00206873 0)
(-0.000441382 0.00290372 0)
(-0.00208603 0.00381123 0)
(-0.00407295 0.00480797 0)
(-0.00644094 0.0059135 0)
(-0.00923518 0.00714983 0)
(-0.0125077 0.00854102 0)
(-0.0163177 0.0101127 0)
(-0.0207312 0.0118913 0)
(-0.0258213 0.0139035 0)
(-0.0316666 0.0161752 0)
(-0.0383508 0.0187299 0)
(-0.04596 0.0215876 0)
(-0.0545803 0.0247626 0)
(-0.0642946 0.0282612 0)
(-0.0751778 0.0320795 0)
(-0.0872917 0.0362003 0)
(-0.100679 0.0405907 0)
(-0.115358 0.0451991 0)
(-0.131312 0.0499536 0)
(-0.14849 0.0547605 0)
(-0.166796 0.0595045 0)
(-0.186087 0.06405 0)
(-0.206173 0.0682448 0)
(-0.226818 0.0719247 0)
(-0.24775 0.0749202 0)
(-0.26866 0.0770643 0)
(-0.289222 0.0782001 0)
(-0.309103 0.0781884 0)
(-0.327972 0.0769141 0)
(-0.345518 0.0742911 0)
(-0.361454 0.0702641 0)
(-0.37553 0.0648099 0)
(-0.387531 0.0579355 0)
(-0.397277 0.0496766 0)
(-0.404625 0.0400945 0)
(-0.409458 0.0292748 0)
(-0.411679 0.0173279 0)
(-0.411209 0.00439124 0)
(-0.407975 -0.00937146 0)
(-0.40191 -0.0237622 0)
(-0.39295 -0.0385387 0)
(-0.381035 -0.0534025 0)
(-0.366122 -0.0679944 0)
(-0.348192 -0.0818874 0)
(-0.327278 -0.0945842 0)
(-0.303484 -0.105527 0)
(-0.277024 -0.114121 0)
(-0.248252 -0.119773 0)
(-0.217692 -0.121951 0)
(-0.186054 -0.12026 0)
(-0.154228 -0.114527 0)
(-0.123245 -0.104874 0)
(-0.0941953 -0.0917692 0)
(-0.0681232 -0.0760279 0)
(-0.0458993 -0.0587632 0)
(-0.0281068 -0.0412939 0)
(-0.0149636 -0.0250431 0)
(-0.00628725 -0.0114626 0)
(-0.00154091 -0.00202703 0)
(7.1177e-05 0.00174789 0)
(3.48118e-05 -0.000819342 0)
(0.000357928 -0.00199515 0)
(0.000849959 -0.00276392 0)
(0.00141269 -0.00318375 0)
(0.00196887 -0.00331248 0)
(0.00246562 -0.00320544 0)
(0.00286135 -0.00291235 0)
(0.00312369 -0.0024757 0)
(0.00322694 -0.0019297 0)
(0.00314977 -0.00130018 0)
(0.00287343 -0.000604943 0)
(0.00238013 0.000145547 0)
(0.00165168 0.000947477 0)
(0.000668213 0.00180291 0)
(-0.000592891 0.00271912 0)
(-0.00215803 0.00370797 0)
(-0.00405826 0.0047854 0)
(-0.00633008 0.00597094 0)
(-0.00901612 0.00728728 0)
(-0.0121657 0.00875982 0)
(-0.015835 0.0104161 0)
(-0.0200876 0.0122853 0)
(-0.0249939 0.0143974 0)
(-0.0306308 0.0167821 0)
(-0.0370804 0.0194676 0)
(-0.0444286 0.0224792 0)
(-0.0527628 0.0258372 0)
(-0.0621685 0.0295544 0)
(-0.0727252 0.0336338 0)
(-0.0845018 0.0380654 0)
(-0.0975503 0.0428231 0)
(-0.1119 0.0478617 0)
(-0.127551 0.0531143 0)
(-0.144465 0.0584903 0)
(-0.162565 0.0638748 0)
(-0.181725 0.0691293 0)
(-0.201773 0.0740945 0)
(-0.222491 0.0785954 0)
(-0.243616 0.0824473 0)
(-0.264853 0.0854646 0)
(-0.285884 0.0874691 0)
(-0.306378 0.0882995 0)
(-0.32601 0.0878188 0)
(-0.344467 0.0859201 0)
(-0.361468 0.0825305 0)
(-0.376762 0.0776122 0)
(-0.390142 0.0711606 0)
(-0.401437 0.0632019 0)
(-0.410512 0.053789 0)
(-0.417266 0.0429975 0)
(-0.421617 0.0309238 0)
(-0.423495 0.0176847 0)
(-0.422839 0.00342251 0)
(-0.419587 -0.0116996 0)
(-0.41367 -0.0274842 0)
(-0.40501 -0.0436903 0)
(-0.393522 -0.0600173 0)
(-0.379126 -0.0760992 0)
(-0.361752 -0.091493 0)
(-0.341369 -0.105673 0)
(-0.31801 -0.118039 0)
(-0.29181 -0.127932 0)
(-0.263043 -0.134681 0)
(-0.232167 -0.137659 0)
(-0.199846 -0.136374 0)
(-0.166958 -0.130561 0)
(-0.134561 -0.120284 0)
(-0.103822 -0.105997 0)
(-0.0758973 -0.0885653 0)
(-0.0517925 -0.0692155 0)
(-0.0322252 -0.0494327 0)
(-0.0175303 -0.0308359 0)
(-0.00761191 -0.0150744 0)
(-0.0019995 -0.00379588 0)
(4.7317e-05 0.00134229 0)
(3.39837e-05 -0.00091179 0)
(0.000340302 -0.00219701 0)
(0.000797393 -0.0030186 0)
(0.0013071 -0.00344946 0)
(0.00179267 -0.00355787 0)
(0.00220217 -0.00340682 0)
(0.0024953 -0.00305149 0)
(0.00264093 -0.00253831 0)
(0.00261427 -0.00190416 0)
(0.00239445 -0.00117646 0)
(0.00196258 -0.000373802 0)
(0.00130019 0.000493372 0)
(0.000387821 0.00142189 0)
(-0.000796167 0.00241506 0)
(-0.00227666 0.00348188 0)
(-0.00408274 0.00463644 0)
(-0.00624851 0.00589729 0)
(-0.00881386 0.00728694 0)
(-0.0118251 0.00883133 0)
(-0.0153352 0.0105593 0)
(-0.0194046 0.012502 0)
(-0.0241004 0.0146922 0)
(-0.0294967 0.0171629 0)
(-0.0356735 0.0199468 0)
(-0.0427153 0.0230742 0)
(-0.0507093 0.0265712 0)
(-0.0597421 0.0304576 0)
(-0.0698968 0.0347438 0)
(-0.0812476 0.0394279 0)
(-0.0938549 0.044492 0)
(-0.107759 0.0498994 0)
(-0.122972 0.0555905 0)
(-0.139475 0.061481 0)
(-0.157206 0.0674598 0)
(-0.17606 0.0733893 0)
(-0.195885 0.0791072 0)
(-0.216478 0.0844309 0)
(-0.237597 0.0891636 0)
(-0.258958 0.093103 0)
(-0.280252 0.0960509 0)
(-0.301157 0.0978231 0)
(-0.321347 0.098259 0)
(-0.340514 0.097229 0)
(-0.358374 0.0946396 0)
(-0.374678 0.0904355 0)
(-0.389219 0.0845986 0)
(-0.401832 0.0771447 0)
(-0.412392 0.068119 0)
(-0.420806 0.0575903 0)
(-0.427009 0.0456459 0)
(-0.43095 0.0323891 0)
(-0.432583 0.0179386 0)
(-0.431859 0.00243792 0)
(-0.428724 -0.0139554 0)
(-0.423103 -0.0310503 0)
(-0.414907 -0.048612 0)
(-0.404027 -0.0663442 0)
(-0.390343 -0.0838801 0)
(-0.373739 -0.100767 0)
(-0.35412 -0.116458 0)
(-0.331443 -0.130312 0)
(-0.30576 -0.141612 0)
(-0.277259 -0.149604 0)
(-0.246315 -0.153561 0)
(-0.21353 -0.152878 0)
(-0.179754 -0.147182 0)
(-0.146065 -0.136451 0)
(-0.113698 -0.121106 0)
(-0.083926 -0.102043 0)
(-0.0579026 -0.0805953 0)
(-0.0364996 -0.0584192 0)
(-0.0201883 -0.0373412 0)
(-0.00897634 -0.0192239 0)
(-0.00246521 -0.00589909 0)
(2.51794e-05 0.00082113 0)
(3.27583e-05 -0.000999053 0)
(0.000316784 -0.00238379 0)
(0.000729247 -0.00324845 0)
(0.00117338 -0.00368086 0)
(0.00157398 -0.00376001 0)
(0.00188076 -0.00355674 0)
(0.00205526 -0.0031317 0)
(0.00206801 -0.00253516 0)
(0.0018955 -0.00180644 0)
(0.00151755 -0.000974301 0)
(0.000915388 -5.77828e-05 0)
(6.99889e-05 0.00093296 0)
(-0.00103923 0.00199569 0)
(-0.00243558 0.00313519 0)
(-0.0041461 0.00436244 0)
(-0.00620243 0.00569393 0)
(-0.0086416 0.007151 0)
(-0.0115067 0.00875926 0)
(-0.0148474 0.010548 0)
(-0.0187203 0.0125496 0)
(-0.0231892 0.0147988 0)
(-0.0283245 0.0173315 0)
(-0.0342032 0.0201841 0)
(-0.0409074 0.0233915 0)
(-0.0485229 0.0269856 0)
(-0.0571366 0.0309927 0)
(-0.0668332 0.035431 0)
(-0.0776911 0.0403072 0)
(-0.0897774 0.0456129 0)
(-0.103142 0.051321 0)
(-0.11781 0.0573816 0)
(-0.133777 0.0637194 0)
(-0.151001 0.0702305 0)
(-0.169395 0.076782 0)
(-0.188829 0.0832126 0)
(-0.209122 0.0893365 0)
(-0.230049 0.0949484 0)
(-0.251344 0.0998324 0)
(-0.272709 0.103772 0)
(-0.29383 0.10656 0)
(-0.314386 0.108013 0)
(-0.334069 0.107974 0)
(-0.352592 0.106328 0)
(-0.369706 0.102999 0)
(-0.3852 0.0979504 0)
(-0.398912 0.0911871 0)
(-0.410718 0.0827453 0)
(-0.420535 0.0726876 0)
(-0.428309 0.0610966 0)
(-0.434005 0.0480687 0)
(-0.437601 0.0337104 0)
(-0.439068 0.0181387 0)
(-0.438368 0.0014937 0)
(-0.435452 -0.016077 0)
(-0.430238 -0.0343921 0)
(-0.42263 -0.0532282 0)
(-0.412495 -0.0722993 0)
(-0.399683 -0.0912436 0)
(-0.384029 -0.109606 0)
(-0.365379 -0.126824 0)
(-0.343616 -0.142223 0)
(-0.318701 -0.155031 0)
(-0.290728 -0.164413 0)
(-0.259977 -0.169535 0)
(-0.226974 -0.169667 0)
(-0.192519 -0.164306 0)
(-0.157692 -0.153322 0)
(-0.123788 -0.137073 0)
(-0.0921972 -0.116464 0)
(-0.0642324 -0.0929254 0)
(-0.0409392 -0.0682842 0)
(-0.0229476 -0.0445884 0)
(-0.0103877 -0.0239324 0)
(-0.00294263 -0.00834838 0)
(4.2484e-06 0.000182739 0)
(3.11703e-05 -0.00107967 0)
(0.000287649 -0.00255169 0)
(0.000646091 -0.003448 0)
(0.00101241 -0.00387133 0)
(0.00131402 -0.00391155 0)
(0.00150299 -0.00364744 0)
(0.00154334 -0.00314507 0)
(0.00140768 -0.0024584 0)
(0.00107413 -0.0016289 0)