/*--------------------------------*- C++ -*----------------------------------*\
  =========                 |
  \\      /  F ield         | OpenFOAM: The Open Source CFD Toolbox
   \\    /   O peration     | Website:  https://openfoam.org
    \\  /    A nd           | Version:  12
     \\/     M anipulation  |
\*---------------------------------------------------------------------------*/
FoamFile
{
    format      ascii;
    class       volScalarField;
    location    "2";
    object      k;
}
// * * * * * * * * * * * * * * * * * * * * * * * * * * * * * * * * * * * * * //

dimensions      [0 2 -2 0 0 0 0];

internalField   nonuniform List<scalar> 
18225
(
6.30767e-10
4.76584e-09
1.01114e-08
1.65091e-08
2.37421e-08
3.1651e-08
4.01244e-08
4.90807e-08
5.84566e-08
6.82006e-08
7.82687e-08
8.86225e-08
9.92273e-08
1.10052e-07
1.21067e-07
1.32246e-07
1.43562e-07
1.54992e-07
1.66513e-07
1.78102e-07
1.89738e-07
2.01401e-07
2.1307e-07
2.24728e-07
2.36355e-07
2.47934e-07
2.59448e-07
2.7088e-07
2.82215e-07
2.93436e-07
3.0453e-07
3.15481e-07
3.26276e-07
3.36901e-07
3.47344e-07
3.57594e-07
3.67636e-07
3.77462e-07
3.87059e-07
3.96418e-07
4.05529e-07
4.14382e-07
4.22969e-07
4.31282e-07
4.39311e-07
4.4705e-07
4.54491e-07
4.61629e-07
4.68456e-07
4.74967e-07
4.81155e-07
4.87017e-07
4.92547e-07
4.97741e-07
5.02594e-07
5.07103e-07
5.11265e-07
5.15077e-07
5.18535e-07
5.21637e-07
5.24381e-07
5.26765e-07
5.28788e-07
5.30448e-07
5.31744e-07
5.32676e-07
5.33242e-07
5.33443e-07
5.3328e-07
5.3275e-07
5.31856e-07
5.30598e-07
5.28978e-07
5.26995e-07
5.24653e-07
5.21952e-07
5.18895e-07
5.15485e-07
5.11723e-07
5.07613e-07
5.03158e-07
4.98361e-07
4.93226e-07
4.87758e-07
4.8196e-07
4.75837e-07
4.69395e-07
4.62638e-07
4.55572e-07
4.48204e-07
4.40539e-07
4.32585e-07
4.24349e-07
4.15838e-07
4.0706e-07
3.98024e-07
3.88738e-07
3.79212e-07
3.69456e-07
3.5948e-07
3.49293e-07
3.38909e-07
3.28337e-07
3.17591e-07
3.06682e-07
2.95625e-07
2.84433e-07
2.7312e-07
2.61701e-07
2.50191e-07
2.38608e-07
2.26967e-07
2.15285e-07
2.03582e-07
1.91876e-07
1.80186e-07
1.68532e-07
1.56938e-07
1.45424e-07
1.34014e-07
1.22733e-07
1.11608e-07
1.00666e-07
8.99369e-08
7.94542e-08
6.92532e-08
5.9374e-08
4.98621e-08
4.0771e-08
3.2166e-08
2.41313e-08
1.6781e-08
1.02784e-08
4.84456e-09
6.41176e-10
4.26766e-09
3.79969e-08
8.6681e-08
1.45056e-07
2.10711e-07
2.8225e-07
3.58742e-07
4.39501e-07
5.23986e-07
6.11748e-07
7.02402e-07
7.95607e-07
8.91057e-07
9.88473e-07
1.08759e-06
1.18818e-06
1.29e-06
1.39283e-06
1.49648e-06
1.60073e-06
1.70541e-06
1.81032e-06
1.91529e-06
2.02015e-06
2.12474e-06
2.22889e-06
2.33246e-06
2.43529e-06
2.53723e-06
2.63816e-06
2.73794e-06
2.83644e-06
2.93353e-06
3.0291e-06
3.12303e-06
3.21521e-06
3.30553e-06
3.3939e-06
3.48022e-06
3.5644e-06
3.64634e-06
3.72597e-06
3.8032e-06
3.87796e-06
3.95017e-06
4.01978e-06
4.08671e-06
4.1509e-06
4.21231e-06
4.27087e-06
4.32653e-06
4.37925e-06
4.42899e-06
4.47571e-06
4.51936e-06
4.55992e-06
4.59736e-06
4.63164e-06
4.66275e-06
4.69066e-06
4.71535e-06
4.7368e-06
4.755e-06
4.76994e-06
4.7816e-06
4.78999e-06
4.79509e-06
4.7969e-06
4.79543e-06
4.79068e-06
4.78264e-06
4.77133e-06
4.75676e-06
4.73893e-06
4.71787e-06
4.69358e-06
4.6661e-06
4.63543e-06
4.6016e-06
4.56464e-06
4.52458e-06
4.48144e-06
4.43527e-06
4.38609e-06
4.33395e-06
4.27889e-06
4.22095e-06
4.16019e-06
4.09665e-06
4.03038e-06
3.96145e-06
3.88992e-06
3.81585e-06
3.7393e-06
3.66036e-06
3.5791e-06
3.49558e-06
3.40991e-06
3.32217e-06
3.23244e-06
3.14082e-06
3.04742e-06
2.95234e-06
2.85568e-06
2.75757e-06
2.65811e-06
2.55744e-06
2.45568e-06
2.35296e-06
2.24943e-06
2.14523e-06
2.04052e-06
1.93543e-06
1.83015e-06
1.72483e-06
1.61966e-06
1.51482e-06
1.4105e-06
1.3069e-06
1.20423e-06
1.10271e-06
1.00259e-06
9.041e-07
8.07523e-07
7.13143e-07
6.2128e-07
5.32286e-07
4.46563e-07
3.64575e-07
2.86884e-07
2.14195e-07
1.47466e-07
8.81243e-08
3.86295e-08
4.33868e-09
9.50313e-09
8.52486e-08
1.95745e-07
3.29158e-07
4.79812e-07
6.44333e-07
8.20453e-07
1.00651e-06
1.20121e-06
1.40348e-06
1.61243e-06
1.82726e-06
2.04726e-06
2.27178e-06
2.50022e-06
2.73203e-06
2.96667e-06
3.20364e-06
3.44247e-06
3.6827e-06
3.92389e-06
4.16562e-06
4.40749e-06
4.64909e-06
4.89005e-06
5.13001e-06
5.36861e-06
5.60551e-06
5.84038e-06
6.0729e-06
6.30276e-06
6.52967e-06
6.75334e-06
6.9735e-06
7.18988e-06
7.40223e-06
7.61031e-06
7.81389e-06
8.01274e-06
8.20664e-06
8.39541e-06
8.57884e-06
8.75675e-06
8.92897e-06
9.09533e-06
9.25568e-06
9.40987e-06
9.55776e-06
9.69923e-06
9.83414e-06
9.96238e-06
1.00839e-05
1.01985e-05
1.03061e-05
1.04067e-05
1.05002e-05
1.05864e-05
1.06654e-05
1.07371e-05
1.08015e-05
1.08584e-05
1.09079e-05
1.09498e-05
1.09843e-05
1.10112e-05
1.10306e-05
1.10424e-05
1.10467e-05
1.10434e-05
1.10325e-05
1.10141e-05
1.09881e-05
1.09546e-05
1.09136e-05
1.08652e-05
1.08093e-05
1.07461e-05
1.06755e-05
1.05977e-05
1.05126e-05
1.04204e-05
1.03211e-05
1.02149e-05
1.01016e-05
9.98161e-06
9.85484e-06
9.72145e-06
9.58153e-06
9.43522e-06
9.28262e-06
9.12389e-06
8.95915e-06
8.78855e-06
8.61226e-06
8.43043e-06
8.24324e-06
8.05088e-06
7.85352e-06
7.65139e-06
7.44468e-06
7.23361e-06
7.01842e-06
6.79934e-06
6.57664e-06
6.35056e-06
6.12139e-06
5.88941e-06
5.65491e-06
5.4182e-06
5.1796e-06
4.93945e-06
4.6981e-06
4.45589e-06
4.21322e-06
3.97046e-06
3.72802e-06
3.48633e-06
3.24583e-06
3.00698e-06
2.77027e-06
2.53621e-06
2.30534e-06
2.07824e-06
1.85553e-06
1.63789e-06
1.42604e-06
1.22083e-06
1.02318e-06
8.34195e-07
6.55225e-07
4.87979e-07
3.34787e-07
1.991e-07
8.67099e-08
9.66598e-09
1.57478e-08
1.415e-07
3.25591e-07
5.48628e-07
8.01187e-07
1.07755e-06
1.37383e-06
1.68712e-06
2.01517e-06
2.35614e-06
2.70845e-06
3.07075e-06
3.4418e-06
3.8205e-06
4.20584e-06
4.59685e-06
4.99265e-06
5.39238e-06
5.79524e-06
6.20046e-06
6.60729e-06
7.01502e-06
7.42297e-06
7.83047e-06
8.23689e-06
8.6416e-06
9.04401e-06
9.44355e-06
9.83965e-06
1.02318e-05
1.06194e-05
1.10021e-05
1.13793e-05
1.17506e-05
1.21155e-05
1.24735e-05
1.28244e-05
1.31677e-05
1.3503e-05
1.383e-05
1.41484e-05
1.44577e-05
1.47577e-05
1.50481e-05
1.53287e-05
1.55991e-05
1.58591e-05
1.61085e-05
1.63471e-05
1.65746e-05
1.67909e-05
1.69958e-05
1.71891e-05
1.73707e-05
1.75404e-05
1.76981e-05
1.78436e-05
1.7977e-05
1.8098e-05
1.82066e-05
1.83027e-05
1.83862e-05
1.84571e-05
1.85154e-05
1.8561e-05
1.85938e-05
1.86139e-05
1.86213e-05
1.86159e-05
1.85977e-05
1.85668e-05
1.85233e-05
1.8467e-05
1.83981e-05
1.83166e-05
1.82227e-05
1.81163e-05
1.79975e-05
1.78665e-05
1.77232e-05
1.7568e-05
1.74008e-05
1.72217e-05
1.7031e-05
1.68288e-05
1.66152e-05
1.63905e-05
1.61547e-05
1.59081e-05
1.56509e-05
1.53834e-05
1.51057e-05
1.48181e-05
1.45209e-05
1.42144e-05
1.38988e-05
1.35745e-05
1.32417e-05
1.29008e-05
1.25522e-05
1.21962e-05
1.18333e-05
1.14638e-05
1.10881e-05
1.07068e-05
1.03201e-05
9.92877e-06
9.53312e-06
9.13373e-06
8.73114e-06
8.3259e-06
7.91861e-06
7.50986e-06
7.1003e-06
6.69058e-06
6.28138e-06
5.87343e-06
5.46748e-06
5.0643e-06
4.66472e-06
4.26961e-06
3.87989e-06
3.49655e-06
3.12064e-06
2.75332e-06
2.39585e-06
2.04966e-06
1.71637e-06
1.39791e-06
1.09661e-06
8.15451e-07
5.5844e-07
3.31427e-07
1.44037e-07
1.603e-08
2.27313e-08
2.04374e-07
4.70699e-07
7.93956e-07
1.16063e-06
1.56247e-06
1.99376e-06
2.45025e-06
2.92858e-06
3.426e-06
3.94017e-06
4.46906e-06
5.01084e-06
5.56388e-06
6.12665e-06
6.69777e-06
7.27589e-06
7.85978e-06
8.44825e-06
9.04016e-06
9.63443e-06
1.023e-05
1.08259e-05
1.14211e-05
1.20148e-05
1.26059e-05
1.31936e-05
1.37772e-05
1.43557e-05
1.49284e-05
1.54945e-05
1.60534e-05
1.66043e-05
1.71465e-05
1.76793e-05
1.82023e-05
1.87147e-05
1.9216e-05
1.97057e-05
2.01832e-05
2.0648e-05
2.10997e-05
2.15378e-05
2.19619e-05
2.23716e-05
2.27665e-05
2.31463e-05
2.35105e-05
2.38589e-05
2.41913e-05
2.45072e-05
2.48065e-05
2.50889e-05
2.53541e-05
2.56021e-05
2.58325e-05
2.60452e-05
2.62401e-05
2.6417e-05
2.65758e-05
2.67164e-05
2.68387e-05
2.69425e-05
2.70279e-05
2.70948e-05
2.71431e-05
2.71728e-05
2.71838e-05
2.71763e-05
2.71502e-05
2.71055e-05
2.70423e-05
2.69606e-05
2.68604e-05
2.67419e-05
2.66051e-05
2.64502e-05
2.62772e-05
2.60863e-05
2.58776e-05
2.56513e-05
2.54075e-05
2.51465e-05
2.48685e-05
2.45736e-05
2.4262e-05
2.39342e-05
2.35902e-05
2.32305e-05
2.28553e-05
2.24648e-05
2.20596e-05
2.16399e-05
2.12061e-05
2.07586e-05
2.02978e-05
1.98243e-05
1.93383e-05
1.88406e-05
1.83315e-05
1.78115e-05
1.72814e-05
1.67416e-05
1.61928e-05
1.56356e-05
1.50707e-05
1.44989e-05
1.39207e-05
1.3337e-05
1.27486e-05
1.21563e-05
1.15609e-05
1.09634e-05
1.03647e-05
9.76569e-06
9.16744e-06
8.57099e-06
7.97745e-06
7.38795e-06
6.80373e-06
6.22606e-06
5.6563e-06
5.09591e-06
4.54646e-06
4.00967e-06
3.48742e-06
2.98185e-06
2.49537e-06
2.03086e-06
1.59178e-06
1.18255e-06
8.0901e-07
4.79643e-07
2.08259e-07
2.31633e-08
3.0286e-08
2.72375e-07
6.27615e-07
1.05925e-06
1.54939e-06
2.08709e-06
2.66472e-06
3.27656e-06
3.91808e-06
4.58555e-06
5.27576e-06
5.98595e-06
6.71363e-06
7.45657e-06
8.21269e-06
8.98009e-06
9.75697e-06
1.05416e-05
1.13325e-05
1.2128e-05
1.29266e-05
1.3727e-05
1.45279e-05
1.53278e-05
1.61255e-05
1.69199e-05
1.77097e-05
1.84939e-05
1.92713e-05
2.00408e-05
2.08015e-05
2.15524e-05
2.22925e-05
2.3021e-05
2.37369e-05
2.44395e-05
2.51279e-05
2.58014e-05
2.64592e-05
2.71007e-05
2.77252e-05
2.8332e-05
2.89206e-05
2.94903e-05
3.00408e-05
3.05713e-05
3.10815e-05
3.15709e-05
3.20391e-05
3.24856e-05
3.29101e-05
3.33123e-05
3.36919e-05
3.40484e-05
3.43817e-05
3.46916e-05
3.49776e-05
3.52398e-05
3.54778e-05
3.56915e-05
3.58808e-05
3.60454e-05
3.61854e-05
3.63006e-05
3.6391e-05
3.64564e-05
3.64969e-05
3.65125e-05
3.6503e-05
3.64687e-05
3.64093e-05
3.63251e-05
3.6216e-05
3.60822e-05
3.59237e-05
3.57408e-05
3.55334e-05
3.53018e-05
3.50461e-05
3.47665e-05
3.44633e-05
3.41366e-05
3.37867e-05
3.34139e-05
3.30184e-05
3.26006e-05
3.21608e-05
3.16993e-05
3.12166e-05
3.0713e-05
3.0189e-05
2.96451e-05
2.90816e-05
2.84991e-05
2.78982e-05
2.72794e-05
2.66433e-05
2.59906e-05
2.53218e-05
2.46378e-05
2.39391e-05
2.32267e-05
2.25012e-05
2.17635e-05
2.10145e-05
2.0255e-05
1.9486e-05
1.87086e-05
1.79236e-05
1.71322e-05
1.63355e-05
1.55347e-05
1.47309e-05
1.39254e-05
1.31195e-05
1.23146e-05
1.15121e-05
1.07135e-05
9.92031e-06
9.13425e-06
8.35704e-06
7.59054e-06
6.83674e-06
6.09779e-06
5.37602e-06
4.67403e-06
3.9947e-06
3.34138e-06
2.71794e-06
2.1291e-06
1.58076e-06
1.08078e-06
6.40397e-07
2.77924e-07
3.09028e-08
3.829e-08
3.44413e-07
7.93831e-07
1.34025e-06
1.96118e-06
2.64284e-06
3.37561e-06
4.15226e-06
4.967e-06
5.81506e-06
6.69234e-06
7.59528e-06
8.52068e-06
9.46565e-06
1.04275e-05
1.14039e-05
1.23924e-05
1.33908e-05
1.43971e-05
1.54094e-05
1.64257e-05
1.74442e-05
1.84633e-05
1.94812e-05
2.04963e-05
2.1507e-05
2.2512e-05
2.35097e-05
2.44987e-05
2.54777e-05
2.64455e-05
2.74007e-05
2.83422e-05
2.92689e-05
3.01795e-05
3.10732e-05
3.19488e-05
3.28054e-05
3.36421e-05
3.4458e-05
3.52523e-05
3.60241e-05
3.67727e-05
3.74973e-05
3.81974e-05
3.88722e-05
3.95211e-05
4.01436e-05
4.07392e-05
4.13073e-05
4.18474e-05
4.23591e-05
4.28421e-05
4.32958e-05
4.37201e-05
4.41145e-05
4.44788e-05
4.48126e-05
4.51159e-05
4.53883e-05
4.56296e-05
4.58397e-05
4.60185e-05
4.61658e-05
4.62816e-05
4.63657e-05
4.64181e-05
4.64389e-05
4.64279e-05
4.63853e-05
4.63109e-05
4.62049e-05
4.60673e-05
4.58983e-05
4.5698e-05
4.54665e-05
4.5204e-05
4.49106e-05
4.45867e-05
4.42323e-05
4.38479e-05
4.34336e-05
4.29897e-05
4.25167e-05
4.20148e-05
4.14845e-05
4.09262e-05
4.03402e-05
3.97272e-05
3.90875e-05
3.84218e-05
3.77306e-05
3.70146e-05
3.62742e-05
3.55103e-05
3.47236e-05
3.39148e-05
3.30846e-05
3.2234e-05
3.13639e-05
3.0475e-05
2.95684e-05
2.86451e-05
2.77062e-05
2.67527e-05
2.57858e-05
2.48067e-05
2.38167e-05
2.2817e-05
2.1809e-05
2.07942e-05
1.9774e-05
1.87499e-05
1.77236e-05
1.66967e-05
1.5671e-05
1.46484e-05
1.36307e-05
1.26199e-05
1.16182e-05
1.06279e-05
9.65124e-06
8.69093e-06
7.74969e-06
6.83055e-06
5.93685e-06
5.07232e-06
4.24124e-06
3.4486e-06
2.70039e-06
2.00411e-06
1.36969e-06
8.11302e-07
3.51994e-07
3.91327e-08
4.66473e-08
4.19625e-07
9.67356e-07
1.63359e-06
2.39105e-06
3.223e-06
4.11779e-06
5.06657e-06
6.06231e-06
7.09914e-06
8.17204e-06
9.2766e-06
1.04089e-05
1.15653e-05
1.27426e-05
1.39376e-05
1.51477e-05
1.63699e-05
1.76019e-05
1.88412e-05
2.00854e-05
2.13323e-05
2.25798e-05
2.38259e-05
2.50685e-05
2.63057e-05
2.75358e-05
2.87569e-05
2.99674e-05
3.11656e-05
3.23499e-05
3.35188e-05
3.46709e-05
3.58048e-05
3.69191e-05
3.80125e-05
3.90838e-05
4.01318e-05
4.11555e-05
4.21536e-05
4.31253e-05
4.40694e-05
4.49852e-05
4.58718e-05
4.67282e-05
4.75538e-05
4.83477e-05
4.91094e-05
4.9838e-05
5.05332e-05
5.11941e-05
5.18204e-05
5.24116e-05
5.29671e-05
5.34865e-05
5.39696e-05
5.44158e-05
5.48249e-05
5.51966e-05
5.55307e-05
5.58268e-05
5.60848e-05
5.63046e-05
5.6486e-05
5.66288e-05
5.6733e-05
5.67984e-05
5.68252e-05
5.68133e-05
5.67627e-05
5.66732e-05
5.65452e-05
5.63786e-05
5.61736e-05
5.59303e-05
5.56488e-05
5.53295e-05
5.49724e-05
5.45779e-05
5.41463e-05
5.36777e-05
5.31726e-05
5.26314e-05
5.20544e-05
5.14421e-05
5.07949e-05
5.01133e-05
4.93979e-05
4.86493e-05
4.7868e-05
4.70547e-05
4.62101e-05
4.53349e-05
4.44299e-05
4.3496e-05
4.25339e-05
4.15446e-05
4.05292e-05
3.94885e-05
3.84236e-05
3.73357e-05
3.6226e-05
3.50956e-05
3.39459e-05
3.27782e-05
3.15938e-05
3.03944e-05
2.91814e-05
2.79564e-05
2.67211e-05
2.54773e-05
2.42267e-05
2.29712e-05
2.17129e-05
2.04539e-05
1.91961e-05
1.79421e-05
1.6694e-05
1.54545e-05
1.42261e-05
1.30117e-05
1.18142e-05
1.06368e-05
9.483e-06
8.35651e-06
7.26147e-06
6.20251e-06
5.18488e-06
4.21472e-06
3.29936e-06
2.44796e-06
1.6726e-06
9.90493e-07
4.29663e-07
4.77629e-08
5.52773e-08
4.97288e-07
1.14653e-06
1.93646e-06
2.83486e-06
3.82198e-06
4.88404e-06
6.01059e-06
7.19328e-06
8.42512e-06
9.70013e-06
1.1013e-05
1.23591e-05
1.37341e-05
1.51341e-05
1.65553e-05
1.79944e-05
1.94481e-05
2.09134e-05
2.23873e-05
2.38671e-05
2.53501e-05
2.68338e-05
2.83156e-05
2.97932e-05
3.12645e-05
3.27271e-05
3.41789e-05
3.5618e-05
3.70425e-05
3.84503e-05
3.98398e-05
4.12092e-05
4.25568e-05
4.38811e-05
4.51805e-05
4.64536e-05
4.7699e-05
4.89154e-05
5.01014e-05
5.12559e-05
5.23778e-05
5.34659e-05
5.45193e-05
5.55369e-05
5.65179e-05
5.74613e-05
5.83664e-05
5.92324e-05
6.00585e-05
6.08442e-05
6.15887e-05
6.22915e-05
6.29521e-05
6.35699e-05
6.41445e-05
6.46755e-05
6.51625e-05
6.56052e-05
6.60032e-05
6.63563e-05
6.66642e-05
6.69268e-05
6.71438e-05
6.73151e-05
6.74406e-05
6.75203e-05
6.7554e-05
6.75418e-05
6.74839e-05
6.73798e-05
6.72299e-05
6.70343e-05
6.6793e-05
6.65064e-05
6.61744e-05
6.57974e-05
6.53757e-05
6.49094e-05
6.4399e-05
6.38447e-05
6.3247e-05
6.26063e-05
6.1923e-05
6.11977e-05
6.04309e-05
5.96231e-05
5.8775e-05
5.78872e-05
5.69606e-05
5.59957e-05
5.49935e-05
5.39548e-05
5.28804e-05
5.17715e-05
5.06289e-05
4.94538e-05
4.82473e-05
4.70105e-05
4.57448e-05
4.44515e-05
4.31319e-05
4.17876e-05
4.042e-05
3.90307e-05
3.76214e-05
3.61939e-05
3.475e-05
3.32916e-05
3.18207e-05
3.03395e-05
2.88499e-05
2.73544e-05
2.58554e-05
2.43552e-05
2.28566e-05
2.13622e-05
1.98749e-05
1.83977e-05
1.69338e-05
1.54866e-05
1.40596e-05
1.26568e-05
1.12821e-05
9.94029e-06
8.63618e-06
7.37534e-06
6.16406e-06
5.00966e-06
3.92085e-06
2.90851e-06
1.98691e-06
1.17644e-06
5.10261e-07
5.6719e-08
6.41108e-08
5.7678e-07
1.32991e-06
2.24644e-06
3.28907e-06
4.43498e-06
5.66821e-06
6.97668e-06
8.35068e-06
9.78212e-06
1.1264e-05
1.27902e-05
1.43552e-05
1.5954e-05
1.75819e-05
1.92347e-05
2.09083e-05
2.25989e-05
2.4303e-05
2.60171e-05
2.77379e-05
2.94624e-05
3.11876e-05
3.29106e-05
3.46286e-05
3.63389e-05
3.80392e-05
3.97268e-05
4.13995e-05
4.3055e-05
4.46911e-05
4.63058e-05
4.7897e-05
4.94627e-05
5.10013e-05
5.25109e-05
5.39898e-05
5.54365e-05
5.68494e-05
5.8227e-05
5.9568e-05
6.0871e-05
6.21349e-05
6.33583e-05
6.45403e-05
6.56797e-05
6.67755e-05
6.78269e-05
6.88329e-05
6.97927e-05
7.07055e-05
7.15707e-05
7.23875e-05
7.31554e-05
7.38738e-05
7.45421e-05
7.51598e-05
7.57266e-05
7.62421e-05
7.67058e-05
7.71174e-05
7.74768e-05
7.77836e-05
7.80377e-05
7.82388e-05
7.83869e-05
7.84818e-05
7.85235e-05
7.8512e-05
7.84475e-05
7.83295e-05
7.81583e-05
7.79341e-05
7.76571e-05
7.73273e-05
7.69449e-05
7.65103e-05
7.60238e-05
7.54855e-05
7.48959e-05
7.42553e-05
7.35643e-05
7.28233e-05
7.20327e-05
7.11932e-05
7.03054e-05
6.93698e-05
6.83873e-05
6.73586e-05
6.62845e-05
6.51659e-05
6.40036e-05
6.27986e-05
6.15521e-05
6.0265e-05
5.89386e-05
5.75742e-05
5.61729e-05
5.47362e-05
5.32655e-05
5.17624e-05
5.02284e-05
4.86653e-05
4.70748e-05
4.54587e-05
4.38191e-05
4.2158e-05
4.04774e-05
3.87796e-05
3.7067e-05
3.5342e-05
3.36071e-05
3.18651e-05
3.01186e-05
2.83706e-05
2.66242e-05
2.48826e-05
2.31491e-05
2.14273e-05
1.9721e-05
1.80341e-05
1.63709e-05
1.47359e-05
1.3134e-05
1.15704e-05
1.0051e-05
8.58239e-06
7.1718e-06
5.82778e-06
4.56047e-06
3.38249e-06
2.3104e-06
1.36782e-06
5.9322e-07
6.59377e-08
7.30867e-08
6.57551e-07
1.51624e-06
2.56137e-06
3.75053e-06
5.05773e-06
6.46484e-06
7.9581e-06
9.52644e-06
1.11606e-05
1.28527e-05
1.45955e-05
1.63829e-05
1.8209e-05
2.00684e-05
2.19563e-05
2.38681e-05
2.57992e-05
2.77457e-05
2.97036e-05
3.1669e-05
3.36385e-05
3.56087e-05
3.75762e-05
3.95378e-05
4.14906e-05
4.34316e-05
4.53581e-05
4.72673e-05
4.91568e-05
5.10239e-05
5.28664e-05
5.4682e-05
5.64684e-05
5.82237e-05
5.99458e-05
6.16328e-05
6.32829e-05
6.48944e-05
6.64656e-05
6.7995e-05
6.9481e-05
7.09224e-05
7.23176e-05
7.36656e-05
7.49651e-05
7.62149e-05
7.74141e-05
7.85616e-05
7.96566e-05
8.06981e-05
8.16853e-05
8.26176e-05
8.34941e-05
8.43143e-05
8.50776e-05
8.57834e-05
8.64313e-05
8.70208e-05
8.75514e-05
8.80229e-05
8.84349e-05
8.87872e-05
8.90794e-05
8.93115e-05
8.94833e-05
8.95946e-05
8.96453e-05
8.96355e-05
8.95654e-05
8.94345e-05
8.9243e-05
8.89912e-05
8.86791e-05
8.8307e-05
8.7875e-05
8.73835e-05
8.68327e-05
8.62229e-05
8.55547e-05
8.48282e-05
8.40442e-05
8.3203e-05
8.23053e-05
8.13516e-05
8.03426e-05
7.92791e-05
7.81619e-05
7.69917e-05
7.57695e-05
7.44962e-05
7.31729e-05
7.18006e-05
7.03806e-05
6.8914e-05
6.74022e-05
6.58465e-05
6.42485e-05
6.26097e-05
6.09317e-05
5.92162e-05
5.74651e-05
5.56803e-05
5.38637e-05
5.20176e-05
5.01441e-05
4.82456e-05
4.63244e-05
4.43832e-05
4.24246e-05
4.04515e-05
3.84666e-05
3.64732e-05
3.44745e-05
3.24737e-05
3.04745e-05
2.84805e-05
2.64957e-05
2.45241e-05
2.25701e-05
2.06384e-05
1.87337e-05
1.68614e-05
1.5027e-05
1.32368e-05
1.14974e-05
9.81635e-06
8.20201e-06
6.66415e-06
5.21437e-06
3.86707e-06
2.64113e-06
1.56349e-06
6.78041e-07
7.53635e-08
8.21502e-08
7.3911e-07
1.70438e-06
2.87936e-06
4.21645e-06
5.68648e-06
7.26911e-06
8.94888e-06
1.07134e-05
1.25522e-05
1.44563e-05
1.64178e-05
1.84296e-05
2.0485e-05
2.2578e-05
2.47031e-05
2.6855e-05
2.90287e-05
3.12196e-05
3.34231e-05
3.56351e-05
3.78514e-05
4.00683e-05
4.22819e-05
4.44888e-05
4.66855e-05
4.88687e-05
5.10354e-05
5.31824e-05
5.5307e-05
5.74062e-05
5.94776e-05
6.15185e-05
6.35265e-05
6.54992e-05
6.74346e-05
6.93303e-05
7.11845e-05
7.29952e-05
7.47606e-05
7.64789e-05
7.81485e-05
7.97678e-05
8.13354e-05
8.28498e-05
8.43098e-05
8.57141e-05
8.70616e-05
8.83511e-05
8.95817e-05
9.07523e-05
9.18622e-05
9.29104e-05
9.38962e-05
9.48189e-05
9.56778e-05
9.64724e-05
9.7202e-05
9.78663e-05
9.84647e-05
9.89969e-05
9.94624e-05
9.98611e-05
0.000100193
0.000100457
0.000100653
0.000100782
0.000100843
0.000100836
0.000100761
0.000100619
0.000100408
0.00010013
9.97841e-05
9.93709e-05
9.88906e-05
9.83434e-05
9.77296e-05
9.70497e-05
9.63039e-05
9.54928e-05
9.46168e-05
9.36766e-05
9.26728e-05
9.16059e-05
9.04767e-05
8.92861e-05
8.80348e-05
8.67239e-05
8.53541e-05
8.39267e-05
8.24427e-05
8.09034e-05
7.931e-05
7.76638e-05
7.59664e-05
7.42193e-05
7.24241e-05
7.05824e-05
6.86963e-05
6.67675e-05
6.4798e-05
6.27902e-05
6.07461e-05
5.86682e-05
5.65589e-05
5.44209e-05
5.22569e-05
5.00698e-05
4.78626e-05
4.56384e-05
4.34007e-05
4.11529e-05
3.88986e-05
3.66416e-05
3.43861e-05
3.21361e-05
2.98962e-05
2.76711e-05
2.54656e-05
2.32851e-05
2.11352e-05
1.90218e-05
1.69513e-05
1.49307e-05
1.29677e-05
1.10707e-05
9.24929e-06
7.5144e-06
5.87914e-06
4.35971e-06
2.97737e-06
1.76243e-06
7.6428e-07
8.4947e-08
9.12524e-08
8.21015e-07
1.89331e-06
3.19869e-06
4.6843e-06
6.31781e-06
8.07665e-06
9.94366e-06
1.1905e-05
1.39492e-05
1.60662e-05
1.82471e-05
2.0484e-05
2.27694e-05
2.50968e-05
2.74598e-05
2.98524e-05
3.22693e-05
3.4705e-05
3.71547e-05
3.96136e-05
4.20771e-05
4.45409e-05
4.70009e-05
4.94531e-05
5.18937e-05
5.43191e-05
5.67258e-05
5.91104e-05
6.14698e-05
6.38009e-05
6.61007e-05
6.83664e-05
7.05954e-05
7.27851e-05
7.49331e-05
7.7037e-05
7.90947e-05
8.11039e-05
8.30628e-05
8.49693e-05
8.68218e-05
8.86185e-05
9.03578e-05
9.20381e-05
9.36581e-05
9.52164e-05
9.67117e-05
9.81428e-05
9.95087e-05
0.000100808
0.00010204
0.000103204
0.000104299
0.000105325
0.000106279
0.000107163
0.000107975
0.000108714
0.000109381
0.000109974
0.000110494
0.00011094
0.000111311
0.000111608
0.00011183
0.000111978
0.00011205
0.000112047
0.00011197
0.000111817
0.000111588
0.000111285
0.000110907
0.000110455
0.000109928
0.000109327
0.000108652
0.000107903
0.000107082
0.000106188
0.000105222
0.000104185
0.000103076
0.000101898
0.000100651
9.93346e-05
9.79511e-05
9.65009e-05
9.49853e-05
9.34053e-05
9.17621e-05
9.00571e-05
8.82915e-05
8.6467e-05
8.4585e-05
8.26473e-05
8.06557e-05
7.86119e-05
7.65181e-05
7.43763e-05
7.21888e-05
6.99579e-05
6.76861e-05
6.5376e-05
6.30305e-05
6.06523e-05
5.82446e-05
5.58106e-05
5.33535e-05
5.08771e-05
4.83849e-05
4.58809e-05
4.33691e-05
4.0854e-05
3.83399e-05
3.58317e-05
3.33344e-05
3.08532e-05
2.83937e-05
2.59619e-05
2.35641e-05
2.1207e-05
1.88977e-05
1.66443e-05
1.44551e-05
1.23398e-05
1.03088e-05
8.37462e-06
6.55172e-06
4.85816e-06
3.31759e-06
1.96372e-06
8.5154e-07
9.4644e-08
1.00349e-07
9.0287e-07
2.08212e-06
3.5178e-06
5.15183e-06
6.94868e-06
8.88355e-06
1.09376e-05
1.30957e-05
1.5345e-05
1.76745e-05
2.00745e-05
2.2536e-05
2.50511e-05
2.76123e-05
3.02126e-05
3.28455e-05
3.55048e-05
3.81847e-05
4.08798e-05
4.35846e-05
4.62943e-05
4.90041e-05
5.17093e-05
5.44056e-05
5.70889e-05
5.97551e-05
6.24004e-05
6.50212e-05
6.76138e-05
7.01751e-05
7.27017e-05
7.51907e-05
7.76391e-05
8.0044e-05
8.2403e-05
8.47133e-05
8.69727e-05
8.91788e-05
9.13295e-05
9.34227e-05
9.54565e-05
9.7429e-05
9.93385e-05
0.000101183
0.000102962
0.000104673
0.000106315
0.000107886
0.000109387
0.000110814
0.000112168
0.000113447
0.000114651
0.000115778
0.000116828
0.000117801
0.000118694
0.000119509
0.000120244
0.000120899
0.000121473
0.000121967
0.000122379
0.00012271
0.000122959
0.000123125
0.00012321
0.000123213
0.000123134
0.000122972
0.000122728
0.000122402
0.000121994
0.000121504
0.000120932
0.000120279
0.000119545
0.00011873
0.000117836
0.000116861
0.000115808
0.000114675
0.000113466
0.000112178
0.000110815
0.000109376
0.000107863
0.000106276
0.000104617
0.000102887
0.000101087
9.92182e-05
9.72828e-05
9.52821e-05
9.32176e-05
9.10913e-05
8.89051e-05
8.6661e-05
8.43611e-05
8.20078e-05
7.96035e-05
7.71508e-05
7.46523e-05
7.2111e-05
6.95299e-05
6.69121e-05
6.42611e-05
6.15802e-05
5.88734e-05
5.61444e-05
5.33974e-05
5.06367e-05
4.78669e-05
4.50927e-05
4.23192e-05
3.95516e-05
3.67956e-05
3.40571e-05
3.13422e-05
2.86576e-05
2.60104e-05
2.34079e-05
2.08584e-05
1.83704e-05
1.59535e-05
1.36182e-05
1.13763e-05
9.24128e-06
7.22936e-06
5.36037e-06
3.66037e-06
2.16654e-06
9.39462e-07
1.04415e-07
1.09401e-07
9.84319e-07
2.27e-06
3.83531e-06
5.61699e-06
7.57633e-06
9.68631e-06
1.19264e-05
1.428e-05
1.67333e-05
1.92741e-05
2.18918e-05
2.45768e-05
2.73201e-05
3.01135e-05
3.29496e-05
3.58209e-05
3.8721e-05
4.16432e-05
4.45817e-05
4.75305e-05
5.04844e-05
5.34379e-05
5.63861e-05
5.93243e-05
6.22478e-05
6.51524e-05
6.80338e-05
7.08882e-05
7.37116e-05
7.65004e-05
7.92513e-05
8.19608e-05
8.46259e-05
8.72434e-05
8.98107e-05
9.23249e-05
9.47834e-05
9.71839e-05
9.95239e-05
0.000101801
0.000104014
0.00010616
0.000108238
0.000110245
0.00011218
0.000114042
0.000115829
0.000117539
0.000119172
0.000120726
0.0001222
0.000123594
0.000124905
0.000126133
0.000127278
0.000128339
0.000129314
0.000130204
0.000131007
0.000131724
0.000132353
0.000132895
0.000133348
0.000133714
0.00013399
0.000134178
0.000134276
0.000134286
0.000134207
0.000134038
0.000133779
0.000133432
0.000132996
0.00013247
0.000131856
0.000131154
0.000130364
0.000129485
0.00012852
0.000127468
0.00012633
0.000125106
0.000123797
0.000122404
0.000120928
0.000119369
0.000117729
0.000116009
0.000114209
0.000112332
0.000110378
0.000108349
0.000106247
0.000104073
0.000101829
9.95171e-05
9.71391e-05
9.46972e-05
9.21939e-05
8.96315e-05
8.70128e-05
8.43404e-05
8.16173e-05
7.88466e-05
7.60316e-05
7.31758e-05
7.02828e-05
6.73564e-05
6.44008e-05
6.14202e-05
5.84191e-05
5.54022e-05
5.23747e-05
4.93417e-05
4.63088e-05
4.32818e-05
4.02669e-05
3.72707e-05
3.43e-05
3.13621e-05
2.84649e-05
2.56165e-05
2.28259e-05
2.01027e-05
1.74573e-05
1.49013e-05
1.24477e-05
1.01112e-05
7.90956e-06
5.86449e-06
4.00447e-06
2.37014e-06
1.02772e-06
1.14223e-07
1.18372e-07
1.06504e-06
2.45619e-06
4.14998e-06
6.07797e-06
8.19831e-06
1.04818e-05
1.29061e-05
1.54535e-05
1.81087e-05
2.08588e-05
2.36921e-05
2.65981e-05
2.95672e-05
3.25906e-05
3.56597e-05
3.8767e-05
4.1905e-05
4.50668e-05
4.82458e-05
5.14357e-05
5.46305e-05
5.78247e-05
6.10127e-05
6.41895e-05
6.735e-05
7.04896e-05
7.36038e-05
7.66883e-05
7.9739e-05
8.2752e-05
8.57236e-05
8.86502e-05
9.15285e-05
9.43553e-05
9.71275e-05
9.98422e-05
0.000102497
0.000105088
0.000107614
0.000110073
0.000112462
0.000114778
0.000117021
0.000119188
0.000121278
0.000123288
0.000125217
0.000127064
0.000128828
0.000130507
0.0001321
0.000133606
0.000135024
0.000136352
0.000137591
0.000138739
0.000139795
0.00014076
0.000141631
0.000142409
0.000143094
0.000143684
0.000144179
0.000144579
0.000144884
0.000145094
0.000145207
0.000145225
0.000145147
0.000144973
0.000144703
0.000144336
0.000143874
0.000143315
0.000142662
0.000141913
0.000141068
0.00014013
0.000139097
0.00013797
0.00013675
0.000135437
0.000134033
0.000132538
0.000130952
0.000129278
0.000127515
0.000125664
0.000123728
0.000121708
0.000119604
0.000117418
0.000115153
0.000112809
0.000110389
0.000107895
0.000105329
0.000102692
9.9989e-05
9.72207e-05
9.43906e-05
9.15016e-05
8.85567e-05
8.55594e-05
8.25131e-05
7.94217e-05
7.6289e-05
7.31192e-05
6.99168e-05
6.66863e-05
6.34327e-05
6.01612e-05
5.68773e-05
5.35866e-05
5.02952e-05
4.70097e-05
4.37367e-05
4.04833e-05
3.72573e-05
3.40665e-05
3.09195e-05
2.78253e-05
2.47939e-05
2.18355e-05
1.89617e-05
1.6185e-05
1.35195e-05
1.09815e-05
8.5901e-06
6.36886e-06
4.34875e-06
2.57384e-06
1.11603e-06
1.24037e-07
1.27231e-07
1.14476e-06
2.64006e-06
4.4607e-06
6.53315e-06
8.81243e-06
1.12671e-05
1.38734e-05
1.66119e-05
1.94665e-05
2.2423e-05
2.54689e-05
2.8593e-05
3.17848e-05
3.50347e-05
3.83337e-05
4.16733e-05
4.50458e-05
4.84434e-05
5.18592e-05
5.52863e-05
5.87184e-05
6.21492e-05
6.55731e-05
6.89843e-05
7.23778e-05
7.57483e-05
7.9091e-05
8.24015e-05
8.56754e-05
8.89083e-05
9.20965e-05
9.52362e-05
9.83237e-05
0.000101356
0.000104329
0.00010724
0.000110086
0.000112865
0.000115574
0.00011821
0.000120772
0.000123256
0.000125661
0.000127984
0.000130225
0.000132381
0.00013445
0.000136432
0.000138324
0.000140126
0.000141835
0.000143452
0.000144975
0.000146402
0.000147733
0.000148968
0.000150105
0.000151143
0.000152082
0.000152922
0.000153661
0.0001543
0.000154838
0.000155274
0.000155608
0.00015584
0.00015597
0.000155998
0.000155923
0.000155745
0.000155464
0.000155081
0.000154595
0.000154006
0.000153315
0.000152522
0.000151627
0.00015063
0.000149533
0.000148335
0.000147037
0.00014564
0.000144143
0.00014255
0.000140859
0.000139071
0.000137189
0.000135213
0.000133145
0.000130985
0.000128735
0.000126397
0.000123973
0.000121464
0.000118872
0.000116199
0.000113449
0.000110622
0.000107723
0.000104752
0.000101715
9.86125e-05
9.54495e-05
9.22289e-05
8.89547e-05
8.56308e-05
8.22615e-05
7.88511e-05
7.54046e-05
7.19269e-05
6.84232e-05
6.48993e-05
6.1361e-05
5.78146e-05
5.42666e-05
5.07241e-05
4.71944e-05
4.36854e-05
4.02052e-05
3.67626e-05
3.33669e-05
3.00279e-05
2.67564e-05
2.35636e-05
2.0462e-05
1.74653e-05
1.45887e-05
1.18496e-05
9.26893e-06
6.87199e-06
4.69218e-06
2.77705e-06
1.20412e-06
1.33826e-07
1.3595e-07
1.22321e-06
2.82102e-06
4.7665e-06
6.9811e-06
9.41679e-06
1.204e-05
1.48252e-05
1.77517e-05
2.08023e-05
2.39618e-05
2.72168e-05
3.05552e-05
3.39658e-05
3.74382e-05
4.0963e-05
4.45309e-05
4.81334e-05
5.17626e-05
5.54107e-05
5.90705e-05
6.27352e-05
6.63981e-05
7.00531e-05
7.36942e-05
7.73157e-05
8.09124e-05
8.4479e-05
8.80107e-05
9.15029e-05
9.49511e-05
9.83512e-05
0.000101699
0.000104991
0.000108224
0.000111393
0.000114497
0.000117531
0.000120493
0.000123381
0.00012619
0.00012892
0.000131568
0.000134131
0.000136608
0.000138997
0.000141296
0.000143502
0.000145615
0.000147634
0.000149556
0.00015138
0.000153106
0.000154731
0.000156256
0.000157679
0.000158999
0.000160215
0.000161327
0.000162333
0.000163234
0.000164028
0.000164716
0.000165296
0.000165769
0.000166133
0.000166389
0.000166536
0.000166575
0.000166505
0.000166325
0.000166036
0.000165638
0.00016513
0.000164514
0.000163788
0.000162954
0.000162011
0.00016096
0.000159802
0.000158536
0.000157164
0.000155685
0.000154101
0.000152413
0.00015062
0.000148725
0.000146728
0.000144631
0.000142434
0.000140139
0.000137748
0.000135262
0.000132683
0.000130013
0.000127254
0.000124408
0.000121478
0.000118465
0.000115374
0.000112206
0.000108965
0.000105654
0.000102277
9.88373e-05
9.5339e-05
9.17865e-05
8.81841e-05
8.45368e-05
8.08496e-05
7.71278e-05
7.33772e-05
6.96038e-05
6.58139e-05
6.20144e-05
5.82122e-05
5.44151e-05
5.0631e-05
4.68682e-05
4.31358e-05
3.94432e-05
3.58005e-05
3.22183e-05
2.87082e-05
2.52824e-05
2.19544e-05
1.87388e-05
1.56522e-05
1.27133e-05
9.94425e-06
7.37252e-06
5.03384e-06
2.9792e-06
1.29176e-06
1.43566e-07
1.44506e-07
1.30019e-06
2.99857e-06
5.06654e-06
7.42061e-06
1.00097e-05
1.27982e-05
1.57588e-05
1.88698e-05
2.21125e-05
2.5471e-05
2.89309e-05
3.24793e-05
3.61042e-05
3.97947e-05
4.35405e-05
4.73318e-05
5.11596e-05
5.50153e-05
5.88907e-05
6.27781e-05
6.66702e-05
7.056e-05
7.44408e-05
7.83065e-05
8.21509e-05
8.59683e-05
8.97535e-05
9.35012e-05
9.72065e-05
0.000100865
0.000104472
0.000108023
0.000111514
0.000114943
0.000118304
0.000121595