/*--------------------------------*- C++ -*----------------------------------*\
  =========                 |
  \\      /  F ield         | OpenFOAM: The Open Source CFD Toolbox
   \\    /   O peration     | Website:  https://openfoam.org
    \\  /    A nd           | Version:  12
     \\/     M anipulation  |
\*---------------------------------------------------------------------------*/
FoamFile
{
    format      ascii;
    class       volScalarField;
    location    "2";
    object      p;
}
// * * * * * * * * * * * * * * * * * * * * * * * * * * * * * * * * * * * * * //

dimensions      [0 2 -2 0 0 0 0];

internalField   nonuniform List<scalar> 
18225
(
7.30995e-08
-1.76138e-06
-4.09019e-06
-6.37167e-06
-7.95397e-06
-8.96482e-06
-9.47525e-06
-9.57796e-06
-9.33845e-06
-8.834e-06
-8.11644e-06
-7.24386e-06
-6.25506e-06
-5.19174e-06
-4.08221e-06
-2.95784e-06
-1.8408e-06
-7.54359e-07
2.84625e-07
1.25821e-06
2.15281e-06
2.95489e-06
3.6541e-06
4.24023e-06
4.70521e-06
5.04161e-06
5.2437e-06
5.30645e-06
5.22613e-06
4.99966e-06
4.62511e-06
4.10124e-06
3.4277e-06
2.60464e-06
1.63289e-06
5.13666e-07
-7.51348e-07
-2.16017e-06
-3.7106e-06
-5.40018e-06
-7.22644e-06
-9.18643e-06
-1.12773e-05
-1.34957e-05
-1.58383e-05
-1.83011e-05
-2.08803e-05
-2.35714e-05
-2.63698e-05
-2.92703e-05
-3.2268e-05
-3.53574e-05
-3.85328e-05
-4.17885e-05
-4.51187e-05
-4.85174e-05
-5.19785e-05
-5.5496e-05
-5.90638e-05
-6.26754e-05
-6.63248e-05
-7.00055e-05
-7.37113e-05
-7.7436e-05
-8.11734e-05
-8.49174e-05
-8.86621e-05
-9.24013e-05
-9.61296e-05
-9.98411e-05
-0.00010353
-0.000107191
-0.000110818
-0.000114405
-0.000117946
-0.000121436
-0.000124869
-0.000128239
-0.00013154
-0.000134767
-0.000137914
-0.000140977
-0.000143949
-0.000146825
-0.000149602
-0.000152273
-0.000154836
-0.000157285
-0.000159617
-0.000161829
-0.000163915
-0.000165874
-0.000167703
-0.000169398
-0.000170957
-0.000172377
-0.000173657
-0.000174795
-0.00017579
-0.000176639
-0.000177343
-0.0001779
-0.00017831
-0.000178574
-0.000178691
-0.000178663
-0.000178491
-0.000178177
-0.000177724
-0.000177133
-0.000176409
-0.000175555
-0.000174578
-0.000173481
-0.000172273
-0.000170962
-0.000169555
-0.000168063
-0.000166497
-0.000164872
-0.0001632
-0.000161498
-0.000159783
-0.000158076
-0.000156398
-0.000154772
-0.000153225
-0.000151784
-0.00015048
-0.000149345
-0.000148412
-0.000147714
-0.000147287
-0.000147155
-0.000147233
-1.95998e-06
-3.31787e-06
-4.99045e-06
-6.70628e-06
-8.15322e-06
-9.23383e-06
-9.92851e-06
-1.02714e-05
-1.03058e-05
-1.00859e-05
-9.65851e-06
-9.07162e-06
-8.36267e-06
-7.56779e-06
-6.71613e-06
-5.83603e-06
-4.94992e-06
-4.0793e-06
-3.24172e-06
-2.45422e-06
-1.73059e-06
-1.084e-06
-5.2511e-07
-6.41197e-08
2.90795e-07
5.32016e-07
6.53655e-07
6.50391e-07
5.18284e-07
2.53934e-07
-1.44842e-07
-6.79714e-07
-1.35137e-06
-2.1601e-06
-3.10548e-06
-4.18679e-06
-5.40276e-06
-6.75194e-06
-8.23254e-06
-9.84263e-06
-1.15801e-05
-1.34425e-05
-1.54272e-05
-1.75316e-05
-1.97523e-05
-2.20862e-05
-2.45294e-05
-2.70781e-05
-2.97278e-05
-3.24741e-05
-3.53122e-05
-3.82369e-05
-4.12432e-05
-4.43257e-05
-4.74789e-05
-5.06973e-05
-5.3975e-05
-5.73065e-05
-6.06859e-05
-6.41072e-05
-6.75645e-05
-7.1052e-05
-7.45635e-05
-7.80932e-05
-8.16353e-05
-8.5184e-05
-8.87337e-05
-9.22787e-05
-9.58136e-05
-9.93329e-05
-0.000102831
-0.000106303
-0.000109743
-0.000113145
-0.000116504
-0.000119814
-0.00012307
-0.000126266
-0.000129398
-0.000132458
-0.000135443
-0.000138348
-0.000141166
-0.000143895
-0.000146528
-0.000149062
-0.000151493
-0.000153816
-0.000156029
-0.000158128
-0.000160108
-0.000161969
-0.000163706
-0.000165317
-0.0001668
-0.000168153
-0.000169374
-0.000170461
-0.000171414
-0.000172231
-0.000172912
-0.000173457
-0.000173864
-0.000174136
-0.000174272
-0.000174274
-0.000174142
-0.000173881
-0.000173491
-0.000172977
-0.000172341
-0.000171588
-0.000170723
-0.000169752
-0.000168682
-0.000167521
-0.000166276
-0.000164959
-0.000163579
-0.00016215
-0.000160684
-0.000159197
-0.000157703
-0.000156221
-0.000154769
-0.000153366
-0.000152035
-0.000150798
-0.000149678
-0.000148702
-0.000147893
-0.000147278
-0.000146888
-0.000146744
-0.000146776
-6.48721e-06
-7.22262e-06
-8.12054e-06
-9.13271e-06
-1.01063e-05
-1.09153e-05
-1.1504e-05
-1.18529e-05
-1.19722e-05
-1.18855e-05
-1.16229e-05
-1.12163e-05
-1.06962e-05
-1.00913e-05
-9.42785e-06
-8.73007e-06
-8.0191e-06
-7.31459e-06
-6.63354e-06
-5.99178e-06
-5.40285e-06
-4.87933e-06
-4.43182e-06
-4.07014e-06
-3.80243e-06
-3.63611e-06
-3.57713e-06
-3.63081e-06
-3.8012e-06
-4.09181e-06
-4.50505e-06
-5.04288e-06
-5.70632e-06
-6.49609e-06
-7.41213e-06
-8.4542e-06
-9.62147e-06
-1.0913e-05
-1.23273e-05
-1.3863e-05
-1.55182e-05
-1.7291e-05
-1.9179e-05
-2.11798e-05
-2.32905e-05
-2.55081e-05
-2.78292e-05
-3.02501e-05
-3.27669e-05
-3.53754e-05
-3.80709e-05
-4.08491e-05
-4.37048e-05
-4.66333e-05
-4.96292e-05
-5.26873e-05
-5.58023e-05
-5.89687e-05
-6.21809e-05
-6.54334e-05
-6.87205e-05
-7.20364e-05
-7.53756e-05
-7.87325e-05
-8.21014e-05
-8.54769e-05
-8.88537e-05
-9.22263e-05
-9.55894e-05
-9.89379e-05
-0.000102266
-0.00010557
-0.000108842
-0.000112079
-0.000115275
-0.000118424
-0.000121522
-0.000124562
-0.00012754
-0.000130451
-0.00013329
-0.000136052
-0.000138733
-0.000141327
-0.000143831
-0.000146242
-0.000148553
-0.000150764
-0.000152869
-0.000154865
-0.00015675
-0.000158522
-0.000160176
-0.000161712
-0.000163126
-0.000164418
-0.000165585
-0.000166627
-0.000167542
-0.00016833
-0.000168989
-0.000169521
-0.000169925
-0.000170202
-0.000170353
-0.000170379
-0.000170282
-0.000170065
-0.000169729
-0.000169278
-0.000168716
-0.000168047
-0.000167276
-0.000166409
-0.000165452
-0.000164414
-0.000163301
-0.000162124
-0.000160892
-0.000159617
-0.00015831
-0.000156986
-0.000155657
-0.000154339
-0.000153047
-0.000151798
-0.000150607
-0.000149493
-0.000148475
-0.000147571
-0.000146799
-0.00014618
-0.000145736
-0.000145481
-0.000145383
-1.30051e-05
-1.32334e-05
-1.35037e-05
-1.38639e-05
-1.42489e-05
-1.45778e-05
-1.48026e-05
-1.48962e-05
-1.48512e-05
-1.46725e-05
-1.43728e-05
-1.39697e-05
-1.34824e-05
-1.29309e-05
-1.23345e-05
-1.17124e-05
-1.10817e-05
-1.04591e-05
-9.85946e-06
-9.29658e-06
-8.78274e-06
-8.3293e-06
-7.94605e-06
-7.64198e-06
-7.42469e-06
-7.30101e-06
-7.2766e-06
-7.35642e-06
-7.54439e-06
-7.84391e-06
-8.25744e-06
-8.78703e-06
-9.43396e-06
-1.01992e-05
-1.1083e-05
-1.20854e-05
-1.3206e-05
-1.44442e-05
-1.57988e-05
-1.72687e-05
-1.88523e-05
-2.05479e-05
-2.23533e-05
-2.42663e-05
-2.62843e-05
-2.84045e-05
-3.06236e-05
-3.29382e-05
-3.53446e-05
-3.78388e-05
-4.04167e-05
-4.30739e-05
-4.58057e-05
-4.86073e-05
-5.1474e-05
-5.44005e-05
-5.73819e-05
-6.04128e-05
-6.34879e-05
-6.66019e-05
-6.97492e-05
-7.29246e-05
-7.61225e-05
-7.93376e-05
-8.25645e-05
-8.57979e-05
-8.90327e-05
-9.22635e-05
-9.54854e-05
-9.86931e-05
-0.000101882
-0.000105046
-0.00010818
-0.00011128
-0.00011434
-0.000117355
-0.00012032
-0.00012323
-0.00012608
-0.000128866
-0.000131582
-0.000134225
-0.00013679
-0.000139272
-0.000141668
-0.000143974
-0.000146186
-0.000148301
-0.000150315
-0.000152226
-0.000154031
-0.000155727
-0.000157312
-0.000158784
-0.000160141
-0.000161381
-0.000162502
-0.000163505
-0.000164387
-0.000165149
-0.000165789
-0.000166309
-0.000166709
-0.000166988
-0.000167149
-0.000167192
-0.00016712
-0.000166935
-0.000166639
-0.000166235
-0.000165727
-0.00016512
-0.000164418
-0.000163626
-0.000162751
-0.0001618
-0.000160779
-0.000159698
-0.000158566
-0.000157393
-0.00015619
-0.000154967
-0.000153737
-0.000152513
-0.000151306
-0.00015013
-0.000148999
-0.000147926
-0.000146925
-0.00014601
-0.000145195
-0.000144494
-0.000143919
-0.000143475
-0.000143179
-2.05612e-05
-2.03646e-05
-2.0122e-05
-1.99342e-05
-1.9777e-05
-1.96059e-05
-1.93933e-05
-1.91222e-05
-1.87837e-05
-1.83767e-05
-1.7905e-05
-1.73769e-05
-1.68029e-05
-1.61953e-05
-1.55669e-05
-1.49311e-05
-1.43006e-05
-1.36883e-05
-1.31058e-05
-1.25646e-05
-1.20748e-05
-1.1646e-05
-1.12866e-05
-1.10043e-05
-1.08057e-05
-1.06968e-05
-1.06825e-05
-1.07672e-05
-1.09544e-05
-1.12473e-05
-1.16483e-05
-1.21593e-05
-1.27816e-05
-1.35165e-05
-1.43643e-05
-1.53254e-05
-1.63995e-05
-1.75862e-05
-1.88847e-05
-2.02939e-05
-2.18123e-05
-2.34385e-05
-2.51703e-05
-2.70058e-05
-2.89423e-05
-3.09773e-05
-3.31076e-05
-3.533e-05
-3.76411e-05
-4.00369e-05
-4.25136e-05
-4.50669e-05
-4.76923e-05
-5.03854e-05
-5.31414e-05
-5.59554e-05
-5.88224e-05
-6.17375e-05
-6.46955e-05
-6.76911e-05
-7.07191e-05
-7.37743e-05
-7.68515e-05
-7.99454e-05
-8.30508e-05
-8.61627e-05
-8.92758e-05
-9.23851e-05
-9.54857e-05
-9.85723e-05
-0.00010164
-0.000104684
-0.000107699
-0.00011068
-0.000113622
-0.000116521
-0.000119371
-0.000122168
-0.000124906
-0.000127583
-0.000130193
-0.000132731
-0.000135195
-0.000137579
-0.00013988
-0.000142095
-0.000144219
-0.000146251
-0.000148186
-0.000150022
-0.000151756
-0.000153386
-0.000154909
-0.000156325
-0.00015763
-0.000158823
-0.000159904
-0.000160871
-0.000161724
-0.000162461
-0.000163083
-0.000163591
-0.000163984
-0.000164263
-0.000164429
-0.000164484
-0.000164429
-0.000164267
-0.000164001
-0.000163632
-0.000163165
-0.000162603
-0.000161951
-0.000161214
-0.000160398
-0.000159508
-0.000158552
-0.000157538
-0.000156472
-0.000155365
-0.000154226
-0.000153063
-0.000151888
-0.00015071
-0.00014954
-0.000148388
-0.000147263
-0.000146178
-0.00014514
-0.000144162
-0.000143253
-0.000142422
-0.000141668
-0.000140988
-0.000140456
-2.81653e-05
-2.75873e-05
-2.6913e-05
-2.62834e-05
-2.56839e-05
-2.50866e-05
-2.44778e-05
-2.38515e-05
-2.32026e-05
-2.25308e-05
-2.1837e-05
-2.1126e-05
-2.04034e-05
-1.9677e-05
-1.89549e-05
-1.82464e-05
-1.75604e-05
-1.69063e-05
-1.6293e-05
-1.57294e-05
-1.52234e-05
-1.47827e-05
-1.4414e-05
-1.41238e-05
-1.39172e-05
-1.37994e-05
-1.37744e-05
-1.38459e-05
-1.4017e-05
-1.42904e-05
-1.46681e-05
-1.51522e-05
-1.5744e-05
-1.64445e-05
-1.72544e-05
-1.8174e-05
-1.92032e-05
-2.03418e-05
-2.15888e-05
-2.29434e-05
-2.44043e-05
-2.59698e-05
-2.7638e-05
-2.94069e-05
-3.12741e-05
-3.32368e-05
-3.52922e-05
-3.74372e-05
-3.96683e-05
-4.19818e-05
-4.4374e-05
-4.68406e-05
-4.93775e-05
-5.19802e-05
-5.46441e-05
-5.73644e-05
-6.01364e-05
-6.29551e-05
-6.58155e-05
-6.87126e-05
-7.16413e-05
-7.45965e-05
-7.7573e-05
-8.05658e-05
-8.35698e-05
-8.65799e-05
-8.95912e-05
-9.25986e-05
-9.55972e-05
-9.85819e-05
-0.000101548
-0.00010449
-0.000107404
-0.000110285
-0.000113127
-0.000115927
-0.000118679
-0.000121379
-0.000124023
-0.000126607
-0.000129125
-0.000131575
-0.000133952
-0.000136252
-0.000138472
-0.000140608
-0.000142658
-0.000144617
-0.000146484
-0.000148255
-0.000149928
-0.0001515
-0.00015297
-0.000154336
-0.000155596
-0.000156749
-0.000157793
-0.000158729
-0.000159554
-0.000160269
-0.000160873
-0.000161368
-0.000161752
-0.000162028
-0.000162196
-0.000162257
-0.000162212
-0.000162065
-0.000161818
-0.000161472
-0.000161032
-0.000160501
-0.000159883
-0.000159182
-0.000158403
-0.000157552
-0.000156636
-0.00015566
-0.000154632
-0.00015356
-0.000152451
-0.000151313
-0.000150156
-0.000148986
-0.000147813
-0.000146643
-0.000145486
-0.000144347
-0.000143235
-0.000142156
-0.000141118
-0.000140125
-0.000139167
-0.000138231
-0.00013745
-3.52432e-05
-3.43266e-05
-3.32796e-05
-3.22875e-05
-3.13331e-05
-3.03918e-05
-2.94563e-05
-2.85272e-05
-2.76031e-05
-2.66854e-05
-2.57749e-05
-2.48753e-05
-2.39902e-05
-2.31253e-05
-2.22857e-05
-2.14783e-05
-2.07094e-05
-1.99861e-05
-1.9315e-05
-1.87028e-05
-1.81557e-05
-1.76798e-05
-1.72802e-05
-1.6962e-05
-1.67294e-05
-1.65864e-05
-1.65363e-05
-1.65821e-05
-1.67264e-05
-1.69716e-05
-1.73196e-05
-1.7772e-05
-1.83302e-05
-1.89952e-05
-1.97676e-05
-2.06478e-05
-2.16357e-05
-2.2731e-05
-2.39329e-05
-2.52404e-05
-2.66523e-05
-2.81668e-05
-2.97821e-05
-3.1496e-05
-3.33063e-05
-3.52101e-05
-3.72047e-05
-3.9287e-05
-4.14534e-05
-4.37006e-05
-4.60246e-05
-4.84215e-05
-5.0887e-05
-5.34169e-05
-5.60065e-05
-5.86514e-05
-6.13466e-05
-6.40875e-05
-6.68691e-05
-6.96865e-05
-7.25347e-05
-7.54087e-05
-7.83034e-05
-8.12139e-05
-8.41352e-05
-8.70622e-05
-8.99901e-05
-9.29138e-05
-9.58285e-05
-9.87292e-05
-0.000101611
-0.00010447
-0.0001073
-0.000110097
-0.000112856
-0.000115573
-0.000118244
-0.000120864
-0.000123429
-0.000125934
-0.000128376
-0.000130751
-0.000133055
-0.000135285
-0.000137436
-0.000139506
-0.000141492
-0.000143391
-0.000145199
-0.000146915
-0.000148535
-0.000150059
-0.000151483
-0.000152806
-0.000154027
-0.000155144
-0.000156157
-0.000157064
-0.000157864
-0.000158558
-0.000159146
-0.000159627
-0.000160002
-0.000160271
-0.000160436
-0.000160498
-0.000160458
-0.000160318
-0.000160081
-0.000159749
-0.000159324
-0.000158809
-0.00015821
-0.000157528
-0.000156769
-0.000155938
-0.00015504
-0.00015408
-0.000153066
-0.000152002
-0.000150897
-0.000149756
-0.000148586
-0.000147395
-0.000146188
-0.000144972
-0.000143751
-0.00014253
-0.000141316
-0.000140112
-0.000138924
-0.000137752
-0.000136577
-0.00013538
-0.000134352
-4.16042e-05
-4.03904e-05
-3.90159e-05
-3.77155e-05
-3.64667e-05
-3.52423e-05
-3.40373e-05
-3.28555e-05
-3.16975e-05
-3.0566e-05
-2.94619e-05
-2.83888e-05
-2.73492e-05
-2.63479e-05
-2.53885e-05
-2.44764e-05
-2.3616e-05
-2.28132e-05
-2.20726e-05
-2.13998e-05
-2.07992e-05
-2.02757e-05
-1.98332e-05
-1.94758e-05
-1.92067e-05
-1.90291e-05
-1.89456e-05
-1.8959e-05
-1.90711e-05
-1.92842e-05
-1.95998e-05
-2.00196e-05
-2.05446e-05
-2.1176e-05
-2.19141e-05
-2.27594e-05
-2.37116e-05
-2.47705e-05
-2.5935e-05
-2.72043e-05
-2.85769e-05
-3.00511e-05
-3.1625e-05
-3.32964e-05
-3.50627e-05
-3.69214e-05
-3.88695e-05
-4.09039e-05
-4.30212e-05
-4.52178e-05
-4.74899e-05
-4.98336e-05
-5.22447e-05
-5.47189e-05
-5.72517e-05
-5.98387e-05
-6.2475e-05
-6.51559e-05
-6.78767e-05
-7.06324e-05
-7.34181e-05
-7.62289e-05
-7.90599e-05
-8.1906e-05
-8.47623e-05
-8.76238e-05
-9.04857e-05
-9.33431e-05
-9.6191e-05
-9.90247e-05
-0.000101839
-0.00010463
-0.000107393
-0.000110123
-0.000112815
-0.000115466
-0.000118071
-0.000120625
-0.000123125
-0.000125567
-0.000127947
-0.000130261
-0.000132505
-0.000134677
-0.000136772
-0.000138787
-0.00014072
-0.000142568
-0.000144328
-0.000145998
-0.000147574
-0.000149056
-0.000150442
-0.000151729
-0.000152917
-0.000154003
-0.000154988
-0.00015587
-0.000156648
-0.000157323
-0.000157894
-0.000158361
-0.000158725
-0.000158987
-0.000159146
-0.000159204
-0.000159163
-0.000159024
-0.000158789
-0.000158461
-0.000158041
-0.000157532
-0.000156938
-0.000156262
-0.000155508
-0.00015468
-0.000153782
-0.00015282
-0.000151798
-0.000150723
-0.000149599
-0.000148433
-0.000147229
-0.000145994
-0.000144731
-0.000143445
-0.00014214
-0.000140818
-0.000139484
-0.00013814
-0.00013679
-0.000135431
-0.000134038
-0.000132584
-0.000131316
-4.72387e-05
-4.57634e-05
-4.40974e-05
-4.25265e-05
-4.10235e-05
-3.95567e-05
-3.81217e-05
-3.67235e-05
-3.53638e-05
-3.40456e-05
-3.27702e-05
-3.15409e-05
-3.03597e-05
-2.92308e-05
-2.81569e-05
-2.71424e-05
-2.61907e-05
-2.53064e-05
-2.44931e-05
-2.37552e-05
-2.3096e-05
-2.25196e-05
-2.20289e-05
-2.16271e-05
-2.13167e-05
-2.11006e-05
-2.09806e-05
-2.09591e-05
-2.10379e-05
-2.12189e-05
-2.15033e-05
-2.18929e-05
-2.23883e-05
-2.29907e-05
-2.37002e-05
-2.45173e-05
-2.54415e-05
-2.64724e-05
-2.76091e-05
-2.88504e-05
-3.01947e-05
-3.16402e-05
-3.3185e-05
-3.48267e-05
-3.65628e-05
-3.83904e-05
-4.03067e-05
-4.23083e-05
-4.43918e-05
-4.65538e-05
-4.87902e-05
-5.10973e-05
-5.34707e-05
-5.59062e-05
-5.83994e-05
-6.09457e-05
-6.35405e-05
-6.6179e-05
-6.88565e-05
-7.15681e-05
-7.43089e-05
-7.70741e-05
-7.98586e-05
-8.26576e-05
-8.54662e-05
-8.82793e-05
-9.10922e-05
-9.39e-05
-9.66979e-05
-9.9481e-05
-0.000102245
-0.000104985
-0.000107696
-0.000110374
-0.000113015
-0.000115614
-0.000118168
-0.000120672
-0.000123122
-0.000125514
-0.000127844
-0.00013011
-0.000132307
-0.000134432
-0.000136483
-0.000138455
-0.000140345
-0.000142153
-0.000143873
-0.000145505
-0.000147047
-0.000148495
-0.000149849
-0.000151106
-0.000152266
-0.000153326
-0.000154287
-0.000155148
-0.000155907
-0.000156564
-0.00015712
-0.000157574
-0.000157926
-0.000158177
-0.000158328
-0.000158379
-0.000158332
-0.000158189
-0.000157949
-0.000157617
-0.000157193
-0.00015668
-0.000156081
-0.000155398
-0.000154636
-0.000153797
-0.000152885
-0.000151905
-0.00015086
-0.000149757
-0.000148598
-0.000147389
-0.000146134
-0.000144838
-0.000143503
-0.000142132
-0.000140728
-0.000139293
-0.000137828
-0.000136336
-0.000134819
-0.000133272
-0.000131663
-0.000129961
-0.000128463
-5.21905e-05
-5.04817e-05
-4.85528e-05
-4.67392e-05
-4.50099e-05
-4.33283e-05
-4.16897e-05
-4.00998e-05
-3.85608e-05
-3.70756e-05
-3.56456e-05
-3.4274e-05
-3.29623e-05
-3.17143e-05
-3.05321e-05
-2.94194e-05
-2.83788e-05
-2.74142e-05
-2.65282e-05
-2.57244e-05
-2.50055e-05
-2.43747e-05
-2.38341e-05
-2.33866e-05
-2.3034e-05
-2.27788e-05
-2.26227e-05
-2.25677e-05
-2.26152e-05
-2.27671e-05
-2.30245e-05
-2.33888e-05
-2.38606e-05
-2.44408e-05
-2.51295e-05
-2.59268e-05
-2.68322e-05
-2.78452e-05
-2.89646e-05
-3.01891e-05
-3.1517e-05
-3.29464e-05
-3.44751e-05
-3.61008e-05
-3.78205e-05
-3.96316e-05
-4.15309e-05
-4.35151e-05
-4.55806e-05
-4.77239e-05
-4.9941e-05
-5.22278e-05
-5.45803e-05
-5.69941e-05
-5.94647e-05
-6.19877e-05
-6.45582e-05
-6.71717e-05
-6.98233e-05
-7.25082e-05
-7.52215e-05
-7.79583e-05
-8.07137e-05
-8.34828e-05
-8.62606e-05
-8.90422e-05
-9.18229e-05
-9.45977e-05
-9.73619e-05
-0.000100111
-0.00010284
-0.000105544
-0.00010822
-0.000110862
-0.000113467
-0.00011603
-0.000118547
-0.000121014
-0.000123427
-0.000125783
-0.000128078
-0.000130308
-0.00013247
-0.000134561
-0.000136577
-0.000138516
-0.000140375
-0.000142151
-0.000143842
-0.000145445
-0.000146959
-0.000148381
-0.00014971
-0.000150943
-0.000152081
-0.000153121
-0.000154062
-0.000154904
-0.000155647
-0.000156289
-0.00015683
-0.000157271
-0.000157611
-0.000157851
-0.000157991
-0.000158032
-0.000157976
-0.000157822
-0.000157573
-0.00015723
-0.000156795
-0.000156269
-0.000155656
-0.000154957
-0.000154175
-0.000153313
-0.000152375
-0.000151365
-0.000150285
-0.000149139
-0.000147933
-0.000146668
-0.00014535
-0.00014398
-0.000142561
-0.000141096
-0.000139584
-0.000138028
-0.000136427
-0.000134782
-0.000133097
-0.000131364
-0.000129544
-0.000127603
-0.000125887
-5.65074e-05
-5.45863e-05
-5.24168e-05
-5.03813e-05
-4.84457e-05
-4.65685e-05
-4.47448e-05
-4.29802e-05
-4.12773e-05
-3.96389e-05
-3.80662e-05
-3.65622e-05
-3.51283e-05
-3.37678e-05
-3.24823e-05
-3.12752e-05
-3.01484e-05
-2.91051e-05
-2.81475e-05
-2.72786e-05
-2.65003e-05
-2.58154e-05
-2.52256e-05
-2.47332e-05
-2.43399e-05
-2.40478e-05
-2.38582e-05
-2.37732e-05
-2.37939e-05
-2.39219e-05
-2.41582e-05
-2.4504e-05
-2.49598e-05
-2.55262e-05
-2.6203e-05
-2.69903e-05
-2.78874e-05
-2.88934e-05
-3.0007e-05
-3.12268e-05
-3.25509e-05
-3.39773e-05
-3.55036e-05
-3.71271e-05
-3.88451e-05
-4.06545e-05
-4.2552e-05
-4.45343e-05
-4.65978e-05
-4.87386e-05
-5.09527e-05
-5.32362e-05
-5.55846e-05
-5.79938e-05
-6.04591e-05
-6.29759e-05
-6.55396e-05
-6.81455e-05
-7.07887e-05
-7.34643e-05
-7.61675e-05
-7.88933e-05
-8.16369e-05
-8.43932e-05
-8.71573e-05
-8.99244e-05
-9.26897e-05
-9.54482e-05
-9.81954e-05
-0.000100926
-0.000103637
-0.000106322
-0.000108977
-0.000111599
-0.000114182
-0.000116724
-0.000119218
-0.000121663
-0.000124054
-0.000126387
-0.000128659
-0.000130866
-0.000133005
-0.000135073
-0.000137067
-0.000138983
-0.00014082
-0.000142575
-0.000144245
-0.000145828
-0.000147322
-0.000148725
-0.000150035
-0.000151252
-0.000152372
-0.000153396
-0.000154322
-0.00015515
-0.000155879
-0.000156507
-0.000157036
-0.000157464
-0.000157792
-0.00015802
-0.000158148
-0.000158177
-0.000158108
-0.000157941
-0.000157677
-0.000157318
-0.000156865
-0.000156319
-0.000155684
-0.00015496
-0.00015415
-0.000153257
-0.000152283
-0.000151232
-0.000150106
-0.00014891
-0.000147645
-0.000146316
-0.000144924
-0.000143473
-0.000141963
-0.000140396
-0.000138771
-0.000137088
-0.000135348
-0.000133551
-0.000131698
-0.000129782
-0.000127759
-0.000125591
-0.000123667
-6.02298e-05
-5.81121e-05
-5.57188e-05
-5.3477e-05
-5.13497e-05
-4.9291e-05
-4.72952e-05
-4.5368e-05
-4.3512e-05
-4.173e-05
-4.00229e-05
-3.83935e-05
-3.68432e-05
-3.53748e-05
-3.39898e-05
-3.2691e-05
-3.14801e-05
-3.03599e-05
-2.93321e-05
-2.83992e-05
-2.75627e-05
-2.68251e-05
-2.61878e-05
-2.56529e-05
-2.52216e-05
-2.48961e-05
-2.46774e-05
-2.45673e-05
-2.45669e-05
-2.46776e-05
-2.49001e-05
-2.52354e-05
-2.56838e-05
-2.62456e-05
-2.69205e-05
-2.77082e-05
-2.86079e-05
-2.96185e-05
-3.07385e-05
-3.19663e-05
-3.32997e-05
-3.47366e-05
-3.62744e-05
-3.79102e-05
-3.96412e-05
-4.14641e-05
-4.33755e-05
-4.53719e-05
-4.74494e-05
-4.96043e-05
-5.18323e-05
-5.41293e-05
-5.64909e-05
-5.89127e-05
-6.13901e-05
-6.39185e-05
-6.64931e-05
-6.9109e-05
-7.17615e-05
-7.44456e-05
-7.71563e-05
-7.98888e-05
-8.2638e-05
-8.5399e-05
-8.81669e-05
-9.09367e-05
-9.37036e-05
-9.64628e-05
-9.92096e-05
-0.000101939
-0.000104647
-0.000107329
-0.000109981
-0.000112597
-0.000115175
-0.000117709
-0.000120196
-0.000122633
-0.000125015
-0.000127338
-0.0001296
-0.000131797
-0.000133925
-0.000135982
-0.000137964
-0.000139869
-0.000141694
-0.000143437
-0.000145095
-0.000146667
-0.000148149
-0.00014954
-0.000150839
-0.000152044
-0.000153154
-0.000154167
-0.000155082
-0.000155899
-0.000156617
-0.000157235
-0.000157752
-0.00015817
-0.000158486
-0.000158702
-0.000158817
-0.000158832
-0.000158747
-0.000158563
-0.000158281
-0.000157901
-0.000157425
-0.000156854
-0.00015619
-0.000155435
-0.00015459
-0.000153657
-0.00015264
-0.000151541
-0.000150362
-0.000149107
-0.000147777
-0.000146376
-0.000144906
-0.000143367
-0.000141761
-0.000140087
-0.000138346
-0.000136536
-0.000134656
-0.000132707
-0.00013069
-0.000128596
-0.000126377
-0.00012399
-0.00012187
-6.3394e-05
-6.10909e-05
-5.84857e-05
-5.60489e-05
-5.37404e-05
-5.151e-05
-4.93511e-05
-4.72696e-05
-4.52679e-05
-4.33486e-05
-4.15127e-05
-3.97627e-05
-3.80998e-05
-3.65266e-05
-3.50445e-05
-3.3656e-05
-3.23626e-05
-3.11668e-05
-3.007e-05
-2.90744e-05
-2.81814e-05
-2.73931e-05
-2.67107e-05
-2.61362e-05
-2.56708e-05
-2.53161e-05
-2.50733e-05
-2.4944e-05
-2.4929e-05
-2.50294e-05
-2.5246e-05
-2.55792e-05
-2.60293e-05
-2.65962e-05
-2.72795e-05
-2.80787e-05
-2.89924e-05
-3.00197e-05
-3.11585e-05
-3.24073e-05
-3.37635e-05
-3.52248e-05
-3.67885e-05
-3.84515e-05
-4.02107e-05
-4.20628e-05
-4.4004e-05
-4.60308e-05
-4.8139e-05
-5.03248e-05
-5.25838e-05
-5.49117e-05
-5.73041e-05
-5.97564e-05
-6.22638e-05
-6.48217e-05
-6.74252e-05
-7.00693e-05
-7.27492e-05
-7.54598e-05
-7.81962e-05
-8.09534e-05
-8.37263e-05
-8.65099e-05
-8.92992e-05
-9.20894e-05
-9.48755e-05
-9.76527e-05
-0.000100416
-0.000103162
-0.000105884
-0.000108579
-0.000111242
-0.000113869
-0.000116457
-0.000118999
-0.000121494
-0.000123937
-0.000126324
-0.000128651
-0.000130916
-0.000133115
-0.000135245
-0.000137302
-0.000139284
-0.000141188
-0.000143012
-0.000144753
-0.000146408
-0.000147977
-0.000149455
-0.000150843
-0.000152137
-0.000153337
-0.000154442
-0.000155449
-0.000156358
-0.000157169
-0.000157879
-0.000158489
-0.000158998
-0.000159405
-0.00015971
-0.000159914
-0.000160016
-0.000160016
-0.000159914
-0.000159711
-0.000159407
-0.000159004
-0.000158501
-0.000157901
-0.000157203
-0.000156411
-0.000155525
-0.000154549
-0.000153482
-0.00015233
-0.000151092
-0.000149773
-0.000148373
-0.000146896
-0.000145342
-0.000143712
-0.000142006
-0.000140225
-0.000138366
-0.000136428
-0.000134409
-0.00013231
-0.000130131
-0.000127865
-0.000125456
-0.00012286
-0.00012055
-6.60332e-05
-6.35519e-05
-6.07432e-05
-5.81186e-05
-5.56356e-05
-5.32395e-05
-5.09232e-05
-4.86922e-05
-4.65493e-05
-4.44966e-05
-4.25351e-05
-4.0667e-05
-3.88937e-05
-3.72175e-05
-3.56396e-05
-3.41626e-05
-3.27878e-05
-3.15173e-05
-3.03526e-05
-2.92957e-05
-2.83479e-05
-2.75111e-05
-2.67864e-05
-2.61757e-05
-2.56801e-05
-2.53011e-05
-2.50396e-05
-2.48971e-05
-2.48743e-05
-2.4972e-05
-2.51907e-05
-2.55307e-05
-2.59919e-05
-2.6574e-05
-2.72763e-05
-2.8098e-05
-2.90377e-05
-3.00938e-05
-3.12645e-05
-3.25476e-05
-3.39405e-05
-3.54407e-05
-3.70451e-05
-3.87506e-05
-4.05538e-05
-4.24511e-05
-4.44386e-05
-4.65125e-05
-4.86687e-05
-5.09028e-05
-5.32105e-05
-5.55874e-05
-5.80286e-05
-6.05297e-05
-6.30856e-05
-6.56915e-05
-6.83424e-05
-7.10335e-05
-7.37594e-05
-7.65153e-05
-7.92961e-05
-8.20965e-05
-8.49115e-05
-8.77361e-05
-9.05652e-05
-9.33938e-05
-9.6217e-05
-9.903e-05
-0.000101828
-0.000104606
-0.00010736
-0.000110085
-0.000112776
-0.000115431
-0.000118043
-0.00012061
-0.000123127
-0.00012559
-0.000127996
-0.000130342
-0.000132623
-0.000134837
-0.000136981
-0.000139051
-0.000141044
-0.000142959
-0.000144791
-0.00014654
-0.000148202
-0.000149776
-0.000151259
-0.000152651
-0.000153948
-0.00015515
-0.000156255
-0.000157262
-0.00015817
-0.000158978
-0.000159684
-0.000160289
-0.000160792
-0.000161191
-0.000161487
-0.00016168
-0.000161768
-0.000161752
-0.000161633
-0.00016141
-0.000161083
-0.000160653
-0.000160121
-0.000159488
-0.000158754
-0.000157922
-0.000156992
-0.000155967
-0.000154848
-0.000153637
-0.000152338
-0.00015095
-0.000149477
-0.00014792
-0.00014628
-0.000144556
-0.000142749
-0.000140858
-0.00013888
-0.000136815
-0.000134658
-0.000132411
-0.000130075
-0.000127639
-0.000125046
-0.000122247
-0.000119755
-6.81756e-05
-6.55199e-05
-6.2512e-05
-5.97035e-05
-5.70492e-05
-5.44903e-05
-5.20189e-05
-4.96406e-05
-4.73581e-05
-4.51735e-05
-4.30876e-05
-4.11025e-05
-3.92195e-05
-3.74408e-05
-3.57678e-05
-3.42027e-05
-3.27469e-05
-3.14025e-05
-3.01709e-05
-2.90541e-05
-2.80532e-05
-2.71703e-05
-2.64063e-05
-2.5763e-05
-2.52414e-05
-2.4843e-05
-2.45685e-05
-2.44192e-05
-2.43956e-05
-2.44983e-05
-2.47274e-05
-2.50832e-05
-2.55652e-05
-2.61729e-05
-2.69052e-05
-2.7761e-05
-2.87388e-05
-2.98367e-05
-3.10524e-05
-3.23838e-05
-3.38279e-05
-3.53819e-05
-3.70425e-05
-3.88064e-05
-4.06698e-05
-4.26291e-05
-4.468e-05
-4.68186e-05
-4.90404e-05
-5.13411e-05
-5.37159e-05
-5.61602e-05
-5.86692e-05
-6.12379e-05
-6.38614e-05
-6.65345e-05
-6.92523e-05
-7.20095e-05
-7.4801e-05
-7.76214e-05
-8.04657e-05
-8.33286e-05
-8.62049e-05
-8.90895e-05
-9.19772e-05
-9.48629e-05
-9.77417e-05
-0.000100609
-0.000103459
-0.000106288
-0.00010909
-0.000111862
-0.000114599
-0.000117297
-0.000119951
-0.000122557
-0.000125111
-0.000127611
-0.000130051
-0.000132428
-0.00013474
-0.000136982
-0.000139152
-0.000141247
-0.000143264
-0.000145199
-0.000147052
-0.000148818
-0.000150497
-0.000152086
-0.000153582
-0.000154985
-0.000156293
-0.000157503
-0.000158615
-0.000159628
-0.00016054
-0.00016135
-0.000162057
-0.00016266
-0.000163159
-0.000163553
-0.000163841
-0.000164024
-0.0001641
-0.000164069
-0.000163932
-0.000163688
-0.000163337
-0.00016288
-0.000162317
-0.000161649
-0.000160877
-0.000160002
-0.000159026
-0.000157949
-0.000156775
-0.000155505
-0.00015414
-0.000152683
-0.000151134
-0.000149495
-0.000147766
-0.000145948
-0.000144039
-0.000142037
-0.000139941
-0.000137748
-0.000135455
-0.000133061
-0.000130569
-0.000127967
-0.000125195
-0.000122199
-0.00011953
-6.98398e-05
-6.70104e-05
-6.38045e-05
-6.08128e-05
-5.79876e-05
-5.52659e-05
-5.26392e-05
-5.01133e-05
-4.7691e-05
-4.53739e-05
-4.31632e-05
-4.10606e-05
-3.90675e-05
-3.7186e-05
-3.54175e-05
-3.37643e-05
-3.22277e-05
-3.08099e-05
-2.95124e-05
-2.8337e-05
-2.72851e-05
-2.63586e-05
-2.55585e-05
-2.48864e-05
-2.43435e-05
-2.39309e-05
-2.36494e-05
-2.35e-05
-2.34829e-05
-2.35987e-05
-2.38472e-05
-2.42282e-05
-2.47411e-05
-2.53852e-05
-2.6159e-05
-2.70612e-05
-2.80898e-05
-2.92429e-05
-3.05178e-05
-3.19121e-05
-3.34225e-05
-3.5046e-05
-3.6779e-05
-3.86179e-05
-4.05588e-05
-4.25975e-05
-4.47298e-05
-4.69514e-05
-4.92575e-05
-5.16435e-05
-5.41046e-05
-5.66357e-05
-5.9232e-05
-6.18882e-05
-6.45991e-05
-6.73595e-05
-7.01641e-05
-7.30076e-05
-7.58846e-05
-7.87896e-05
-8.17175e-05
-8.46627e-05
-8.76201e-05
-9.05842e-05
-9.35499e-05
-9.6512e-05
-9.94654e-05
-0.000102405
-0.000105326
-0.000108224
-0.000111093
-0.00011393
-0.000116729
-0.000119487
-0.000122199
-0.000124861
-0.000127469
-0.000130019
-0.000132508
-0.000134932
-0.000137288
-0.000139572
-0.000141781
-0.000143913
-0.000145965
-0.000147933
-0.000149816
-0.000151611
-0.000153316
-0.000154929
-0.000156448
-0.000157871
-0.000159196
-0.000160422
-0.000161548
-0.000162572
-0.000163493
-0.00016431
-0.000165022
-0.000165628
-0.000166127
-0.000166518
-0.000166801
-0.000166976
-0.00016704
-0.000166996
-0.000166841
-0.000166576
-0.000166201
-0.000165716
-0.000165122
-0.000164419
-0.000163607
-0.000162689
-0.000161664
-0.000160536
-0.000159305
-0.000157973
-0.000156542
-0.000155013
-0.000153387
-0.000151665
-0.000149847
-0.000147933
-0.00014592
-0.000143808
-0.000141594
-0.000139274
-0.000136845
-0.000134307
-0.000131661
-0.000128897
-0.000125947
-0.000122758
-0.000119917
-7.10334e-05
-6.80282e-05
-6.46225e-05
-6.14459e-05
-5.84477e-05
-5.5561e-05
-5.2777e-05
-5.01013e-05
-4.7537e-05
-4.50857e-05
-4.27483e-05
-4.05267e-05
-3.84222e-05
-3.64369e-05
-3.45723e-05
-3.28306e-05
-3.12134e-05
-2.97228e-05
-2.83604e-05
-2.71282e-05
-2.60275e-05
-2.50603e-05
-2.42277e-05
-2.35313e-05
-2.2972e-05
-2.25511e-05
-2.2269e-05
-2.21267e-05
-2.21242e-05
-2.22618e-05
-2.2539e-05
-2.29555e-05
-2.35102e-05
-2.42022e-05
-2.50298e-05
-2.59913e-05
-2.70844e-05
-2.83069e-05
-2.96559e-05
-3.11286e-05
-3.27214e-05
-3.4431e-05
-3.62535e-05
-3.81851e-05
-4.02214e-05
-4.23581e-05
-4.45906e-05
-4.69143e-05
-4.93243e-05
-5.18155e-05
-5.43829e-05
-5.70212e-05
-5.97252e-05
-6.24895e-05
-6.53086e-05
-6.81771e-05
-7.10894e-05
-7.404e-05
-7.70234e-05
-8.00338e-05
-8.3066e-05
-8.61142e-05
-8.9173e-05
-9.2237e-05
-9.53009e-05
-9.83592e-05
-0.000101407
-0.000104439
-0.00010745
-0.000110435
-0.000113389
-0.000116309
-0.000119188
-0.000122024
-0.00012481
-0.000127544
-0.000130222
-0.000132839
-0.000135392
-0.000137877
-0.000140291
-0.000142631
-0.000144893
-0.000147075
-0.000149174
-0.000151187
-0.000153111
-0.000154945
-0.000156687
-0.000158333
-0.000159883
-0.000161334
-0.000162686
-0.000163935
-0.000165081
-0.000166123
-0.000167059
-0.000167889
-0.00016861
-0.000169222
-0.000169725
-0.000170117
-0.000170398
-0.000170566
-0.000170622
-0.000170565
-0.000170394
-0.00017011
-0.000169711
-0.000169199
-0.000168573
-0.000167834
-0.000166982
-0.00016602
-0.000164947
-0.000163766
-0.000162477
-0.000161083
-0.000159584