/*--------------------------------*- C++ -*----------------------------------*\
  =========                 |
  \\      /  F ield         | OpenFOAM: The Open Source CFD Toolbox
   \\    /   O peration     | Website:  https://openfoam.org
    \\  /    A nd           | Version:  12
     \\/     M anipulation  |
\*---------------------------------------------------------------------------*/
FoamFile
{
    format      ascii;
    class       surfaceScalarField;
    location    "2";
    object      phi;
}
// * * * * * * * * * * * * * * * * * * * * * * * * * * * * * * * * * * * * * //

dimensions      [0 3 -1 0 0 0 0];

internalField   nonuniform List<scalar> 
36180
(
-8.04398e-12
7.1841e-12
-1.86683e-11
1.04458e-11
-3.08422e-11
1.24448e-11
-4.21867e-11
1.1334e-11
-4.94616e-11
7.49712e-12
-5.19796e-11
2.53682e-12
-4.80261e-11
-3.80131e-12
-3.74587e-11
-1.0554e-11
-1.94651e-11
-1.7887e-11
5.773e-12
-2.52317e-11
3.85382e-11
-3.26943e-11
7.84824e-11
-3.99426e-11
1.25594e-10
-4.70602e-11
1.7945e-10
-5.38553e-11
2.39874e-10
-6.03885e-11
3.0642e-10
-6.65459e-11
3.78819e-10
-7.23713e-11
4.56624e-10
-7.78035e-11
5.39516e-10
-8.28702e-11
6.27058e-10
-8.75406e-11
7.18907e-10
-9.1831e-11
8.14642e-10
-9.57316e-11
9.13907e-10
-9.92502e-11
1.0163e-09
-1.02389e-10
1.12146e-09
-1.05152e-10
1.22902e-09
-1.07548e-10
1.33861e-09
-1.09577e-10
1.44987e-09
-1.11255e-10
1.56245e-09
-1.12581e-10
1.67603e-09
-1.1357e-10
1.79026e-09
-1.14224e-10
1.90483e-09
-1.1456e-10
2.01941e-09
-1.14578e-10
2.13371e-09
-1.14297e-10
2.24743e-09
-1.13717e-10
2.36029e-09
-1.12857e-10
2.47202e-09
-1.1172e-10
2.58234e-09
-1.10321e-10
2.69101e-09
-1.08665e-10
2.79778e-09
-1.06768e-10
2.90242e-09
-1.04635e-10
3.0047e-09
-1.02281e-10
3.10442e-09
-9.97108e-11
3.20136e-09
-9.69418e-11
3.29534e-09
-9.39765e-11
3.38618e-09
-9.08335e-11
3.47369e-09
-8.75147e-11
3.55774e-09
-8.4039e-11
3.63815e-09
-8.04079e-11
3.71479e-09
-7.66401e-11
3.78753e-09
-7.27369e-11
3.85625e-09
-6.87166e-11
3.92083e-09
-6.45806e-11
3.98118e-09
-6.03465e-11
4.0372e-09
-5.60155e-11
4.0888e-09
-5.16053e-11
4.13592e-09
-4.71165e-11
4.17849e-09
-4.25666e-11
4.21645e-09
-3.79562e-11
4.24975e-09
-3.33022e-11
4.27836e-09
-2.86052e-11
4.30224e-09
-2.38815e-11
4.32138e-09
-1.91313e-11
4.33575e-09
-1.43707e-11
4.34535e-09
-9.59947e-12
4.35019e-09
-4.83321e-12
4.35026e-09
-7.15673e-14
4.34559e-09
4.67047e-12
4.3362e-09
9.3933e-12
4.32212e-09
1.4082e-11
4.30339e-09
1.87373e-11
4.28004e-09
2.33444e-11
4.25214e-09
2.79037e-11
4.21974e-09
3.24013e-11
4.18291e-09
3.68372e-11
4.14171e-09
4.11982e-11
4.09623e-09
4.54838e-11
4.04655e-09
4.96819e-11
3.99276e-09
5.37918e-11
3.93496e-09
5.78019e-11
3.87325e-09
6.17112e-11
3.80774e-09
6.5509e-11
3.73855e-09
6.91939e-11
3.6658e-09
7.27558e-11
3.58961e-09
7.61928e-11
3.51011e-09
7.94952e-11
3.42745e-09
8.2661e-11
3.34177e-09
8.56806e-11
3.25322e-09
8.85518e-11
3.16196e-09
9.12647e-11
3.06814e-09
9.38173e-11
2.97195e-09
9.61988e-11
2.87354e-09
9.84076e-11
2.77311e-09
1.00432e-10
2.67084e-09
1.02271e-10
2.56693e-09
1.03911e-10
2.46158e-09
1.05351e-10
2.35501e-09
1.06578e-10
2.24742e-09
1.0759e-10
2.13905e-09
1.08374e-10
2.03012e-09
1.08928e-10
1.92088e-09
1.09237e-10
1.81158e-09
1.093e-10
1.70248e-09
1.09102e-10
1.59384e-09
1.08641e-10
1.48594e-09
1.07901e-10
1.37907e-09
1.06881e-10
1.2735e-09
1.05564e-10
1.16956e-09
1.03949e-10
1.06754e-09
1.02019e-10
9.67768e-10
9.97725e-11
8.70576e-10
9.71926e-11
7.763e-10
9.42796e-11
6.85285e-10
9.1016e-11
5.97884e-10
8.74039e-11
5.14458e-10
8.34272e-11
4.35371e-10
7.90907e-11
3.6099e-10
7.43814e-11
2.91686e-10
6.93089e-11
2.27821e-10
6.38656e-11
1.69756e-10
5.80696e-11
1.17833e-10
5.19247e-11
7.23742e-11
4.54638e-11
3.36656e-11
3.87109e-11
1.94324e-12
3.17273e-11
-2.26306e-11
2.45766e-11
-3.9998e-11
1.73723e-11
-5.02469e-11
1.02523e-11
-5.36722e-11
3.43019e-12
-5.08482e-11
-2.81976e-12
-4.2749e-11
-8.09457e-12
-3.08747e-11
-1.18698e-11
-1.74509e-11
-1.34186e-11
-5.70803e-12
-1.1738e-11
-5.70721e-12
-1.0394e-11
1.73943e-11
-2.62677e-11
2.60656e-11
-3.93819e-11
2.5506e-11
-4.57782e-11
1.76147e-11
-4.11434e-11
2.88281e-12
-2.28435e-11
-1.5819e-11
1.12076e-11
-3.78144e-11
6.21305e-11
-6.15057e-11
1.30828e-10
-8.65478e-11
2.17564e-10
-1.11986e-10
3.22533e-10
-1.37634e-10
4.4548e-10
-1.62901e-10
5.86129e-10
-1.87686e-10
7.43888e-10
-2.11623e-10
9.18182e-10
-2.34664e-10
1.10822e-09
-2.56585e-10
1.31323e-09
-2.77366e-10
1.5323e-09
-2.96879e-10
1.76456e-09
-3.15119e-10
2.00904e-09
-3.32016e-10
2.26479e-09
-3.47578e-10
2.53084e-09
-3.61771e-10
2.8062e-09
-3.74608e-10
3.0899e-09
-3.86083e-10
3.38097e-09
-3.96212e-10
3.67843e-09
-4.05005e-10
3.98134e-09
-4.1248e-10
4.28875e-09
-4.18659e-10
4.59974e-09
-4.23564e-10
4.9134e-09
-4.27224e-10
5.22884e-09
-4.29662e-10
5.5452e-09
-4.30914e-10
5.86163e-09
-4.31004e-10
6.17731e-09
-4.29972e-10
6.49144e-09
-4.27844e-10
6.80325e-09
-4.24661e-10
7.11199e-09
-4.20452e-10
7.41693e-09
-4.15258e-10
7.71738e-09
-4.09112e-10
8.01267e-09
-4.02054e-10
8.30215e-09
-3.94117e-10
8.58522e-09
-3.85344e-10
8.86128e-09
-3.75767e-10
9.12977e-09
-3.65429e-10
9.39016e-09
-3.54364e-10
9.64194e-09
-3.42614e-10
9.88464e-09
-3.30213e-10
1.01178e-08
-3.17202e-10
1.0341e-08
-3.03615e-10
1.05539e-08
-2.89494e-10
1.0756e-08
-2.74871e-10
1.09471e-08
-2.59788e-10
1.11268e-08
-2.44275e-10
1.12948e-08
-2.28373e-10
1.14509e-08
-2.12113e-10
1.15948e-08
-1.95534e-10
1.17264e-08
-1.78667e-10
1.18454e-08
-1.61549e-10
1.19516e-08
-1.44209e-10
1.2045e-08
-1.26686e-10
1.21254e-08
-1.09005e-10
1.21927e-08
-9.12054e-11
1.22469e-08
-7.33114e-11
1.22879e-08
-5.53591e-11
1.23157e-08
-3.73734e-11
1.23303e-08
-1.93884e-11
1.23316e-08
-1.42849e-12
1.23198e-08
1.64737e-11
1.22949e-08
3.42948e-11
1.2257e-08
5.20031e-11
1.22062e-08
6.95758e-11
1.21425e-08
8.69821e-11
1.20662e-08
1.042e-10
1.19774e-08
1.212e-10
1.18763e-08
1.3796e-10
1.17631e-08
1.54451e-10
1.16379e-08
1.70653e-10
1.1501e-08
1.86538e-10
1.13528e-08
2.02085e-10
1.11933e-08
2.17267e-10
1.10229e-08
2.32065e-10
1.0842e-08
2.46451e-10
1.06508e-08
2.60406e-10
1.04496e-08
2.73904e-10
1.02389e-08
2.86925e-10
1.0019e-08
2.99443e-10
9.79019e-09
3.11438e-10
9.55299e-09
3.22884e-10
9.30778e-09
3.33761e-10
9.055e-09
3.44042e-10
8.79512e-09
3.53707e-10
8.52859e-09
3.62728e-10
8.25592e-09
3.71084e-10
7.9776e-09
3.78747e-10
7.69418e-09
3.85695e-10
7.40619e-09
3.91898e-10
7.11421e-09
3.97333e-10
6.81882e-09
4.01971e-10
6.52063e-09
4.05787e-10
6.22025e-09
4.08751e-10
5.91835e-09
4.10837e-10
5.61557e-09
4.12013e-10
5.31262e-09
4.12254e-10
5.01019e-09
4.11527e-10
4.70903e-09
4.09807e-10
4.40987e-09
4.07059e-10
4.1135e-09
4.03258e-10
3.8207e-09
3.9837e-10
3.53228e-09
3.92371e-10
3.24907e-09
3.85227e-10
2.97193e-09
3.76917e-10
2.70171e-09
3.67409e-10
2.43931e-09
3.56685e-10
2.18561e-09
3.4472e-10
1.94151e-09
3.31502e-10
1.70793e-09
3.17015e-10
1.48576e-09
3.0126e-10
1.27591e-09
2.84236e-10
1.07926e-09
2.65964e-10
8.96658e-10
2.46468e-10
7.28928e-10
2.25804e-10
5.76817e-10
2.04038e-10
4.41005e-10
1.81281e-10
3.22046e-10
1.57672e-10
2.20363e-10
1.33415e-10
1.36172e-10
1.08771e-10
6.945e-11
8.40993e-11
1.98397e-11
5.98664e-11
-1.3423e-11
3.66978e-11
-3.16425e-11
1.5404e-11
-3.67821e-11
-2.9504e-12
-3.16524e-11
-1.69948e-11
-2.01049e-11
-2.49612e-11
-7.25904e-12
-2.45788e-11
-1.29654e-11
-6.32096e-12
2.35619e-11
-1.2217e-11
3.17892e-11
-8.46989e-12
2.16556e-11
9.57384e-12
-5.40836e-13
4.52113e-11
-3.28007e-11
1.01643e-10
-7.23221e-11
1.81067e-10
-1.17254e-10
2.85147e-10
-1.65632e-10
4.14894e-10
-2.16297e-10
5.70857e-10
-2.67981e-10
7.53195e-10
-3.1997e-10
9.61713e-10
-3.71441e-10
1.19598e-09
-4.2195e-10
1.45531e-09
-4.70964e-10
1.73886e-09
-5.1821e-10
2.04561e-09
-5.63345e-10
2.37446e-09
-6.06211e-10
2.72417e-09
-6.46595e-10
3.09347e-09
-6.84413e-10
3.481e-09
-7.1954e-10
3.88537e-09
-7.51941e-10
4.30515e-09
-7.81554e-10
4.73892e-09
-8.08375e-10
5.18523e-09
-8.32385e-10
5.64262e-09
-8.53601e-10
6.10966e-09
-8.72034e-10
6.5849e-09
-8.87719e-10
7.06693e-09
-9.00686e-10
7.55436e-09
-9.10981e-10
8.04579e-09
-9.1865e-10
8.53988e-09
-9.23749e-10
9.0353e-09
-9.26333e-10
9.53077e-09
-9.26465e-10
1.0025e-08
-9.24211e-10
1.05168e-08
-9.19635e-10
1.1005e-08
-9.1281e-10
1.14883e-08
-9.03807e-10
1.19658e-08
-8.927e-10
1.24362e-08
-8.79563e-10
1.28986e-08
-8.64475e-10
1.3352e-08
-8.47512e-10
1.37954e-08
-8.28753e-10
1.4228e-08
-8.08278e-10
1.46487e-08
-7.86165e-10
1.50568e-08
-7.62494e-10
1.54516e-08
-7.37347e-10
1.58322e-08
-7.10802e-10
1.61979e-08
-6.8294e-10
1.65481e-08
-6.53839e-10
1.68822e-08
-6.2358e-10
1.71996e-08
-5.9224e-10
1.74997e-08
-5.59897e-10
1.7782e-08
-5.26629e-10
1.80462e-08
-4.92512e-10
1.82917e-08
-4.57621e-10
1.85182e-08
-4.22031e-10
1.87254e-08
-3.85816e-10
1.89129e-08
-3.49048e-10
1.90804e-08
-3.11798e-10
1.92279e-08
-2.74137e-10
1.9355e-08
-2.36135e-10
1.94617e-08
-1.9786e-10
1.95478e-08
-1.59378e-10
1.96132e-08
-1.20756e-10
1.96578e-08
-8.2058e-11
1.96818e-08
-4.33475e-11
1.96851e-08
-4.68729e-12
1.96677e-08
3.38618e-11
1.96297e-08
7.22388e-11
1.95714e-08
1.10385e-10
1.94927e-08
1.48242e-10
1.93939e-08
1.85752e-10
1.92753e-08
2.22859e-10
1.9137e-08
2.59507e-10
1.89793e-08
2.95641e-10
1.88025e-08
3.31208e-10
1.8607e-08
3.66153e-10
1.83931e-08
4.00424e-10
1.81613e-08
4.3397e-10
1.79118e-08
4.66738e-10
1.76452e-08
4.98677e-10
1.73619e-08
5.29737e-10
1.70624e-08
5.59867e-10
1.67473e-08
5.89017e-10
1.64171e-08
6.17137e-10
1.60724e-08
6.44176e-10
1.57137e-08
6.70085e-10
1.53418e-08
6.94812e-10
1.49573e-08
7.18306e-10
1.45608e-08
7.40518e-10
1.41531e-08
7.61394e-10
1.3735e-08
7.80884e-10
1.33071e-08
7.98933e-10
1.28704e-08
8.1549e-10
1.24256e-08
8.30498e-10
1.19736e-08
8.43905e-10
1.15152e-08
8.55653e-10
1.10515e-08
8.65687e-10
1.05834e-08
8.7395e-10
1.01117e-08
8.80384e-10
9.63764e-09
8.84931e-10
9.16213e-09
8.87532e-10
8.68626e-09
8.88128e-10
8.21112e-09
8.8666e-10
7.73786e-09
8.8307e-10
7.26763e-09
8.77297e-10
6.8016e-09
8.69286e-10
6.341e-09
8.58978e-10
5.88705e-09
8.46321e-10
5.44102e-09
8.31261e-10
5.00419e-09
8.13751e-10
4.57785e-09
7.93747e-10
4.16333e-09
7.71211e-10
3.76193e-09
7.46115e-10
3.375e-09
7.1844e-10
3.00384e-09
6.88178e-10
2.64976e-09
6.55339e-10
2.31405e-09
6.19953e-10
1.99794e-09
5.82074e-10
1.70262e-09
5.41789e-10
1.42921e-09
4.99222e-10
1.1787e-09
4.54549e-10
9.51984e-10
4.08004e-10
7.49759e-10
3.599e-10
5.72534e-10
3.10646e-10
4.20539e-10
2.60768e-10
2.93698e-10
2.10946e-10
1.91524e-10
1.62043e-10
1.1307e-10
1.15157e-10
5.68061e-11
7.1672e-11
2.05316e-11
3.33287e-11
1.23978e-12
2.30118e-12
-5.00464e-12
-1.87114e-11
-3.26204e-12
-2.63166e-11
-1.62267e-11
8.55707e-13
2.26442e-11
1.26204e-11
1.99511e-11
4.25121e-11
-8.28829e-12
9.45557e-11
-5.26433e-11
1.71622e-10
-1.09899e-10
2.76394e-10
-1.7714e-10
4.1091e-10
-2.51788e-10
5.76714e-10
-3.31471e-10
7.74774e-10
-4.14366e-10
1.0056e-09
-4.98834e-10
1.26929e-09
-5.83667e-10
1.56559e-09
-6.67755e-10
1.89394e-09
-7.50299e-10
2.25351e-09
-8.30555e-10
2.6433e-09
-9.07999e-10
3.06209e-09
-9.82138e-10
3.50852e-09
-1.05264e-09
3.98111e-09
-1.11919e-09
4.47829e-09
-1.18159e-09
4.99839e-09
-1.23964e-09
5.5397e-09
-1.29325e-09
6.10045e-09
-1.34231e-09
6.67885e-09
-1.38677e-09
7.27308e-09
-1.42661e-09
7.88132e-09
-1.46183e-09
8.50173e-09
-1.49244e-09
9.1325e-09
-1.51848e-09
9.77181e-09
-1.53999e-09
1.04179e-08
-1.55704e-09
1.10689e-08
-1.5697e-09
1.17232e-08
-1.57805e-09
1.23791e-08
-1.58218e-09
1.30348e-08
-1.58218e-09
1.36888e-08
-1.57817e-09
1.43394e-08
-1.57024e-09
1.49851e-08
-1.55852e-09
1.56244e-08
-1.54312e-09
1.62559e-08
-1.52416e-09
1.68781e-08
-1.50177e-09
1.74897e-08
-1.47606e-09
1.80893e-08
-1.44718e-09
1.86758e-08
-1.41525e-09
1.9248e-08
-1.38041e-09
1.98046e-08
-1.34277e-09
2.03446e-08
-1.30249e-09
2.08669e-08
-1.25969e-09
2.13706e-08
-1.21451e-09
2.18548e-08
-1.16708e-09
2.23185e-08
-1.11754e-09
2.27609e-08
-1.06602e-09
2.31813e-08
-1.01264e-09
2.3579e-08
-9.57548e-10
2.39532e-08
-9.00868e-10
2.43035e-08
-8.4273e-10
2.46291e-08
-7.83262e-10
2.49297e-08
-7.2259e-10
2.52047e-08
-6.60839e-10
2.54538e-08
-5.98133e-10
2.56766e-08
-5.34592e-10
2.58728e-08
-4.70337e-10
2.60421e-08
-4.05486e-10
2.61844e-08
-3.40155e-10
2.62995e-08
-2.74458e-10
2.63873e-08
-2.08508e-10
2.64476e-08
-1.42415e-10
2.64806e-08
-7.62881e-11
2.64861e-08
-1.02342e-11
2.64643e-08
5.56423e-11
2.64153e-08
1.21237e-10
2.63393e-08
1.8645e-10
2.62363e-08
2.51179e-10
2.61068e-08
3.15327e-10
2.59508e-08
3.78796e-10
2.57688e-08
4.41492e-10
2.55612e-08
5.0332e-10
2.53282e-08
5.64187e-10
2.50703e-08
6.24001e-10
2.47881e-08
6.82672e-10
2.4482e-08
7.40109e-10
2.41525e-08
7.96224e-10
2.38002e-08
8.50928e-10
2.34258e-08
9.04135e-10
2.30299e-08
9.55756e-10
2.26133e-08
1.00571e-09
2.21765e-08
1.0539e-09
2.17204e-08
1.10024e-09
2.12459e-08
1.14465e-09
2.07536e-08
1.18704e-09
2.02446e-08
1.22733e-09
1.97197e-08
1.26542e-09
1.91799e-08
1.30123e-09
1.86261e-08
1.33467e-09
1.80594e-08
1.36564e-09
1.74808e-08
1.39406e-09
1.68915e-08
1.41984e-09
1.62925e-08
1.44288e-09
1.56851e-08
1.46309e-09
1.50704e-08
1.48038e-09
1.44497e-08
1.49465e-09
1.38243e-08
1.50581e-09
1.31954e-08
1.51376e-09
1.25646e-08
1.5184e-09
1.19331e-08
1.51965e-09
1.13023e-08
1.5174e-09
1.06738e-08
1.51156e-09
1.00491e-08
1.50204e-09
9.42964e-09
1.48875e-09
8.81702e-09
1.4716e-09
8.21283e-09
1.45052e-09
7.61867e-09
1.42542e-09
7.03619e-09
1.39623e-09
6.46703e-09
1.36291e-09
5.91285e-09
1.3254e-09
5.37529e-09
1.28367e-09
4.85603e-09
1.23771e-09
4.35669e-09
1.18752e-09
3.87889e-09
1.13315e-09
3.42418e-09
1.07466e-09
2.99409e-09
1.01217e-09
2.59003e-09
9.45851e-10
2.21334e-09
8.75919e-10
1.86521e-09
8.02682e-10
1.54668e-09
7.26532e-10
1.25861e-09
6.47979e-10
1.00159e-09
5.67664e-10
7.75967e-10
4.86399e-10
5.81726e-10
4.05192e-10
4.18477e-10
3.25296e-10
2.85383e-10
2.48256e-10
1.81089e-10
1.7597e-10
1.03666e-10
1.10756e-10
5.05409e-11
5.54309e-11
1.84135e-11
1.34207e-11
3.20127e-12
-1.10995e-11
-1.30246e-11
9.42988e-12
1.32079e-11
4.14854e-11
-1.21194e-11
1.01289e-10
-6.80957e-11
1.919e-10
-1.43272e-10
3.15498e-10
-2.33499e-10
4.73995e-10
-3.35655e-10
6.68913e-10
-4.46706e-10
9.01346e-10
-5.6392e-10
1.17196e-09
-6.84983e-10
1.48102e-09
-8.07907e-10
1.82842e-09
-9.31066e-10
2.21372e-09
-1.05306e-09
2.63619e-09
-1.17276e-09
3.09483e-09
-1.28921e-09
3.58845e-09
-1.40162e-09
4.11563e-09
-1.50933e-09
4.67483e-09
-1.61183e-09
5.26432e-09
-1.70869e-09
5.88231e-09
-1.79957e-09
6.52687e-09
-1.8842e-09
7.19602e-09
-1.9624e-09
7.88773e-09
-2.03401e-09
8.59991e-09
-2.09894e-09
9.33043e-09
-2.15714e-09
1.00772e-08
-2.20858e-09
1.0838e-08
-2.25327e-09
1.16108e-08
-2.29124e-09
1.23934e-08
-2.32257e-09
1.31836e-08
-2.34732e-09
1.39795e-08
-2.36559e-09
1.4779e-08
-2.37749e-09
1.55799e-08
-2.38314e-09
1.63804e-08
-2.38269e-09
1.71785e-08
-2.37627e-09
1.79723e-08
-2.36405e-09
1.876e-08
-2.34618e-09
1.95397e-08
-2.32283e-09
2.03097e-08
-2.29418e-09
2.10684e-08
-2.26042e-09
2.1814e-08
-2.22171e-09
2.25451e-08
-2.17827e-09
2.32601e-08
-2.13026e-09
2.39576e-08
-2.07789e-09
2.46362e-08
-2.02136e-09
2.52946e-08
-1.96086e-09
2.59315e-08
-1.89658e-09
2.65457e-08
-1.82873e-09
2.71361e-08
-1.75751e-09
2.77017e-08
-1.68311e-09
2.82414e-08
-1.60573e-09
2.87543e-08
-1.52556e-09
2.92396e-08
-1.44281e-09
2.96964e-08
-1.35767e-09
3.0124e-08
-1.27033e-09
3.05217e-08
-1.18097e-09
3.08889e-08
-1.0898e-09
3.12251e-08
-9.96986e-10
3.15296e-08
-9.02726e-10
3.18023e-08
-8.07198e-10
3.20425e-08
-7.1058e-10
3.22501e-08
-6.1305e-10
3.24247e-08
-5.14783e-10
3.25662e-08
-4.15949e-10
3.26744e-08
-3.16717e-10
3.27492e-08
-2.17254e-10
3.27907e-08
-1.17722e-10
3.27987e-08
-1.82842e-11
3.27735e-08
8.09031e-11
3.2715e-08
1.79683e-10
3.26236e-08
2.77904e-10
3.24993e-08
3.75413e-10
3.23426e-08
4.72062e-10
3.21537e-08
5.67706e-10
3.1933e-08
6.62199e-10
3.16809e-08
7.55399e-10
3.13979e-08
8.47166e-10
3.10846e-08
9.3736e-10
3.07414e-08
1.02585e-09
3.0369e-08
1.11248e-09
2.99681e-08
1.19714e-09
2.95394e-08
1.27969e-09
2.90835e-08
1.35998e-09
2.86014e-08
1.4379e-09
2.80938e-08
1.51331e-09
2.75616e-08
1.58607e-09
2.70058e-08
1.65606e-09
2.64273e-08
1.72315e-09
2.58271e-08
1.78719e-09
2.52064e-08
1.84807e-09
2.45662e-08
1.90565e-09
2.39076e-08
1.9598e-09
2.32319e-08
2.01038e-09
2.25403e-08
2.05725e-09
2.18341e-08
2.10029e-09
2.11145e-08
2.13936e-09
2.03831e-08
2.17432e-09
1.96412e-08
2.20503e-09
1.88902e-08
2.23136e-09
1.81317e-08
2.25317e-09
1.73672e-08
2.27031e-09
1.65983e-08
2.28265e-09
1.58266e-08
2.29006e-09
1.50539e-08
2.29239e-09
1.42818e-08
2.28951e-09
1.3512e-08
2.28129e-09
1.27465e-08
2.26761e-09
1.19869e-08
2.24833e-09
1.12352e-08
2.22334e-09
1.04931e-08
2.19253e-09
9.76275e-09
2.15581e-09
9.0459e-09
2.11309e-09
8.34451e-09
2.06429e-09
7.66054e-09
2.00938e-09
6.9959e-09
1.94831e-09
6.35251e-09
1.88109e-09
5.73227e-09
1.80776e-09
5.13703e-09
1.72839e-09
4.56858e-09
1.64311e-09
4.02865e-09
1.55211e-09
3.51887e-09
1.45563e-09
3.04078e-09
1.35402e-09
2.59575e-09
1.24772e-09
2.185e-09
1.13729e-09
1.80955e-09
1.02343e-09
1.47019e-09
9.0703e-10
1.16744e-09
7.89151e-10
9.01526e-10
6.71108e-10
6.7233e-10
5.54496e-10
4.79357e-10
4.41234e-10
3.21701e-10
3.33631e-10
1.98018e-10
2.34443e-10
1.06502e-10
1.46951e-10
4.48761e-11
7.50517e-11
1.04034e-11
2.3378e-11
-2.6204e-12
1.7599e-11
-4.37664e-12
7.03538e-11
-6.4867e-11
1.61117e-10
-1.58841e-10
2.91822e-10
-2.73974e-10
4.63803e-10
-4.05464e-10
6.78114e-10
-5.49967e-10
9.35587e-10
-7.04167e-10
1.2367e-09
-8.65037e-10
1.58166e-09
-1.02993e-09
1.97031e-09
-1.19656e-09
2.40222e-09
-1.36297e-09
2.87667e-09
-1.52751e-09
3.39268e-09
-1.68877e-09
3.94902e-09
-1.84555e-09
4.54427e-09
-1.99686e-09
5.17681e-09
-2.14187e-09
5.84487e-09
-2.27989e-09
6.54653e-09
-2.41034e-09
7.27975e-09
-2.53278e-09
8.0424e-09
-2.64685e-09
8.83226e-09
-2.75226e-09
9.64705e-09
-2.8488e-09
1.04844e-08
-2.93633e-09
1.13421e-08
-3.01476e-09
1.22175e-08
-3.08404e-09
1.31085e-08
-3.14418e-09
1.40124e-08
-3.19519e-09
1.4927e-08
-3.23716e-09
1.58498e-08
-3.27017e-09
1.67786e-08
-3.29434e-09
1.77109e-08
-3.30981e-09
1.86445e-08
-3.31674e-09
1.95772e-08
-3.31532e-09
2.05066e-08
-3.30572e-09
2.14307e-08
-3.28816e-09
2.23474e-08
-3.26285e-09
2.32546e-08
-3.23003e-09
2.41503e-08
-3.18991e-09
2.50327e-08
-3.14275e-09
2.58997e-08
-3.08879e-09
2.67498e-08
-3.02829e-09
2.7581e-08
-2.96152e-09
2.83919e-08
-2.88872e-09
2.91807e-08
-2.81017e-09
2.9946e-08
-2.72614e-09
3.06863e-08
-2.6369e-09
3.14003e-08
-2.54272e-09
3.20866e-08
-2.44386e-09
3.27441e-08
-2.3406e-09
3.33716e-08
-2.23321e-09
3.3968e-08
-2.12197e-09
3.45323e-08
-2.00713e-09
3.50636e-08
-1.88897e-09
3.55611e-08
-1.76775e-09
3.60238e-08
-1.64373e-09
3.64512e-08
-1.51718e-09
3.68426e-08
-1.38835e-09
3.71973e-08
-1.25749e-09
3.7515e-08
-1.12485e-09
3.77951e-08
-9.90689e-10
3.80373e-08
-8.55245e-10
3.82413e-08
-7.18758e-10
3.84068e-08
-5.81467e-10
3.85337e-08
-4.43605e-10
3.86218e-08
-3.05403e-10
3.86712e-08
-1.67087e-10
3.86818e-08
-2.88801e-11
3.86537e-08
1.08998e-10
3.85871e-08
2.4633e-10
3.84821e-08
3.82905e-10
3.8339e-08
5.18511e-10
3.81581e-08
6.52943e-10
3.79398e-08
7.85995e-10
3.76845e-08
9.17469e-10
3.73928e-08
1.04716e-09
3.70651e-08
1.17489e-09
3.6702e-08
1.30044e-09
3.63042e-08
1.42363e-09
3.58724e-08
1.54428e-09
3.54074e-08
1.66219e-09
3.49099e-08
1.77717e-09
3.43808e-08
1.88904e-09
3.38211e-08
1.99762e-09
3.32317e-08
2.10272e-09
3.26136e-08
2.20416e-09
3.19679e-08
2.30176e-09
3.12957e-08
2.39533e-09
3.05982e-08
2.48469e-09
2.98766e-08
2.56966e-09
2.91323e-08
2.65005e-09
2.83664e-08
2.72568e-09
2.75804e-08
2.79637e-09
2.67757e-08
2.86192e-09
2.59538e-08
2.92217e-09
2.51163e-08
2.97691e-09
2.42647e-08
3.02596e-09
2.34006e-08
3.06914e-09
2.25257e-08
3.10625e-09
2.16417e-08
3.13711e-09
2.07505e-08
3.16154e-09
1.98538e-08
3.17935e-09
1.89535e-08
3.19035e-09
1.80515e-08
3.19436e-09
1.71498e-08
3.19122e-09
1.62504e-08
3.18073e-09
1.53552e-08
3.16275e-09
1.44665e-08
3.13711e-09
1.35861e-08
3.10366e-09
1.27164e-08
3.06228e-09
1.18594e-08
3.01283e-09
1.10173e-08
2.95522e-09
1.01922e-08
2.88938e-09
9.38631e-09
2.81524e-09
8.60183e-09
2.7328e-09
7.84086e-09
2.64207e-09
7.10551e-09
2.54311e-09
6.39786e-09
2.43605e-09
5.7199e-09
2.32108e-09
5.07357e-09
2.19844e-09
4.4607e-09
2.0685e-09
3.88302e-09
1.9317e-09
3.34212e-09
1.78862e-09
2.83944e-09
1.63998e-09
2.37622e-09
1.48666e-09
1.95352e-09
1.32974e-09
1.57215e-09
1.17052e-09
1.23268e-09
1.01058e-09
9.35407e-10
8.51772e-10
6.80338e-10
6.96307e-10
4.6718e-10
5.46793e-10
2.9534e-10
4.06287e-10
1.63937e-10
2.7836e-10
7.18187e-11
1.67174e-10
1.76371e-11
7.75645e-11
1.50175e-11
2.49443e-11
-2.9303e-11
9.76002e-11
-1.37512e-10
2.18808e-10
-2.80027e-10
3.89318e-10
-4.44477e-10
6.0955e-10
-6.25676e-10
8.79686e-10
-8.20099e-10
1.1998e-09
-1.02426e-09
1.56968e-09
-1.23492e-09
1.98899e-09
-1.44922e-09
2.45706e-09
-1.66463e-09
2.97307e-09
-1.87897e-09
3.53589e-09
-2.09034e-09
4.14426e-09
-2.29712e-09
4.79663e-09
-2.49792e-09
5.49134e-09
-2.69156e-09
6.2265e-09
-2.87703e-09
7.00012e-09
-3.0535e-09
7.81003e-09
-3.22026e-09
8.654e-09
-3.37674e-09
9.52965e-09
-3.5225e-09
1.04346e-08
-3.65716e-09
1.13662e-08
-3.78045e-09
1.23221e-08
-3.89218e-09
1.32995e-08
-3.99221e-09
1.4296e-08
-4.08048e-09
1.53088e-08
-4.15697e-09
1.63353e-08
-4.22171e-09
1.73729e-08
-4.27477e-09
1.8419e-08
-4.31626e-09
1.9471e-08
-4.34632e-09
2.05263e-08
-4.36513e-09
2.15825e-08
-4.37288e-09
2.26369e-08
-4.36979e-09
2.36873e-08
-4.3561e-09
2.47312e-08
-4.33206e-09
2.57663e-08
-4.29796e-09
2.67904e-08
-4.25408e-09
2.78012e-08
-4.20071e-09
2.87966e-08
-4.13817e-09
2.97746e-08
-4.06678e-09
3.07332e-08
-3.98687e-09
3.16704e-08
-3.89876e-09
3.25845e-08
-3.80281e-09
3.34737e-08
-3.69934e-09
3.43362e-08
-3.5887e-09
3.51706e-08
-3.47126e-09
3.59752e-08
-3.34735e-09
3.67487e-08
-3.21732e-09
3.74896e-08
-3.08154e-09
3.81968e-08
-2.94035e-09
3.88689e-08
-2.7941e-09
3.95049e-08
-2.64314e-09
4.01038e-08
-2.48781e-09
4.06645e-08
-2.32847e-09
4.11862e-08
-2.16545e-09
4.16681e-08
-1.9991e-09
4.21095e-08
-1.82974e-09
4.25097e-08
-1.65771e-09
4.28682e-08
-1.48334e-09
4.31845e-08
-1.30694e-09
4.34581e-08
-1.12885e-09
4.36887e-08
-9.49371e-10
4.38761e-08
-7.68817e-10
4.402e-08
-5.87493e-10
4.41203e-08
-4.05702e-10
4.41769e-08
-2.23741e-10
4.41899e-08
-4.1901e-11
4.41594e-08
1.39528e-10
4.40855e-08
3.20263e-10
4.39684e-08
5.00024e-10
4.38083e-08
6.78535e-10
4.36058e-08
8.55524e-10
4.3361e-08
1.03072e-09
4.30746e-08
1.20387e-09
4.27471e-08
1.3747e-09
4.2379e-08
1.54296e-09
4.19711e-08
1.70839e-09
4.1524e-08
1.87074e-09
4.10385e-08
2.02975e-09
4.05155e-08
2.18519e-09
3.99559e-08
2.3368e-09
3.93606e-08
2.48435e-09
3.87306e-08
2.62758e-09
3.80671e-08
2.76625e-09
3.73711e-08
2.90013e-09
3.66439e-08
3.02897e-09
3.58867e-08
3.15254e-09
3.51008e-08
3.27059e-09
3.42876e-08
3.38288e-09
3.34485e-08
3.48917e-09
3.25849e-08
3.58923e-09
3.16985e-08
3.6828e-09
3.07908e-08
3.76966e-09
2.98634e-08
3.84955e-09
2.8918e-08
3.92225e-09
2.79565e-08
3.98749e-09
2.69806e-08
4.04506e-09
2.59921e-08
4.09469e-09
2.49931e-08
4.13616e-09
2.39854e-08
4.16922e-09
2.29711e-08
4.19364e-09
2.19523e-08
4.20919e-09
2.0931e-08
4.21564e-09
1.99095e-08
4.21277e-09
1.88898e-08
4.20037e-09
1.78743e-08
4.17823e-09
1.68653e-08
4.14615e-09
1.5865e-08
4.10397e-09
1.48758e-08
4.05151e-09
1.39e-08
3.98865e-09
1.29399e-08
3.91525e-09
1.19981e-08
3.83125e-09
1.10767e-08
3.73659e-09
1.01783e-08
3.63125e-09
9.30505e-09
3.51529e-09
8.45938e-09
3.38879e-09
7.64351e-09
3.25192e-09
6.85966e-09
3.10493e-09
6.10997e-09
2.94814e-09
5.39649e-09
2.78198e-09
4.72117e-09
2.60702e-09
4.08585e-09
2.42394e-09
3.49222e-09
2.23361e-09
2.94182e-09
2.03705e-09
2.43604e-09
1.83553e-09
1.97606e-09
1.63051e-09
1.56289e-09
1.42376e-09
1.19732e-09
1.21734e-09
8.79958e-10
1.01368e-09
6.11198e-10
8.15558e-10
3.91263e-10
6.26227e-10
2.20219e-10
4.49408e-10
9.80235e-11
2.89375e-10
2.45953e-11
1.50998e-10
3.96137e-11
3.1539e-11
-6.08257e-11
1.22842e-10
-2.28805e-10
2.73186e-10
-4.30349e-10
4.82206e-10
-6.5349e-10
7.49413e-10
-8.92863e-10
1.07415e-09
-1.14483e-09
1.45573e-09
-1.40582e-09
1.89325e-09
-1.67245e-09
2.38577e-09
-1.94173e-09
2.93209e-09
-2.21095e-09
3.53091e-09
-2.47777e-09
4.18068e-09
-2.74012e-09
4.87976e-09
-2.99619e-09
5.62628e-09
-3.24444e-09
6.41825e-09
-3.48352e-09
7.2535e-09
-3.71229e-09
8.12979e-09
-3.92977e-09
9.04469e-09
-4.13516e-09
9.99572e-09
-4.32777e-09
1.09803e-08
-4.50706e-09
1.19957e-08
-4.6726e-09
1.30393e-08
-4.82405e-09
1.41083e-08
-4.96116e-09
1.51999e-08
-5.08377e-09
1.63112e-08
-5.19179e-09
1.74394e-08
-5.28519e-09
1.85817e-08
-5.364e-09
1.97352e-08
-5.42829e-09
2.08972e-08
-5.4782e-09
2.20647e-08
-5.51389e-09
2.32352e-08
-5.53556e-09
2.44057e-08
-5.54345e-09
2.55738e-08
-5.53782e-09
2.67366e-08
-5.51897e-09
2.78918e-08
-5.48721e-09
2.90367e-08
-5.44287e-09
3.01689e-08
-5.38631e-09
3.12861e-08
-5.31789e-09
3.23859e-08
-5.238e-09
3.34662e-08
-5.14704e-09
3.45247e-08
-5.0454e-09
3.55595e-08
-4.93349e-09
3.65684e-08
-4.81175e-09
3.75497e-08
-4.68059e-09
3.85014e-08
-4.54045e-09
3.94219e-08
-4.39175e-09
4.03095e-08
-4.23494e-09
4.11626e-08
-4.07046e-09
4.19798e-08
-3.89873e-09
4.27597e-08
-3.72021e-09
4.35009e-08
-3.53533e-09
4.42023e-08
-3.34452e-09
4.48627e-08
-3.14821e-09
4.54811e-08
-2.94685e-09
4.60565e-08
-2.74085e-09
4.6588e-08
-2.53064e-09
4.70749e-08
-2.31664e-09
4.75165e-08
-2.09926e-09
4.79121e-08
-1.87893e-09
4.82611e-08
-1.65603e-09
4.85633e-08
-1.43097e-09
4.88181e-08
-1.20415e-09
4.90252e-08
-9.75959e-10
4.91845e-08
-7.46779e-10
4.92958e-08
-5.16989e-10
4.9359e-08
-2.86965e-10
4.93742e-08
-5.70712e-11
4.93414e-08
1.72326e-10
4.92608e-08
4.00871e-10
4.91326e-08
6.2821e-10
4.89571e-08
8.53996e-10
4.87348e-08
1.07789e-09
4.8466e-08
1.29954e-09
4.81512e-08
1.51863e-09
4.77911e-08
1.73483e-09
4.73862e-08
1.9478e-09
4.69374e-08
2.15722e-09
4.64454e-08
2.36278e-09
4.5911e-08
2.56416e-09
4.53351e-08
2.76104e-09
4.47188e-08
2.95312e-09
4.40631e-08
3.14009e-09
4.3369e-08
3.32163e-09
4.26378e-08
3.49745e-09
4.18707e-08
3.66724e-09
4.1069e-08
3.83069e-09
4.0234e-08
3.98751e-09
3.93672e-08
4.13739e-09
3.84701e-08
4.28002e-09
3.75441e-08
4.41511e-09
3.6591e-08
4.54235e-09
3.56124e-08
4.66145e-09
3.46099e-08
4.7721e-09
3.35855e-08
4.874e-09
3.25409e-08
4.96684e-09
3.14781e-08
5.05033e-09
3.03989e-08
5.12417e-09
2.93056e-08
5.18807e-09
2.82e-08
5.24171e-09
2.70844e-08
5.28482e-09
2.5961e-08
5.3171e-09
2.48319e-08
5.33827e-09
2.36995e-08
5.34805e-09
2.25661e-08
5.34618e-09
2.1434e-08
5.3324e-09
2.03058e-08
5.30647e-09
1.91838e-08
5.26814e-09
1.80705e-08
5.21723e-09
1.69685e-08
5.15352e-09
1.58803e-08
5.07688e-09
1.48084e-08
4.98715e-09
1.37554e-08
4.88426e-09
1.27238e-08
4.76815e-09
1.17163e-08
4.63882e-09
1.07352e-08
4.49632e-09
9.78326e-09
4.34078e-09
8.86279e-09
4.1724e-09
7.97626e-09
3.99147e-09
7.12602e-09
3.79837e-09
6.31438e-09
3.59363e-09
5.54353e-09
3.37787e-09
4.81559e-09
3.15189e-09
4.13255e-09
2.91665e-09
3.49631e-09
2.6733e-09
2.90862e-09
2.42323e-09
2.37109e-09
2.16804e-09
1.88523e-09
1.90963e-09
1.45238e-09
1.6502e-09
1.07376e-09
1.39229e-09
7.5051e-10
1.13882e-09
4.83641e-10
8.931e-10
2.74137e-10
6.58917e-10
1.22961e-10
4.40556e-10
3.1154e-11
2.4281e-10
7.07686e-11
3.75269e-11
-9.83394e-11
1.4617e-10
-3.37441e-10
3.24053e-10
-6.08214e-10
5.69838e-10
-8.99269e-10
8.82192e-10
-1.2052e-09
1.25968e-09
-1.52232e-09
1.70088e-09
-1.847e-09
2.20425e-09
-2.17582e-09
2.76821e-09
-2.50567e-09
3.39102e-09
-2.83376e-09
4.07089e-09
-3.15762e-09
4.80581e-09
-3.47504e-09
5.59374e-09
-3.7841e-09
6.43241e-09
-4.08311e-09
7.31951e-09
-4.37061e-09
8.25254e-09
-4.64532e-09
9.22896e-09
-4.90618e-09
1.02461e-08
-5.15227e-09
1.13012e-08
-5.38283e-09
1.23913e-08
-5.59724e-09
1.35137e-08
-5.795e-09
1.46654e-08
-5.97572e-09
1.58434e-08
-6.13911e-09
1.70446e-08
-6.28499e-09
1.8266e-08
-6.41324e-09
1.95047e-08
-6.52382e-09
2.07574e-08
-6.61678e-09
2.20213e-08
-6.69219e-09
2.32933e-08
-6.7502e-09
2.45705e-08
-6.79102e-09
2.58498e-08
-6.81488e-09
2.71284e-08
-6.82205e-09
2.84034e-08
-6.81286e-09
2.96721e-08
-6.78764e-09
3.09316e-08
-6.74678e-09
3.21794e-08
-6.69067e-09
3.34129e-08
-6.61974e-09
3.46294e-08
-6.53442e-09
3.58266e-08
-6.43518e-09
3.70021e-08
-6.32249e-09
3.81535e-08
-6.19684e-09
3.92787e-08
-6.05872e-09
4.03756e-08
-5.90864e-09
4.14421e-08
-5.74711e-09
4.24764e-08
-5.57466e-09
4.34764e-08
-5.3918e-09
4.44406e-08
-5.19908e-09
4.53671e-08
-4.997e-09
4.62545e-08
-4.78612e-09
4.71012e-08
-4.56695e-09
4.79059e-08
-4.34003e-09
4.86673e-08
-4.10589e-09
4.93841e-08
-3.86504e-09
5.00553e-08
-3.61803e-09
5.06798e-08
-3.36535e-09
5.12567e-08
-3.10754e-09
5.17852e-08
-2.84509e-09
5.22645e-08
-2.57852e-09
5.26938e-08
-2.30831e-09
5.30728e-08
-2.03498e-09
5.34008e-08
-1.75899e-09
5.36775e-08
-1.48084e-09
5.39025e-08
-1.201e-09
5.40757e-08
-9.19928e-10
5.41968e-08
-6.38099e-10
5.42658e-08
-3.55963e-10
5.42827e-08
-7.39694e-11
5.42476e-08
2.07439e-10
5.41606e-08
4.87827e-10
5.40221e-08
7.66762e-10
5.38323e-08
1.04382e-09
5.35916e-08
1.31859e-09
5.33005e-08
1.59065e-09
5.29595e-08
1.85959e-09
5.25693e-08
2.12502e-09
5.21306e-08
2.38653e-09
5.16441e-08
2.64372e-09
5.11106e-08
2.89622e-09
5.05312e-08
3.14363e-09
4.99067e-08
3.38557e-09
4.92381e-08
3.62165e-09
4.85267e-08
3.85151e-09
4.77736e-08
4.07476e-09
4.698e-08
4.29103e-09
4.61473e-08
4.49995e-09
4.52769e-08
4.70115e-09
4.43701e-08
4.89425e-09
4.34286e-08
5.0789e-09
4.24539e-08
5.25471e-09
4.14477e-08
5.42133e-09
4.04117e-08
5.57839e-09
3.93476e-08
5.72552e-09
3.82573e-08
5.86235e-09
3.71428e-08
5.98851e-09
3.6006e-08
6.10365e-09
3.4849e-08
6.2074e-09
3.36737e-08
6.29941e-09
3.24825e-08
6.3793e-09
3.12775e-08
6.44673e-09
3.00609e-08
6.50135e-09
2.88352e-08
6.54281e-09
2.76027e-08
6.57077e-09
2.63659e-08
6.58492e-09
2.51271e-08
6.58492e-09
2.38891e-08
6.57048e-09
2.26542e-08
6.54131e-09
2.14252e-08
6.49714e-09
2.02047e-08
6.43772e-09
1.89954e-08
6.36285e-09
1.78e-08
6.27233e-09
1.66211e-08
6.16601e-09
1.54616e-08
6.04378e-09
1.43242e-08
5.9056e-09
1.32115e-08
5.75146e-09
1.21264e-08
5.58142e-09
1.10716e-08
5.39563e-09
1.00497e-08
5.19431e-09
9.06334e-09
4.9778e-09
8.1152e-09
4.74652e-09
7.20781e-09
4.50103e-09
6.34364e-09
4.24204e-09
5.52512e-09
3.97041e-09
4.75459e-09
3.68718e-09
4.0343e-09
3.39359e-09
3.36644e-09
3.09109e-09
2.75309e-09
2.78139e-09
2.19625e-09
2.46648e-09
1.69783e-09
2.14862e-09
1.25972e-09
1.83041e-09
8.83716e-10
1.51482e-09
5.71624e-10
1.2052e-09