/*--------------------------------*- C++ -*----------------------------------*\
  =========                 |
  \\      /  F ield         | OpenFOAM: The Open Source CFD Toolbox
   \\    /   O peration     | Website:  https://openfoam.org
    \\  /    A nd           | Version:  12
     \\/     M anipulation  |
\*---------------------------------------------------------------------------*/
FoamFile
{
    format      ascii;
    class       volVectorField;
    location    "2";
    object      U;
}
// * * * * * * * * * * * * * * * * * * * * * * * * * * * * * * * * * * * * * //

dimensions      [0 1 -1 0 0 0 0];

internalField   nonuniform List<vector> 
18225
(
(-6.93485e-07 3.24649e-07 0)
(-8.1954e-07 3.99718e-07 0)
(-1.96422e-06 6.88249e-07 0)
(-2.50102e-06 7.97418e-07 0)
(-3.12502e-06 7.23239e-07 0)
(-3.51644e-06 6.28964e-07 0)
(-3.4544e-06 4.64183e-07 0)
(-2.99693e-06 3.04527e-07 0)
(-2.02179e-06 1.21063e-07 0)
(-5.80452e-07 -4.73239e-08 0)
(1.38863e-06 -2.20858e-07 0)
(3.83349e-06 -3.77431e-07 0)
(6.7827e-06 -5.31036e-07 0)
(1.0187e-05 -6.69343e-07 0)
(1.40547e-05 -8.01701e-07 0)
(1.83398e-05 -9.20849e-07 0)
(2.30389e-05 -1.03269e-06 0)
(2.81105e-05 -1.13357e-06 0)
(3.35429e-05 -1.22686e-06 0)
(3.92988e-05 -1.31091e-06 0)
(4.53611e-05 -1.38726e-06 0)
(5.16968e-05 -1.45572e-06 0)
(5.82851e-05 -1.51666e-06 0)
(6.50965e-05 -1.57068e-06 0)
(7.21079e-05 -1.6174e-06 0)
(7.92929e-05 -1.65789e-06 0)
(8.66271e-05 -1.69142e-06 0)
(9.40866e-05 -1.71925e-06 0)
(0.000101647 -1.74056e-06 0)
(0.000109286 -1.75656e-06 0)
(0.000116979 -1.76649e-06 0)
(0.000124706 -1.77149e-06 0)
(0.000132445 -1.77093e-06 0)
(0.000140175 -1.76579e-06 0)
(0.000147875 -1.75554e-06 0)
(0.000155527 -1.74108e-06 0)
(0.000163111 -1.72194e-06 0)
(0.00017061 -1.69896e-06 0)
(0.000178005 -1.67167e-06 0)
(0.00018528 -1.64094e-06 0)
(0.000192419 -1.60621e-06 0)
(0.000199406 -1.56845e-06 0)
(0.000206227 -1.52699e-06 0)
(0.000212867 -1.48291e-06 0)
(0.000219314 -1.43544e-06 0)
(0.000225555 -1.38572e-06 0)
(0.000231577 -1.33294e-06 0)
(0.000237369 -1.27826e-06 0)
(0.000242922 -1.22088e-06 0)
(0.000248225 -1.16191e-06 0)
(0.000253269 -1.10057e-06 0)
(0.000258045 -1.03795e-06 0)
(0.000262545 -9.73264e-07 0)
(0.000266763 -9.07594e-07 0)
(0.000270692 -8.40151e-07 0)
(0.000274326 -7.72016e-07 0)
(0.000277659 -7.02392e-07 0)
(0.000280687 -6.32351e-07 0)
(0.000283406 -5.61097e-07 0)
(0.000285812 -4.89697e-07 0)
(0.000287902 -4.17366e-07 0)
(0.000289674 -3.45129e-07 0)
(0.000291126 -2.72215e-07 0)
(0.000292257 -1.9963e-07 0)
(0.000293066 -1.26588e-07 0)
(0.000293553 -5.40917e-08 0)
(0.000293719 1.86541e-08 0)
(0.000293563 9.06222e-08 0)
(0.000293088 1.62671e-07 0)
(0.000292296 2.33772e-07 0)
(0.000291187 3.04719e-07 0)
(0.000289767 3.74492e-07 0)
(0.000288036 4.43861e-07 0)
(0.000286 5.11881e-07 0)
(0.000283662 5.7924e-07 0)
(0.000281027 6.45068e-07 0)
(0.000278101 7.09958e-07 0)
(0.000274888 7.73171e-07 0)
(0.000271394 8.35213e-07 0)
(0.000267626 8.95433e-07 0)
(0.000263591 9.54256e-07 0)
(0.000259295 1.01113e-06 0)
(0.000254747 1.06642e-06 0)
(0.000249955 1.11964e-06 0)
(0.000244926 1.17111e-06 0)
(0.000239669 1.22036e-06 0)
(0.000234194 1.26773e-06 0)
(0.00022851 1.31273e-06 0)
(0.000222627 1.35572e-06 0)
(0.000216556 1.39618e-06 0)
(0.000210307 1.43451e-06 0)
(0.000203891 1.4701e-06 0)
(0.00019732 1.50342e-06 0)
(0.000190606 1.53379e-06 0)
(0.000183762 1.5617e-06 0)
(0.0001768 1.5864e-06 0)
(0.000169734 1.60844e-06 0)
(0.000162578 1.627e-06 0)
(0.000155347 1.64265e-06 0)
(0.000148054 1.65454e-06 0)
(0.000140717 1.66326e-06 0)
(0.000133349 1.66789e-06 0)
(0.00012597 1.66908e-06 0)
(0.000118594 1.66584e-06 0)
(0.000111241 1.65883e-06 0)
(0.000103928 1.64702e-06 0)
(9.6675e-05 1.63108e-06 0)
(8.95001e-05 1.60992e-06 0)
(8.24242e-05 1.58422e-06 0)
(7.54676e-05 1.55281e-06 0)
(6.86522e-05 1.51641e-06 0)
(6.19991e-05 1.47374e-06 0)
(5.55317e-05 1.42554e-06 0)
(4.92723e-05 1.37048e-06 0)
(4.32452e-05 1.30931e-06 0)
(3.74738e-05 1.24061e-06 0)
(3.19833e-05 1.16515e-06 0)
(2.67978e-05 1.08148e-06 0)
(2.19427e-05 9.90402e-07 0)
(1.74425e-05 8.90415e-07 0)
(1.33218e-05 7.82427e-07 0)
(9.60466e-06 6.65033e-07 0)
(6.31323e-06 5.39335e-07 0)
(3.46885e-06 4.04206e-07 0)
(1.08863e-06 2.6131e-07 0)
(-8.12389e-07 1.10465e-07 0)
(-2.22768e-06 -4.53384e-08 0)
(-3.15565e-06 -2.04054e-07 0)
(-3.61055e-06 -3.59439e-07 0)
(-3.61774e-06 -5.0419e-07 0)
(-3.22887e-06 -6.2526e-07 0)
(-2.52248e-06 -7.05496e-07 0)
(-1.63284e-06 -7.16393e-07 0)
(-7.68364e-07 -6.08073e-07 0)
(-1.40346e-07 -3.06697e-07 0)
(-4.72797e-07 1.70118e-06 0)
(-1.2924e-06 2.61343e-06 0)
(-2.39798e-06 2.99226e-06 0)
(-3.06919e-06 2.68581e-06 0)
(-3.15153e-06 1.67224e-06 0)
(-2.40932e-06 3.29708e-07 0)
(-6.54412e-07 -1.33891e-06 0)
(2.1909e-06 -3.12741e-06 0)
(6.22598e-06 -5.04397e-06 0)
(1.14608e-05 -6.97234e-06 0)
(1.79362e-05 -8.92271e-06 0)
(2.5626e-05 -1.08263e-05 0)
(3.45336e-05 -1.26927e-05 0)
(4.46097e-05 -1.44814e-05 0)
(5.58309e-05 -1.62003e-05 0)
(6.81361e-05 -1.78256e-05 0)
(8.14851e-05 -1.93634e-05 0)
(9.58103e-05 -2.08006e-05 0)
(0.00011106 -2.21415e-05 0)
(0.000127164 -2.33794e-05 0)
(0.000144064 -2.45173e-05 0)
(0.00016169 -2.55527e-05 0)
(0.000179979 -2.64875e-05 0)
(0.000198863 -2.73219e-05 0)
(0.000218278 -2.8057e-05 0)
(0.000238157 -2.86946e-05 0)
(0.000258435 -2.92356e-05 0)
(0.000279049 -2.96829e-05 0)
(0.000299935 -3.00371e-05 0)
(0.000321032 -3.03017e-05 0)
(0.000342278 -3.04776e-05 0)
(0.000363616 -3.05683e-05 0)
(0.000384987 -3.05751e-05 0)
(0.000406334 -3.05015e-05 0)
(0.000427603 -3.03491e-05 0)
(0.000448741 -3.01214e-05 0)
(0.000469697 -2.98199e-05 0)
(0.00049042 -2.94486e-05 0)
(0.000510864 -2.90089e-05 0)
(0.000530981 -2.85046e-05 0)
(0.000550728 -2.79373e-05 0)
(0.000570061 -2.7311e-05 0)
(0.000588941 -2.66272e-05 0)
(0.000607329 -2.58899e-05 0)
(0.000625188 -2.51005e-05 0)
(0.000642482 -2.42632e-05 0)
(0.000659178 -2.33793e-05 0)
(0.000675246 -2.24529e-05 0)
(0.000690655 -2.14854e-05 0)
(0.000705379 -2.04807e-05 0)
(0.000719391 -1.94402e-05 0)
(0.000732667 -1.83679e-05 0)
(0.000745186 -1.72649e-05 0)
(0.000756926 -1.61352e-05 0)
(0.00076787 -1.49799e-05 0)
(0.000778 -1.38029e-05 0)
(0.000787301 -1.26052e-05 0)
(0.000795759 -1.13906e-05 0)
(0.000803363 -1.01601e-05 0)
(0.000810103 -8.91749e-06 0)
(0.000815971 -7.6636e-06 0)
(0.000820958 -6.40206e-06 0)
(0.00082506 -5.13371e-06 0)
(0.000828272 -3.86206e-06 0)
(0.000830593 -2.58785e-06 0)
(0.000832022 -1.31449e-06 0)
(0.000832559 -4.26989e-08 0)
(0.000832206 1.22428e-06 0)
(0.000830966 2.48575e-06 0)
(0.000828844 3.73854e-06 0)
(0.000825847 4.98199e-06 0)
(0.000821981 6.21298e-06 0)
(0.000817256 7.43087e-06 0)
(0.000811682 8.63267e-06 0)
(0.000805269 9.81772e-06 0)
(0.00079803 1.09832e-05 0)
(0.00078998 1.21283e-05 0)
(0.000781133 1.32504e-05 0)
(0.000771505 1.43488e-05 0)
(0.000761114 1.54209e-05 0)
(0.000749977 1.6466e-05 0)
(0.000738116 1.74815e-05 0)
(0.000725551 1.84668e-05 0)
(0.000712303 1.94194e-05 0)
(0.000698396 2.03386e-05 0)
(0.000683854 2.12219e-05 0)
(0.000668703 2.20686e-05 0)
(0.00065297 2.28763e-05 0)
(0.000636681 2.36441e-05 0)
(0.000619867 2.43696e-05 0)
(0.000602557 2.50521e-05 0)
(0.000584782 2.56889e-05 0)
(0.000566576 2.62791e-05 0)
(0.000547971 2.68202e-05 0)
(0.000529004 2.73113e-05 0)
(0.000509709 2.77494e-05 0)
(0.000490126 2.81338e-05 0)
(0.000470292 2.84614e-05 0)
(0.000450248 2.87313e-05 0)
(0.000430036 2.89405e-05 0)
(0.000409698 2.90878e-05 0)
(0.000389279 2.91701e-05 0)
(0.000368824 2.91865e-05 0)
(0.00034838 2.91334e-05 0)
(0.000327997 2.90098e-05 0)
(0.000307723 2.88124e-05 0)
(0.000287611 2.85399e-05 0)
(0.000267713 2.81889e-05 0)
(0.000248083 2.77583e-05 0)
(0.000228776 2.72444e-05 0)
(0.000209851 2.66463e-05 0)
(0.000191363 2.59604e-05 0)
(0.000173372 2.51861e-05 0)
(0.000155939 2.43198e-05 0)
(0.000139123 2.33614e-05 0)
(0.000122986 2.23078e-05 0)
(0.00010759 2.11596e-05 0)
(9.29944e-05 1.99147e-05 0)
(7.92605e-05 1.8575e-05 0)
(6.6447e-05 1.714e-05 0)
(5.46104e-05 1.5614e-05 0)
(4.38041e-05 1.39996e-05 0)
(3.40764e-05 1.2305e-05 0)
(2.54701e-05 1.05386e-05 0)
(1.8018e-05 8.71582e-06 0)
(1.17435e-05 6.85509e-06 0)
(6.65315e-06 4.98543e-06 0)
(2.73678e-06 3.14355e-06 0)
(-4.36545e-08 1.38269e-06 0)
(-1.75387e-06 -2.27027e-07 0)
(-2.50236e-06 -1.58936e-06 0)
(-2.44503e-06 -2.57684e-06 0)
(-1.81525e-06 -3.02079e-06 0)
(-9.39586e-07 -2.70049e-06 0)
(-1.5374e-07 -1.34091e-06 0)
(-3.23707e-07 2.88546e-06 0)
(-7.27089e-07 4.33686e-06 0)
(-9.49552e-07 3.87394e-06 0)
(-2.66287e-07 2.09747e-06 0)
(1.50189e-06 -8.05825e-07 0)
(4.57681e-06 -4.48047e-06 0)
(9.13811e-06 -8.74032e-06 0)
(1.53126e-05 -1.33528e-05 0)
(2.31959e-05 -1.82103e-05 0)
(3.28311e-05 -2.31669e-05 0)
(4.42521e-05 -2.8159e-05 0)
(5.74456e-05 -3.30941e-05 0)
(7.24016e-05 -3.7935e-05 0)
(8.90702e-05 -4.26234e-05 0)
(0.00010741 -4.71379e-05 0)
(0.000127348 -5.14422e-05 0)
(0.000148821 -5.55252e-05 0)
(0.000171741 -5.9365e-05 0)
(0.000196031 -6.29567e-05 0)
(0.000221596 -6.62878e-05 0)
(0.000248346 -6.93575e-05 0)
(0.000276184 -7.21596e-05 0)
(0.000305016 -7.46957e-05 0)
(0.000334743 -7.69638e-05 0)
(0.000365267 -7.89672e-05 0)
(0.000396491 -8.07068e-05 0)
(0.000428316 -8.21868e-05 0)
(0.000460648 -8.34103e-05 0)
(0.00049339 -8.43823e-05 0)
(0.000526449 -8.51074e-05 0)
(0.000559733 -8.55911e-05 0)
(0.000593151 -8.5839e-05 0)
(0.000626615 -8.58572e-05 0)
(0.000660038 -8.56521e-05 0)
(0.000693338 -8.523e-05 0)
(0.00072643 -8.45978e-05 0)
(0.000759238 -8.37623e-05 0)
(0.000791683 -8.27307e-05 0)
(0.000823693 -8.151e-05 0)
(0.000855194 -8.01075e-05 0)
(0.00088612 -7.85307e-05 0)
(0.000916403 -7.67868e-05 0)
(0.000945981 -7.48834e-05 0)
(0.000974792 -7.28279e-05 0)
(0.00100278 -7.0628e-05 0)
(0.00102989 -6.82911e-05 0)
(0.00105607 -6.58247e-05 0)
(0.00108127 -6.32362e-05 0)
(0.00110544 -6.05333e-05 0)
(0.00112855 -5.77231e-05 0)
(0.00115055 -5.48132e-05 0)
(0.00117139 -5.18106e-05 0)
(0.00119106 -4.87227e-05 0)
(0.00120951 -4.55566e-05 0)
(0.00122672 -4.23192e-05 0)
(0.00124266 -3.90176e-05 0)
(0.0012573 -3.56584e-05 0)
(0.00127062 -3.22486e-05 0)
(0.00128261 -2.87948e-05 0)
(0.00129325 -2.53034e-05 0)
(0.00130252 -2.1781e-05 0)
(0.00131041 -1.82339e-05 0)
(0.00131692 -1.46681e-05 0)
(0.00132203 -1.109e-05 0)
(0.00132574 -7.50537e-06 0)
(0.00132806 -3.92013e-06 0)
(0.00132898 -3.40094e-07 0)
(0.0013285 3.22916e-06 0)
(0.00132663 6.78198e-06 0)
(0.00132338 1.0313e-05 0)
(0.00131875 1.38168e-05 0)
(0.00131276 1.7288e-05 0)
(0.00130542 2.07214e-05 0)
(0.00129674 2.4112e-05 0)
(0.00128675 2.74546e-05 0)
(0.00127545 3.07443e-05 0)
(0.00126288 3.39761e-05 0)
(0.00124906 3.71452e-05 0)
(0.00123401 4.02469e-05 0)
(0.00121776 4.32762e-05 0)
(0.00120033 4.62287e-05 0)
(0.00118176 4.90996e-05 0)
(0.00116209 5.18844e-05 0)
(0.00114134 5.45782e-05 0)
(0.00111955 5.71767e-05 0)
(0.00109676 5.96751e-05 0)
(0.00107301 6.20689e-05 0)
(0.00104834 6.43534e-05 0)
(0.0010228 6.6524e-05 0)
(0.000996429 6.85759e-05 0)
(0.000969277 7.05044e-05 0)
(0.000941392 7.23046e-05 0)
(0.000912826 7.39717e-05 0)
(0.000883632 7.55006e-05 0)
(0.000853866 7.68864e-05 0)
(0.000823584 7.81239e-05 0)
(0.000792846 7.92079e-05 0)
(0.000761711 8.01331e-05 0)
(0.000730244 8.08941e-05 0)
(0.00069851 8.14854e-05 0)
(0.000666575 8.19015e-05 0)
(0.000634507 8.21368e-05 0)
(0.00060238 8.21856e-05 0)
(0.000570265 8.20421e-05 0)
(0.000538238 8.17007e-05 0)
(0.000506375 8.11556e-05 0)
(0.000474756 8.04011e-05 0)
(0.000443462 7.94314e-05 0)
(0.000412575 7.82412e-05 0)
(0.000382179 7.6825e-05 0)
(0.000352361 7.51778e-05 0)
(0.000323207 7.32949e-05 0)
(0.000294806 7.1172e-05 0)
(0.000267247 6.88057e-05 0)
(0.000240619 6.61932e-05 0)
(0.000215011 6.33329e-05 0)
(0.000190513 6.02248e-05 0)
(0.000167211 5.68705e-05 0)
(0.000145192 5.32739e-05 0)
(0.000124537 4.94421e-05 0)
(0.000105325 4.53858e-05 0)
(8.76266e-05 4.11204e-05 0)
(7.15068e-05 3.66676e-05 0)
(5.702e-05 3.20569e-05 0)
(4.42071e-05 2.73276e-05 0)
(3.30949e-05 2.25321e-05 0)
(2.36885e-05 1.77387e-05 0)
(1.59715e-05 1.30367e-05 0)
(9.89542e-06 8.54183e-06 0)
(5.37988e-06 4.403e-06 0)
(2.30044e-06 8.11499e-07 0)
(4.84456e-07 -1.98968e-06 0)
(-3.0739e-07 -3.692e-06 0)
(-3.88053e-07 -3.9035e-06 0)
(-9.90006e-08 -2.13317e-06 0)
(-1.68231e-07 3.30279e-06 0)
(2.25917e-07 4.00614e-06 0)
(1.50286e-06 1.72257e-06 0)
(4.20647e-06 -2.4848e-06 0)
(8.52179e-06 -8.2529e-06 0)
(1.46257e-05 -1.52035e-05 0)
(2.26763e-05 -2.30301e-05 0)
(3.27945e-05 -3.14418e-05 0)
(4.5066e-05 -4.02331e-05 0)
(5.95361e-05 -4.9208e-05 0)
(7.62301e-05 -5.82351e-05 0)
(9.51352e-05 -6.71838e-05 0)
(0.00011623 -7.597e-05 0)
(0.000139462 -8.45072e-05 0)
(0.000164773 -9.27424e-05 0)
(0.000192083 -0.000100619 0)
(0.000221309 -0.000108105 0)
(0.00025235 -0.000115165 0)
(0.000285107 -0.000121781 0)
(0.000319468 -0.000127931 0)
(0.00035532 -0.000133607 0)
(0.000392545 -0.000138798 0)
(0.000431021 -0.000143501 0)
(0.000470628 -0.000147713 0)
(0.000511242 -0.000151437 0)
(0.00055274 -0.000154673 0)
(0.000594997 -0.000157427 0)
(0.000637893 -0.000159703 0)
(0.000681304 -0.00016151 0)
(0.000725111 -0.000162855 0)
(0.000769196 -0.000163748 0)
(0.000813442 -0.000164197 0)
(0.000857735 -0.000164215 0)
(0.000901964 -0.000163811 0)
(0.00094602 -0.000162998 0)
(0.000989796 -0.000161788 0)
(0.00103319 -0.000160193 0)
(0.0010761 -0.000158227 0)
(0.00111844 -0.000155902 0)
(0.0011601 -0.000153231 0)
(0.001201 -0.000150229 0)
(0.00124106 -0.00014691 0)
(0.00128018 -0.000143286 0)
(0.00131829 -0.000139373 0)
(0.00135532 -0.000135184 0)
(0.00139119 -0.000130733 0)
(0.00142584 -0.000126034 0)
(0.0014592 -0.000121102 0)
(0.0014912 -0.00011595 0)
(0.0015218 -0.000110592 0)
(0.00155093 -0.000105043 0)
(0.00157855 -9.93156e-05 0)
(0.00160461 -9.34238e-05 0)
(0.00162907 -8.7381e-05 0)
(0.00165189 -8.12006e-05 0)
(0.00167303 -7.48959e-05 0)
(0.00169247 -6.84797e-05 0)
(0.00171016 -6.1965e-05 0)
(0.00172609 -5.53644e-05 0)
(0.00174024 -4.86905e-05 0)
(0.00175258 -4.19554e-05 0)
(0.0017631 -3.51713e-05 0)
(0.00177179 -2.835e-05 0)
(0.00177864 -2.15032e-05 0)
(0.00178364 -1.46425e-05 0)
(0.00178679 -7.77902e-06 0)
(0.00178809 -9.23949e-07 0)
(0.00178754 5.91195e-06 0)
(0.00178515 1.27178e-05 0)
(0.00178092 1.94833e-05 0)
(0.00177488 2.61978e-05 0)
(0.00176703 3.28514e-05 0)
(0.00175738 3.94339e-05 0)
(0.00174597 4.59354e-05 0)
(0.00173282 5.23462e-05 0)
(0.00171794 5.86567e-05 0)
(0.00170137 6.48574e-05 0)
(0.00168313 7.09389e-05 0)
(0.00166326 7.6892e-05 0)
(0.0016418 8.27075e-05 0)
(0.00161878 8.83762e-05 0)
(0.00159425 9.38892e-05 0)
(0.00156824 9.92373e-05 0)
(0.0015408 0.000104412 0)
(0.00151199 0.000109403 0)
(0.00148184 0.000114204 0)
(0.00145042 0.000118803 0)
(0.00141777 0.000123193 0)
(0.00138397 0.000127364 0)
(0.00134906 0.000131308 0)
(0.00131311 0.000135014 0)
(0.00127618 0.000138475 0)
(0.00123834 0.000141679 0)
(0.00119967 0.000144619 0)
(0.00116024 0.000147285 0)
(0.00112011 0.000149666 0)
(0.00107938 0.000151753 0)
(0.00103811 0.000153536 0)
(0.000996394 0.000155005 0)
(0.000954315 0.000156151 0)
(0.000911962 0.000156962 0)
(0.000869424 0.000157428 0)
(0.000826794 0.00015754 0)
(0.000784169 0.000157288 0)
(0.000741646 0.00015666 0)
(0.000699324 0.000155647 0)
(0.000657306 0.000154239 0)
(0.000615697 0.000152426 0)
(0.000574603 0.0001502 0)
(0.000534131 0.000147551 0)
(0.000494392 0.000144472 0)
(0.000455496 0.000140956 0)
(0.000417556 0.000136996 0)
(0.000380682 0.000132589 0)
(0.000344987 0.000127732 0)
(0.000310582 0.000122424 0)
(0.000277577 0.00011667 0)
(0.000246079 0.000110474 0)
(0.000216192 0.000103847 0)
(0.000188016 9.68068e-05 0)
(0.000161644 8.93755e-05 0)
(0.000137163 8.15851e-05 0)
(0.000114647 7.34772e-05 0)
(9.41624e-05 6.51071e-05 0)
(7.57573e-05 5.65453e-05 0)
(5.94657e-05 4.78823e-05 0)
(4.52979e-05 3.92323e-05 0)
(3.32433e-05 3.07397e-05 0)
(2.32595e-05 2.25845e-05 0)
(1.52754e-05 1.49915e-05 0)
(9.17956e-06 8.23914e-06 0)
(4.8222e-06 2.67045e-06 0)
(2.00494e-06 -1.29169e-06 0)
(4.90531e-07 -3.12402e-06 0)
(-1.57156e-08 -2.18594e-06 0)
(2.01539e-09 2.63198e-06 0)
(1.33866e-06 1.13303e-06 0)
(4.3196e-06 -4.21623e-06 0)
(9.34301e-06 -1.19846e-05 0)
(1.65427e-05 -2.16631e-05 0)
(2.60372e-05 -3.28456e-05 0)
(3.79453e-05 -4.51465e-05 0)
(5.23549e-05 -5.82207e-05 0)
(6.93276e-05 -7.1784e-05 0)
(8.88905e-05 -8.55915e-05 0)
(0.000111053 -9.94486e-05 0)
(0.00013579 -0.000113186 0)
(0.000163069 -0.000126673 0)
(0.000192824 -0.000139793 0)
(0.000224986 -0.000152459 0)
(0.000259462 -0.000164592 0)
(0.000296156 -0.000176136 0)
(0.000334953 -0.000187039 0)
(0.000375737 -0.000197267 0)
(0.00041838 -0.000206788 0)
(0.000462752 -0.000215583 0)
(0.000508716 -0.000223636 0)
(0.000556132 -0.000230937 0)
(0.000604859 -0.00023748 0)
(0.000654753 -0.000243264 0)
(0.00070567 -0.000248292 0)
(0.000757464 -0.000252567 0)
(0.000809993 -0.000256098 0)
(0.000863111 -0.000258894 0)
(0.00091668 -0.000260966 0)
(0.000970556 -0.000262327 0)
(0.0010246 -0.000262991 0)
(0.00107869 -0.000262975 0)
(0.00113267 -0.000262295 0)
(0.00118643 -0.000260967 0)
(0.00123984 -0.000259012 0)
(0.00129276 -0.000256448 0)
(0.0013451 -0.000253295 0)
(0.00139672 -0.000249574 0)
(0.00144751 -0.000245304 0)
(0.00149738 -0.000240508 0)
(0.00154621 -0.000235206 0)
(0.00159391 -0.00022942 0)
(0.00164037 -0.000223173 0)
(0.00168552 -0.000216486 0)
(0.00172925 -0.000209381 0)
(0.00177149 -0.000201881 0)
(0.00181217 -0.000194007 0)
(0.0018512 -0.000185782 0)
(0.00188852 -0.000177228 0)
(0.00192406 -0.000168366 0)
(0.00195777 -0.000159219 0)
(0.00198957 -0.000149807 0)
(0.00201944 -0.000140152 0)
(0.0020473 -0.000130276 0)
(0.00207313 -0.0001202 0)
(0.00209687 -0.000109943 0)
(0.00211851 -9.95273e-05 0)
(0.00213799 -8.8972e-05 0)
(0.00215531 -7.82972e-05 0)
(0.00217043 -6.75227e-05 0)
(0.00218333 -5.66675e-05 0)
(0.002194 -4.57508e-05 0)
(0.00220243 -3.47911e-05 0)
(0.00220861 -2.3807e-05 0)
(0.00221253 -1.28163e-05 0)
(0.0022142 -1.83699e-06 0)
(0.00221362 9.1136e-06 0)
(0.00221079 2.00182e-05 0)
(0.00220573 3.08599e-05 0)
(0.00219845 4.16221e-05 0)
(0.00218896 5.22884e-05 0)
(0.00217729 6.28426e-05 0)
(0.00216346 7.32689e-05 0)
(0.00214749 8.35515e-05 0)
(0.00212943 9.3675e-05 0)
(0.00210929 0.000103624 0)
(0.00208712 0.000113384 0)
(0.00206296 0.000122938 0)
(0.00203685 0.000132274 0)
(0.00200884 0.000141376 0)
(0.00197897 0.000150228 0)
(0.0019473 0.000158818 0)
(0.00191388 0.00016713 0)
(0.00187878 0.000175149 0)
(0.00184204 0.000182862 0)
(0.00180374 0.000190254 0)
(0.00176394 0.00019731 0)
(0.00172272 0.000204016 0)
(0.00168014 0.000210357 0)
(0.00163629 0.000216318 0)
(0.00159124 0.000221886 0)
(0.00154507 0.000227044 0)
(0.00149787 0.000231778 0)
(0.00144973 0.000236072 0)
(0.00140073 0.000239912 0)
(0.00135098 0.000243283 0)
(0.00130057 0.000246167 0)
(0.0012496 0.000248551 0)
(0.00119817 0.000250418 0)
(0.00114639 0.000251753 0)
(0.00109437 0.000252541 0)
(0.00104222 0.000252765 0)
(0.000990054 0.00025241 0)
(0.000937987 0.000251461 0)
(0.00088614 0.000249904 0)
(0.000834635 0.000247724 0)
(0.000783597 0.000244907 0)
(0.000733151 0.00024144 0)
(0.000683425 0.000237312 0)
(0.000634548 0.000232512 0)
(0.00058665 0.000227032 0)
(0.000539862 0.000220864 0)
(0.000494314 0.000214004 0)
(0.000450136 0.000206452 0)
(0.000407457 0.000198209 0)
(0.000366404 0.000189284 0)
(0.000327099 0.00017969 0)
(0.000289663 0.000169446 0)
(0.000254209 0.000158581 0)
(0.000220844 0.000147132 0)
(0.000189667 0.000135151 0)
(0.000160765 0.0001227 0)
(0.000134216 0.000109863 0)
(0.000110079 9.67429e-05 0)
(8.84019e-05 8.34674e-05 0)
(6.92083e-05 7.01948e-05 0)
(5.25038e-05 5.71193e-05 0)
(3.82669e-05 4.44779e-05 0)
(2.64523e-05 3.25581e-05 0)
(1.69822e-05 2.17075e-05 0)
(9.75033e-06 1.23438e-05 0)
(4.62571e-06 4.96949e-06 0)
(1.47688e-06 1.8925e-07 0)
(6.99239e-08 -1.28112e-06 0)
(1.43558e-07 8.26714e-07 0)
(2.42843e-06 -4.54678e-06 0)
(7.1534e-06 -1.4316e-05 0)
(1.45897e-05 -2.68512e-05 0)
(2.47919e-05 -4.15366e-05 0)
(3.78153e-05 -5.7934e-05 0)
(5.37282e-05 -7.561e-05 0)
(7.25744e-05 -9.41729e-05 0)
(9.43809e-05 -0.000113284 0)
(0.000119144 -0.000132652 0)
(0.00014685 -0.000152035 0)
(0.000177453 -0.000171223 0)
(0.000210902 -0.000190044 0)
(0.000247115 -0.000208353 0)
(0.000286008 -0.000226028 0)
(0.000327474 -0.000242969 0)
(0.000371401 -0.000259095 0)
(0.000417662 -0.000274336 0)
(0.000466124 -0.000288641 0)
(0.000516646 -0.000301966 0)
(0.000569081 -0.000314281 0)
(0.000623277 -0.00032556 0)
(0.000679078 -0.000335788 0)
(0.000736325 -0.000344955 0)
(0.000794857 -0.000353057 0)
(0.000854513 -0.000360094 0)
(0.00091513 -0.000366071 0)
(0.000976546 -0.000370996 0)
(0.0010386 -0.000374881 0)
(0.00110113 -0.000377741 0)
(0.00116398 -0.000379592 0)
(0.00122699 -0.000380453 0)
(0.00129002 -0.000380346 0)
(0.0013529 -0.000379294 0)
(0.00141549 -0.00037732 0)
(0.00147766 -0.000374449 0)
(0.00153925 -0.000370709 0)
(0.00160013 -0.000366127 0)
(0.00166017 -0.000360732 0)
(0.00171924 -0.000354551 0)
(0.00177722 -0.000347616 0)
(0.001834 -0.000339957 0)
(0.00188944 -0.000331603 0)
(0.00194346 -0.000322586 0)
(0.00199593 -0.000312937 0)
(0.00204677 -0.000302687 0)
(0.00209588 -0.000291868 0)
(0.00214316 -0.000280512 0)
(0.00218853 -0.000268648 0)
(0.00223192 -0.00025631 0)
(0.00227324 -0.000243528 0)
(0.00231244 -0.000230333 0)
(0.00234943 -0.000216756 0)
(0.00238416 -0.000202828 0)
(0.00241658 -0.000188579 0)
(0.00244663 -0.000174038 0)
(0.00247428 -0.000159236 0)
(0.00249947 -0.000144202 0)
(0.00252217 -0.000128965 0)
(0.00254235 -0.000113554 0)
(0.00255999 -9.79956e-05 0)
(0.00257505 -8.23188e-05 0)
(0.00258752 -6.65507e-05 0)
(0.00259739 -5.07182e-05 0)
(0.00260465 -3.48477e-05 0)
(0.00260929 -1.89653e-05 0)
(0.00261132 -3.09667e-06 0)
(0.00261072 1.27329e-05 0)
(0.00260752 2.84986e-05 0)
(0.00260173 4.4176e-05 0)
(0.00259335 5.97409e-05 0)
(0.00258241 7.51696e-05 0)
(0.00256893 9.04388e-05 0)
(0.00255294 0.000105525 0)
(0.00253447 0.000120406 0)
(0.00251355 0.00013506 0)
(0.00249023 0.000149463 0)
(0.00246454 0.000163594 0)
(0.00243653 0.000177431 0)
(0.00240625 0.000190953 0)
(0.00237375 0.000204139 0)
(0.00233909 0.000216966 0)
(0.00230232 0.000229414 0)
(0.00226352 0.000241461 0)
(0.00222275 0.000253088 0)
(0.00218008 0.000264272 0)
(0.00213558 0.000274993 0)
(0.00208934 0.000285229 0)
(0.00204142 0.000294961 0)
(0.00199192 0.000304166 0)
(0.00194093 0.000312823 0)
(0.00188853 0.000320912 0)
(0.00183482 0.000328411 0)
(0.0017799 0.000335297 0)
(0.00172387 0.000341551 0)
(0.00166683 0.00034715 0)
(0.0016089 0.000352072 0)
(0.00155018 0.000356296 0)
(0.00149079 0.000359799 0)
(0.00143084 0.000362561 0)
(0.00137047 0.000364558 0)
(0.00130979 0.00036577 0)
(0.00124893 0.000366176 0)
(0.00118802 0.000365754 0)
(0.0011272 0.000364484 0)
(0.0010666 0.000362346 0)
(0.00100636 0.000359321 0)
(0.000946616 0.000355392 0)
(0.000887515 0.000350541 0)
(0.000829201 0.000344755 0)
(0.000771819 0.00033802 0)
(0.000715514 0.000330326 0)
(0.000660433 0.000321667 0)
(0.000606722 0.00031204 0)
(0.000554528 0.000301444 0)
(0.000503992 0.000289888 0)
(0.000455256 0.000277385 0)
(0.000408459 0.000263955 0)
(0.000363732 0.000249628 0)
(0.000321204 0.000234445 0)
(0.000280995 0.000218461 0)
(0.000243218 0.000201744 0)
(0.000207974 0.000184381 0)
(0.000175355 0.00016648 0)
(0.000145439 0.000148174 0)
(0.00011829 0.000129625 0)
(9.3954e-05 0.000111029 0)
(7.24619e-05 9.26227e-05 0)
(5.38224e-05 7.4687e-05 0)
(3.80276e-05 5.75577e-05 0)
(2.50438e-05 4.16316e-05 0)
(1.48209e-05 2.73765e-05 0)
(7.30379e-06 1.53423e-05 0)
(2.47142e-06 6.17517e-06 0)
(1.53036e-07 6.13763e-07 0)
(2.49577e-07 -2.04571e-06 0)
(3.43481e-06 -1.30181e-05 0)
(9.85305e-06 -2.86248e-05 0)
(1.96762e-05 -4.71812e-05 0)
(3.28677e-05 -6.80041e-05 0)
(4.9418e-05 -9.06271e-05 0)
(6.93406e-05 -0.000114588 0)
(9.26318e-05 -0.00013946 0)
(0.000119277 -0.000164869 0)
(0.000149238 -0.000190486 0)
(0.000182468 -0.000216032 0)
(0.000218898 -0.000241263 0)
(0.000258451 -0.000265975 0)
(0.000301027 -0.000289992 0)
(0.000346522 -0.000313166 0)
(0.000394812 -0.000335372 0)
(0.000445769 -0.000356506 0)
(0.00049925 -0.000376484 0)
(0.000555108 -0.000395234 0)
(0.000613185 -0.000412703 0)
(0.000673321 -0.000428845 0)
(0.000735348 -0.00044363 0)
(0.000799094 -0.000457033 0)
(0.000864387 -0.00046904 0)
(0.00093105 -0.000479642 0)
(0.000998907 -0.000488839 0)
(0.00106778 -0.000496635 0)
(0.00113749 -0.000503039 0)
(0.00120786 -0.000508065 0)
(0.00127871 -0.00051173 0)
(0.00134987 -0.000514056 0)
(0.00142118 -0.000515066 0)
(0.00149245 -0.000514787 0)
(0.00156353 -0.000513248 0)
(0.00163425 -0.000510481 0)
(0.00170446 -0.000506517 0)
(0.00177399 -0.000501392 0)
(0.00184271 -0.000495142 0)
(0.00191045 -0.000487804 0)
(0.00197709 -0.000479416 0)
(0.00204248 -0.000470016 0)
(0.0021065 -0.000459646 0)
(0.00216901 -0.000448345 0)
(0.0022299 -0.000436154 0)
(0.00228905 -0.000423115 0)
(0.00234634 -0.000409269 0)
(0.00240168 -0.000394657 0)
(0.00245497 -0.000379323 0)
(0.0025061 -0.000363306 0)
(0.002555 -0.00034665 0)
(0.00260157 -0.000329396 0)
(0.00264573 -0.000311585 0)
(0.00268743 -0.000293259 0)
(0.00272658 -0.000274458 0)
(0.00276312 -0.000255223 0)
(0.00279701 -0.000235594 0)
(0.00282818 -0.000215611 0)
(0.0028566 -0.000195313 0)
(0.00288221 -0.000174739 0)
(0.00290499 -0.000153927 0)
(0.00292491 -0.000132915 0)
(0.00294193 -0.000111741 0)
(0.00295604 -9.04406e-05 0)
(0.00296722 -6.90508e-05 0)
(0.00297547 -4.7607e-05 0)
(0.00298076 -2.61444e-05 0)
(0.00298312 -4.69738e-06 0)
(0.00298252 1.66998e-05 0)
(0.00297899 3.80136e-05 0)
(0.00297254 5.9211e-05 0)
(0.00296318 8.02596e-05 0)
(0.00295094 0.000101127 0)
(0.00293584 0.000121782 0)
(0.0029179 0.000142193 0)
(0.00289717 0.000162329 0)
(0.00287368 0.00018216 0)
(0.00284748 0.000201656 0)
(0.00281861 0.000220788 0)
(0.00278712 0.000239524 0)
(0.00275307 0.000257837 0)
(0.00271652 0.000275697 0)
(0.00267752 0.000293076 0)
(0.00263615 0.000309944 0)
(0.00259248 0.000326274 0)
(0.00254658 0.000342036 0)
(0.00249852 0.000357203 0)
(0.0024484 0.000371745 0)
(0.0023963 0.000385636 0)
(0.00234231 0.000398845 0)
(0.00228652 0.000411346 0)
(0.00222903 0.000423108 0)
(0.00216994 0.000434105 0)
(0.00210936 0.000444307 0)
(0.00204739 0.000453686 0)
(0.00198416 0.000462212 0)
(0.00191977 0.000469857 0)
(0.00185435 0.000476593 0)
(0.00178802 0.00048239 0)
(0.00172091 0.000487219 0)
(0.00165315 0.000491054 0)
(0.00158488 0.000493863 0)
(0.00151622 0.000495622 0)
(0.00144733 0.0004963 0)
(0.00137835 0.000495872 0)
(0.00130943 0.000494312 0)
(0.0012407 0.000491595 0)
(0.00117234 0.000487697 0)
(0.00110448 0.000482596 0)
(0.0010373 0.000476273 0)
(0.000970936 0.000468709 0)
(0.000905561 0.000459891 0)
(0.000841332 0.000449807 0)
(0.000778409 0.00043845 0)
(0.000716951 0.000425818 0)
(0.000657118 0.000411916 0)
(0.000599067 0.000396755 0)
(0.000542952 0.000380354 0)
(0.000488925 0.000362742 0)
(0.000437133 0.000343959 0)
(0.000387717 0.000324058 0)
(0.000340813 0.000303108 0)
(0.000296549 0.000281195 0)
(0.000255044 0.000258427 0)
(0.000216409 0.000234934 0)
(0.000180741 0.000210874 0)
(0.000148128 0.000186438 0)
(0.000118644 0.000161851 0)
(9.23496e-05 0.000137382 0)
(6.9292e-05 0.000113345 0)
(4.95054e-05 9.01086e-05 0)
(3.30064e-05 6.8101e-05 0)
(1.98027e-05 4.78186e-05 0)
(9.91576e-06 2.98354e-05 0)
(3.43155e-06 1.48104e-05 0)
(2.30023e-07 3.47333e-06 0)
(3.29425e-07 -5.87038e-06 0)
(4.35218e-06 -2.41183e-05 0)
(1.23731e-05 -4.69926e-05 0)
(2.4494e-05 -7.28415e-05 0)
(4.05876e-05 -0.000100947 0)
(6.05806e-05 -0.000130823 0)
(8.44322e-05 -0.000161989 0)
(0.000112091 -0.000194 0)
(0.0001435 -0.000226453 0)
(0.000178581 -0.000258997 0)
(0.000217254 -0.000291322 0)
(0.00025942 -0.00032316 0)
(0.000304975 -0.000354278 0)
(0.000353795 -0.000384476 0)
(0.000405756 -0.000413582 0)
(0.000460711 -0.000441451 0)
(0.000518516 -0.00046796 0)
(0.000579009 -0.000493006 0)
(0.000642027 -0.000516504 0)
(0.000707397 -0.000538388 0)
(0.000774943 -0.000558601 0)
(0.000844482 -0.000577104 0)
(0.000915828 -0.000593866 0)
(0.000988794 -0.000608867 0)
(0.00106319 -0.000622095 0)
(0.00113882 -0.000633549 0)
(0.0012155 -0.000643231 0)
(0.00129303 -0.000651152 0)
(0.00137122 -0.000657328 0)
(0.00144989 -0.000661779 0)
(0.00152885 -0.00066453 0)
(0.0016079 -0.000665611 0)
(0.00168687 -0.000665055 0)
(0.00176558 -0.000662896 0)
(0.00184386 -0.000659174 0)
(0.00192153 -0.000653929 0)
(0.00199842 -0.000647204 0)
(0.00207438 -0.000639045 0)
(0.00214924 -0.000629498 0)
(0.00222286 -0.000618611 0)
(0.00229508 -0.000606433 0)
(0.00236576 -0.000593015 0)
(0.00243477 -0.000578407 0)
(0.00250197 -0.000562661 0)
(0.00256724 -0.000545829 0)
(0.00263045 -0.000527965 0)
(0.0026915 -0.00050912 0)
(0.00275028 -0.000489349 0)
(0.00280667 -0.000468704 0)
(0.0028606 -0.000447238 0)
(0.00291196 -0.000425004 0)
(0.00296066 -0.000402056 0)
(0.00300664 -0.000378445 0)
(0.00304982 -0.000354224 0)
(0.00309012 -0.000329444 0)
(0.0031275 -0.000304157 0)
(0.00316188 -0.000278414 0)
(0.00319323 -0.000252264 0)
(0.00322149 -0.000225757 0)
(0.00324663 -0.000198943 0)
(0.00326862 -0.00017187 0)
(0.00328742 -0.000144585 0)
(0.00330301 -0.000117135 0)
(0.00331538 -8.95681e-05 0)
(0.00332452 -6.19284e-05 0)
(0.00333041 -3.42617e-05 0)
(0.00333305 -6.61214e-06 0)
(0.00333246 2.09763e-05 0)
(0.00332863 4.84608e-05 0)
(0.00332158 7.57986e-05 0)
(0.00331132 0.000102948 0)
(0.00329789 0.000129867 0)
(0.0032813 0.000156516 0)
(0.0032616 0.000182855 0)
(0.00323881 0.000208843 0)
(0.00321298 0.000234441 0)
(0.00318416 0.00025961 0)
(0.00315239 0.000284313 0)
(0.00311773 0.000308511 0)
(0.00308025 0.000332166 0)
(0.00303999 0.000355241 0)
(0.00299704 0.000377699 0)
(0.00295147 0.000399503 0)
(0.00290335 0.000420616 0)
(0.00285276 0.000441 0)
(0.00279979 0.000460621 0)
(0.00274452 0.000479441 0)
(0.00268707 0.000497423 0)
(0.00262751 0.000514532 0)
(0.00256595 0.000530731 0)
(0.00250251 0.000545983 0)
(0.00243728 0.000560251 0)
(0.00237039 0.000573501 0)
(0.00230195 0.000585694 0)
(0.00223209 0.000596795 0)
(0.00216093 0.000606766 0)
(0.00208861 0.000615572 0)
(0.00201525 0.000623176 0)
(0.001941 0.000629543 0)
(0.001866 0.000634636 0)
(0.0017904 0.00063842 0)
(0.00171433 0.000640861 0)
(0.00163797 0.000641924 0)
(0.00156146 0.000641577 0)
(0.00148496 0.000639788 0)