/*--------------------------------*- C++ -*----------------------------------*\
  =========                 |
  \\      /  F ield         | OpenFOAM: The Open Source CFD Toolbox
   \\    /   O peration     | Website:  https://openfoam.org
    \\  /    A nd           | Version:  12
     \\/     M anipulation  |
\*---------------------------------------------------------------------------*/
FoamFile
{
    format      ascii;
    class       volScalarField;
    location    "6.5";
    object      epsilon;
}
// * * * * * * * * * * * * * * * * * * * * * * * * * * * * * * * * * * * * * //

dimensions      [0 2 -3 0 0 0 0];

internalField   nonuniform List<scalar> 
18225
(
1.01455e-06
6.86632e-06
1.53073e-05
2.53934e-05
3.66883e-05
4.89144e-05
6.18624e-05
7.53586e-05
8.92512e-05
0.000103404
0.000117697
0.000132024
0.000146295
0.000160441
0.000174414
0.00018819
0.000201772
0.000215194
0.000228519
0.000241846
0.000255307
0.000269071
0.000283349
0.00029839
0.000314486
0.000331977
0.00035125
0.000372743
0.000396949
0.000424421
0.000455772
0.00049168
0.000532891
0.000580222
0.000634561
0.00069687
0.000768183
0.000849606
0.000942315
0.00104755
0.00116662
0.00130087
0.00145172
0.00162061
0.00180904
0.00201853
0.00225061
0.00250685
0.00278881
0.00309806
0.00343617
0.00380469
0.00420516
0.00463906
0.00510785
0.00561293
0.00615562
0.00673718
0.00735875
0.00802139
0.00872605
0.00947356
0.0102646
0.0110999
0.0119799
0.0129048
0.0138752
0.0148909
0.0159523
0.0170592
0.0182114
0.0194089
0.0206513
0.0219382
0.023269
0.0246432
0.0260599
0.0275182
0.0290169
0.0305547
0.0321299
0.0337405
0.035384
0.0370575
0.0387577
0.0404805
0.0422209
0.0439733
0.0457309
0.0474859
0.049229
0.0509496
0.0526352
0.054272
0.0558439
0.0573333
0.0587203
0.0599828
0.0610954
0.0620317
0.0627621
0.063234
0.0634374
0.0634332
0.0631017
0.0624207
0.061379
0.0599689
0.0581884
0.0560438
0.0535515
0.0507391
0.0476457
0.044321
0.0408238
0.0372197
0.0335774
0.029966
0.0264505
0.0230891
0.0199302
0.0170105
0.0143541
0.011973
0.00986776
0.0080294
0.00644127
0.00508157
0.00392488
0.00294506
0.00211707
0.0014195
0.000837974
0.000371842
5.48426e-05
1.91715e-06
3.74006e-06
7.50539e-06
1.21805e-05
1.74666e-05
2.32088e-05
2.92997e-05
3.5654e-05
4.21984e-05
4.8868e-05
5.56055e-05
6.23607e-05
6.90919e-05
7.57659e-05
8.23605e-05
8.88646e-05
9.528e-05
0.000101622
0.000107922
0.000114225
0.000120595
0.000127111
0.000133874
0.000140999
0.000148627
0.000156917
0.000166053
0.000176242
0.000187717
0.000200739
0.000215599
0.000232618
0.000252148
0.000274576
0.000300323
0.000329843
0.000363627
0.000402199
0.000446114
0.000495962
0.000552361
0.000615954
0.000687411
0.000767422
0.000856696
0.000955956
0.00106594
0.00118739
0.00132106
0.0014677
0.00162807
0.00180292
0.00199299
0.002199
0.00242167
0.00266168
0.00291969
0.00319633
0.00349216
0.00380773
0.00414353
0.0045
0.00487752
0.00527644
0.00569703
0.00613953
0.00660411
0.00709092
0.00760003
0.00813149
0.00868528
0.00926135
0.00985959
0.0104798
0.0111218
0.0117853
0.0124699
0.0131751
0.0139003
0.0146448
0.0154077
0.016188
0.0169843
0.0177952
0.0186187
0.0194527
0.0202946
0.0211413
0.0219895
0.0228349
0.0236728
0.0244976
0.0253032
0.0260825
0.0268276
0.0275296
0.0281788
0.0287645
0.0292747
0.0296968
0.0300168
0.0302109
0.030279
0.0302408
0.0300472
0.029688
0.0291589
0.0284573
0.0275835
0.0265417
0.0253404
0.0239933
0.022519
0.0209409
0.0192861
0.0175848
0.0158684
0.0141682
0.012514
0.0109322
0.00944497
0.00806916
0.00681603
0.00569128
0.00469543
0.00382455
0.00307117
0.00242538
0.00187551
0.00140954
0.00101608
0.000685677
0.000413031
0.000203056
0.000103586
4.07308e-06
3.63959e-06
5.77188e-06
8.79461e-06
1.23266e-05
1.62102e-05
2.03526e-05
2.46867e-05
2.91583e-05
3.37209e-05
3.83341e-05
4.29632e-05
4.75792e-05
5.21598e-05
5.66895e-05
6.11612e-05
6.55762e-05
6.99455e-05
7.42903e-05
7.86424e-05
8.30453e-05
8.75545e-05
9.22382e-05
9.71778e-05
0.000102469
0.000108223
0.000114566
0.000121641
0.00012961
0.000138654
0.000148975
0.000160794
0.000174356
0.00018993
0.000207809
0.000228308
0.000251769
0.000278558
0.000309063
0.000343696
0.000382891
0.000427101
0.000476798
0.000532471
0.000594624
0.000663775
0.000740452
0.000825196
0.000918552
0.00102107
0.00113332
0.00125585
0.00138923
0.00153402
0.00169075
0.00185998
0.00204224
0.00223803
0.00244785
0.00267216
0.0029114
0.00316599
0.0034363
0.00372269
0.00402548
0.00434493
0.00468131
0.00503482
0.00540563
0.00579386
0.00619959
0.00662287
0.00706365
0.00752185
0.00799732
0.00848981
0.00899897
0.00952436
0.0100654
0.0106214
0.0111914
0.0117745
0.0123692
0.0129741
0.0135875
0.0142071
0.0148307
0.0154555
0.0160783
0.0166955
0.017303
0.0178964
0.0184705
0.0190198
0.0195382
0.020019
0.0204551
0.0208387
0.0211616
0.0214152
0.0215887
0.021668
0.0216625
0.0215702
0.0213682
0.0210508
0.0206162
0.0200645
0.0193978
0.0186203
0.0177393
0.0167653
0.0157114
0.0145937
0.0134305
0.0122416
0.0110474
0.0098683
0.0087233
0.00762942
0.00660089
0.00564864
0.00478002
0.00399884
0.00330559
0.00269785
0.00217087
0.00171822
0.00133235
0.00100553
0.000730639
0.000502469
0.000320454
0.000197788
0.000219661
6.66353e-06
4.35429e-06
5.43709e-06
7.54273e-06
1.01697e-05
1.31282e-05
1.63188e-05
1.96767e-05
2.31532e-05
2.67086e-05
3.03096e-05
3.39281e-05
3.75413e-05
4.11313e-05
4.46864e-05
4.8201e-05
5.16765e-05
5.51217e-05
5.85536e-05
6.19974e-05
6.54877e-05
6.90684e-05
7.27935e-05
7.67276e-05
8.09468e-05
8.5539e-05
9.06047e-05
9.62584e-05
0.000102629
0.00010986
0.000118113
0.000127566
0.000138415
0.000150876
0.000165184
0.000181594
0.000200382
0.000221845
0.000246299
0.00027408
0.000305545
0.000341068
0.00038104
0.000425872
0.000475988
0.000531829
0.000593848
0.000662514
0.000738309
0.000821726
0.000913269
0.00101345
0.0011228
0.00124185
0.00137113
0.00151118
0.00166254
0.00182574
0.00200132
0.00218979
0.00239167
0.00260743
0.00283756
0.00308251
0.00334269
0.0036185
0.0039103
0.0042184
0.00454307
0.00488452
0.00524288
0.00561822
0.00601051
0.00641964
0.00684539
0.00728739
0.00774515
0.00821802
0.00870518
0.00920562
0.00971812
0.0102413
0.0107734
0.0113126
0.0118568
0.0124034
0.0129497
0.0134928
0.0140293
0.0145555
0.0150674
0.0155609
0.0160311
0.0164733
0.0168823
0.0172524
0.0175781
0.0178532
0.0180713
0.0182257
0.0183047
0.0183137
0.0182461
0.0181025
0.0178695
0.0175438
0.0171252
0.016615
0.016016
0.0153327
0.0145716
0.0137416
0.0128537
0.0119208
0.0109574
0.00997878
0.00900089
0.00803919
0.00710813
0.00622051
0.00538695
0.00461553
0.00391165
0.00327805
0.00271497
0.00222051
0.00179104
0.00142167
0.00110681
0.000840858
0.000619056
0.000438989
0.000304084
0.000235925
0.000358127
9.60849e-06
5.46491e-06
5.70176e-06
7.14806e-06
9.17044e-06
1.15379e-05
1.41364e-05
1.68967e-05
1.97703e-05
2.272e-05
2.57153e-05
2.87318e-05
3.17494e-05
3.47533e-05
3.77335e-05
4.06856e-05
4.36109e-05
4.65172e-05
4.9419e-05
5.2338e-05
5.53036e-05
5.83531e-05
6.15325e-05
6.48971e-05
6.85117e-05
7.24513e-05
7.68022e-05
8.16624e-05
8.71426e-05
9.33671e-05
0.000100475
0.000108619
0.000117971
0.000128719
0.000141066
0.000155238
0.000171478
0.000190046
0.000211225
0.000235317
0.000262641
0.000293538
0.000328368
0.000367508
0.000411357
0.000460332
0.000514869
0.000575423
0.00064247
0.000716505
0.000798044
0.000887622
0.000985794
0.00109313
0.00121023
0.00133768
0.00147612
0.00162617
0.00178846
0.00196364
0.00215232
0.00235515
0.00257272
0.00280562
0.00305442
0.00331963
0.00360172
0.00390111
0.00421812
0.00455297
0.00490578
0.00527653
0.00566509
0.00607115
0.00649424
0.00693369
0.00738862
0.00785794
0.00834034
0.00883428
0.00933796
0.00984938
0.0103663
0.0108863
0.0114065
0.0119243
0.0124364
0.0129396
0.0134304
0.0139051
0.0143601
0.0147914
0.015195
0.0155668
0.0159027
0.0161983
0.0164493
0.0166511
0.0167983
0.0168807
0.0169047
0.0168647
0.0167554
0.0165782
0.0163239
0.01599
0.0155766
0.0150848
0.0145171
0.013877
0.0131702
0.0124044
0.0115891
0.0107359
0.0098575
0.00896789
0.0080813
0.00721165
0.00637185
0.0055732
0.00482492
0.00413384
0.00350434
0.00293844
0.00243597
0.00199499
0.00161216
0.00128322
0.0010035
0.000768584
0.000575289
0.000423367
0.000319783
0.00029442
0.000513753
1.28525e-05
6.82608e-06
6.30826e-06
7.21663e-06
8.77573e-06
1.07099e-05
1.28872e-05
1.52311e-05
1.76904e-05
2.02275e-05
2.28135e-05
2.54252e-05
2.80445e-05
3.0658e-05
3.32569e-05
3.58376e-05
3.84015e-05
4.09558e-05
4.35133e-05
4.60937e-05
4.8723e-05
5.14348e-05
5.42701e-05
5.72782e-05
6.05171e-05
6.40542e-05
6.7967e-05
7.23437e-05
7.72844e-05
8.29016e-05
8.93215e-05
9.66847e-05
0.000105147
0.000114882
0.000126077
0.000138943
0.000153704
0.000170608
0.000189921
0.000211931
0.000236947
0.000265298
0.000297339
0.000333444
0.000374016
0.000419478
0.000470282
0.000526905
0.000589855
0.000659666
0.000736907
0.000822173
0.000916095
0.00101933
0.00113257
0.00125654
0.00139198
0.00153966
0.00170036
0.00187487
0.00206399
0.0022685
0.00248916
0.00272672
0.00298186
0.00325521
0.0035473
0.00385857
0.00418935
0.00453977
0.00490972
0.0052988
0.00570673
0.00613279
0.00657606
0.00703532
0.00750908
0.00799559
0.00849286
0.00899863
0.00951042
0.0100256
0.0105412
0.0110544
0.011562
0.0120609
0.0125478
0.0130196
0.013473
0.0139047
0.0143109
0.0146894
0.0150372
0.0153513
0.015629
0.0158673
0.0160633
0.0162146
0.0163128
0.0163527
0.0163496
0.0162856
0.016161
0.0159758
0.0157227
0.0153984
0.015002
0.0145329
0.0139913
0.0133802
0.012704
0.011969
0.0111839
0.0103596
0.0095087
0.00864505
0.00778318
0.00693743
0.00612112
0.00534587
0.00462103
0.00395342
0.00334715
0.00280387
0.00232308
0.00190251
0.00153861
0.00122712
0.000963646
0.000744347
0.000567061
0.000433268
0.000353236
0.000364924
0.000682472
1.63606e-05
8.37224e-06
7.14377e-06
7.5822e-06
8.75713e-06
1.03467e-05
1.2199e-05
1.42287e-05
1.63803e-05
1.8615e-05
2.09033e-05
2.32229e-05
2.55563e-05
2.78912e-05
3.02196e-05
3.25381e-05
3.48484e-05
3.71573e-05
3.94768e-05
4.18251e-05
4.42265e-05
4.67117e-05
4.93189e-05
5.20936e-05
5.50896e-05
5.83697e-05
6.20059e-05
6.60808e-05
7.06882e-05
7.59341e-05
8.19378e-05
8.88326e-05
9.67676e-05
0.000105908
0.000116437
0.000128556
0.000142487
0.000158473
0.000176778
0.00019769
0.000221521
0.00024861
0.00027932
0.000314046
0.000353211
0.00039727
0.000446714
0.000502068
0.000563897
0.000632806
0.000709445
0.000794506
0.000888725
0.000992886
0.00110781
0.00123438
0.00137348
0.00152607
0.0016931
0.00187554
0.0020743
0.00229038
0.00252467
0.00277803
0.00305124
0.00334495
0.00365967
0.00399577
0.00435344
0.00473253
0.00513269
0.00555333
0.00599336
0.00645145
0.00692591
0.00741475
0.00791564
0.00842598
0.00894291
0.00946336
0.00998413
0.0105019
0.0110135
0.0115155
0.0120048
0.0124783
0.0129333
0.0133671
0.0137774
0.0141619
0.0145193
0.0148472
0.0151441
0.0154086
0.0156392
0.0158341
0.0159922
0.0161123
0.0161859
0.0162126
0.0162042
0.0161433
0.0160293
0.0158612
0.0156317
0.015336
0.014971
0.0145344
0.0140251
0.0134432
0.0127915
0.0120748
0.0113011
0.0104808
0.00962683
0.00875405
0.00787834
0.00701572
0.00618129
0.00538835
0.00464762
0.00396685
0.00335064
0.00280071
0.00231625
0.00189454
0.00153157
0.00122271
0.000963422
0.000750013
0.000580968
0.000459251
0.000398007
0.000443418
0.000861244
2.01113e-05
1.00696e-05
8.15e-06
8.16029e-06
9.00119e-06
1.03022e-05
1.18906e-05
1.36706e-05
1.55824e-05
1.75844e-05
1.96463e-05
2.17455e-05
2.38649e-05
2.59926e-05
2.81209e-05
3.0247e-05
3.23726e-05
3.45042e-05
3.66536e-05
3.8838e-05
4.10806e-05
4.34107e-05
4.58646e-05
4.84856e-05
5.13251e-05
5.44431e-05
5.79088e-05
6.18018e-05
6.62126e-05
7.12442e-05
7.7013e-05
8.36498e-05
9.13013e-05
0.000100132
0.000110323
0.000122079
0.000135624
0.000151205
0.000169095
0.000189593
0.000213026
0.000239752
0.000270163
0.000304683
0.000343777
0.000387949
0.000437747
0.000493766
0.000556653
0.000627107
0.000705885
0.000793801
0.000891721
0.00100058
0.00112136
0.00125511
0.00140292
0.00156591
0.00174523
0.00194207
0.00215758
0.00239284
0.00264891
0.0029267
0.003227
0.00355044
0.00389737
0.00426789
0.00466171
0.00507834
0.00551684
0.00597588
0.00645362
0.00694783
0.00745589
0.00797481
0.00850131
0.00903186
0.00956276
0.0100903
0.0106107
0.0111204
0.0116161
0.0120946
0.0125532
0.0129897
0.013402
0.0137889
0.0141492
0.0144823
0.014788
0.0150659
0.0153159
0.0155381
0.0157324
0.015899
0.0160369
0.0161451
0.01622
0.0162566
0.0162638
0.0162299
0.0161496
0.0160212
0.0158363
0.0155881
0.0152711
0.0148804
0.0144124
0.0138651
0.013239
0.0125376
0.0117676
0.0109394
0.0100664
0.00916457
0.00825184
0.00734662
0.00646672
0.00562808
0.00484377
0.00412339
0.00347278
0.00289423
0.00238698
0.0019479
0.00157239
0.00125518
0.000991212
0.000776709
0.00061048
0.000496499
0.000450661
0.000527617
0.00104772
2.40918e-05
1.18995e-05
9.29391e-06
8.90272e-06
9.44426e-06
1.0495e-05
1.18614e-05
1.34371e-05
1.51557e-05
1.69733e-05
1.8858e-05
2.07865e-05
2.27416e-05
2.47114e-05
2.66887e-05
2.86705e-05
3.0659e-05
3.26605e-05
3.46867e-05
3.67546e-05
3.88865e-05
4.11113e-05
4.34642e-05
4.59876e-05
4.87318e-05
5.17554e-05
5.51266e-05
5.89239e-05
6.32372e-05
6.81689e-05
7.38356e-05
8.03689e-05
8.79174e-05
9.66482e-05
0.000106749
0.000118429
0.000131921
0.000147486
0.000165412
0.000186019
0.000209657
0.000236718
0.000267629
0.000302863
0.000342936
0.000388419
0.000439934
0.000498165
0.000563858
0.000637829
0.000720961
0.00081422
0.000918643
0.00103534
0.00116548
0.00131032
0.00147114
0.00164927
0.00184606
0.00206284
0.00230093
0.00256154
0.00284577
0.00315453
0.00348851
0.00384812
0.00423341
0.00464403
0.00507916
0.00553756
0.00601743
0.00651649
0.00703186
0.00756024
0.00809791
0.00864082
0.00918472
0.00972525
0.0102581
0.0107791
0.0112845
0.0117709
0.0122352
0.0126753
0.0130894
0.0134765
0.0138362
0.0141685
0.0144743
0.0147545
0.0150104
0.0152434
0.0154549
0.0156463
0.0158185
0.0159723
0.0161073
0.0162227
0.016316
0.0163853
0.0164263
0.0164368
0.0164077
0.0163353
0.0162099
0.0160226
0.0157654
0.0154309
0.0150127
0.0145064
0.0139105
0.0132267
0.0124604
0.0116215
0.0107237
0.0097842
0.00882284
0.00786076
0.0069189
0.00601649
0.00516976
0.00439093
0.00368784
0.00306397
0.00251901
0.0020497
0.00165087
0.00131649
0.00104084
0.000819685
0.000651871
0.000542214
0.00050916
0.000616054
0.00124006
2.82952e-05
1.38515e-05
1.05557e-05
9.78031e-06
1.00475e-05
1.08763e-05
1.20517e-05
1.34557e-05
1.50162e-05
1.66854e-05
1.84292e-05
2.02235e-05
2.20509e-05
2.38993e-05
2.57613e-05
2.76345e-05
2.95208e-05
3.14269e-05
3.33646e-05
3.53508e-05
3.74078e-05
3.95643e-05
4.18554e-05
4.43234e-05
4.70184e-05
4.99992e-05
5.33342e-05
5.71026e-05
6.13954e-05
6.63167e-05
7.19857e-05
7.85378e-05
8.61267e-05
9.49262e-05
0.000105133
0.000116967
0.000130678
0.000146544
0.000164876
0.00018602
0.000210364
0.000238337
0.000270418
0.000307134
0.000349073
0.000396885
0.000451286
0.000513065
0.00058309
0.000662315
0.000751776
0.0008526
0.000966009
0.00109331
0.00123588
0.00139518
0.00157272
0.00177002
0.00198861
0.00222999
0.00249557
0.0027866
0.00310414
0.00344898
0.00382156
0.00422188
0.00464947
0.00510331
0.00558175
0.00608256
0.00660287
0.00713919
0.00768746
0.00824317
0.00880147
0.00935733
0.0099057
0.0104417
0.0109608
0.0114589
0.0119327
0.0123794
0.0127973
0.0131854
0.0135435
0.0138724
0.0141732
0.0144482
0.0146995
0.01493
0.0151423
0.0153393
0.0155233
0.0156966
0.0158607
0.0160166
0.0161641
0.0163021
0.0164283
0.0165399
0.0166326
0.0167
0.0167297
0.0167234
0.0166657
0.0165471
0.0163572
0.0160859
0.0157245
0.0152661
0.0147069
0.0140465
0.013289
0.0124432
0.0115226
0.0105451
0.00953231
0.00850785
0.00749593
0.00651942
0.0055982
0.00474787
0.00397896
0.00329687
0.00270229
0.00219217
0.00176097
0.00140195
0.00110859
0.000876035
0.000702927
0.000594701
0.000572218
0.000707731
0.00143683
3.27188e-05
1.592e-05
1.19235e-05
1.07746e-05
1.07857e-05
1.14145e-05
1.2423e-05
1.3681e-05
1.51101e-05
1.66585e-05
1.82902e-05
1.99793e-05
2.17076e-05
2.34626e-05
2.52372e-05
2.7029e-05
2.88402e-05
3.06778e-05
3.25537e-05
3.44852e-05
3.64951e-05
3.86124e-05
4.08727e-05
4.33188e-05
4.60018e-05
4.89814e-05
5.23277e-05
5.61218e-05
6.04574e-05
6.54424e-05
7.12005e-05
7.78735e-05
8.5623e-05
9.46333e-05
0.000105113
0.0001173
0.000131462
0.000147901
0.000166958
0.000189015
0.000214501
0.000243897
0.00027774
0.000316629
0.000361233
0.000412294
0.000470637
0.000537174
0.000612915
0.000698965
0.000796536
0.000906942
0.00103161
0.00117204
0.00132986
0.00150673
0.00170435
0.00192447
0.00216874
0.00243878
0.00273602
0.00306166
0.0034166
0.00380131
0.0042158
0.00465947
0.00513107
0.00562864
0.00614945
0.00669005
0.00724628
0.00781331
0.00838582
0.00895811
0.00952436
0.0100788
0.010616
0.0111309
0.0116193
0.012078
0.0125044
0.0128974
0.0132566
0.013583
0.0138782
0.0141449
0.0143862
0.0146057
0.0148076
0.0149956
0.0151737
0.0153455
0.0155141
0.0156818
0.0158501
0.01602
0.0161911
0.0163619
0.0165296
0.0166904
0.0168389
0.0169678
0.0170685
0.0171263
0.0171388
0.0170918
0.0169728
0.0167695
0.0164704
0.0160665
0.0155516
0.0149233
0.0141835
0.0133395
0.0124039
0.0113948
0.0103347
0.00924934
0.00816596
0.00711117
0.00610889
0.00517864
0.00433439
0.00358413
0.00293024
0.00237039
0.00189899
0.00150873
0.00119228
0.000944043
0.000762292
0.000652892
0.000639001
0.000801955
0.00163692
3.73634e-05
1.81024e-05
1.339e-05
1.18736e-05
1.16423e-05
1.20889e-05
1.29497e-05
1.40827e-05
1.54022e-05
1.68522e-05
1.83943e-05
2.00011e-05
2.16533e-05
2.33382e-05
2.50484e-05
2.67813e-05
2.85395e-05
3.03303e-05
3.21661e-05
3.4065e-05
3.60504e-05
3.81523e-05
4.04072e-05
4.28593e-05
4.55611e-05
4.85745e-05
5.19722e-05
5.58385e-05
6.02714e-05
6.53841e-05
7.13072e-05
7.8191e-05
8.62077e-05
9.55547e-05
0.000106458
0.000119173
0.000133995
0.000151253
0.000171326
0.000194637
0.000221666
0.000252954
0.000289107
0.000330806
0.000378814
0.000433982
0.000497259
0.000569696
0.000652459
0.000746828
0.000854205
0.000976108
0.00111418
0.00127015
0.00144585
0.00164317
0.00186401
0.00211025
0.00238366
0.00268589
0.00301828
0.00338187
0.0037772
0.00420428
0.00466242
0.00515018
0.00566528
0.00620456
0.006764
0.00733874
0.00792318
0.00851118
0.00909617
0.00967151
0.0102307
0.0107676
0.0112769
0.0117542
0.0121962
0.0126008
0.0129672
0.0132961
0.0135891
0.0138491
0.0140797
0.0142855
0.0144711
0.0146417
0.0148027
0.0149593
0.0151146
0.0152722
0.0154354
0.015607
0.0157884
0.0159799
0.0161806
0.0163887
0.0166008
0.0168123
0.0170167
0.0172062
0.0173716
0.0175025
0.0175813
0.0176025
0.0175551
0.0174223
0.01719
0.0168472
0.0163853
0.0157994
0.0150891
0.0142593
0.0133211
0.0122918
0.0111939
0.0100547
0.00890396
0.00777182
0.0066864
0.00567164
0.00474558
0.00391961
0.00319849
0.00258126
0.00206269
0.00163516
0.00129063
0.00102269
0.000829143
0.000716118
0.000708972
0.00089826
0.00183958
4.22326e-05
2.03987e-05
1.49515e-05
1.30698e-05
1.26062e-05
1.28851e-05
1.36141e-05
1.46396e-05
1.58678e-05
1.72385e-05
1.87102e-05
2.02539e-05
2.18492e-05
2.34827e-05
2.51468e-05
2.68391e-05
2.85624e-05
3.03245e-05
3.21386e-05
3.40235e-05
3.60037e-05
3.81104e-05
4.03818e-05
4.2864e-05
4.56119e-05
4.86902e-05
5.21752e-05
5.61557e-05
6.07352e-05
6.60338e-05
7.21909e-05
7.93672e-05
8.77484e-05
9.7548e-05
0.000109012
0.00012242
0.000138095
0.000156404
0.000177765
0.000202651
0.000231603
0.000265228
0.000304215
0.000349336
0.000401462
0.000461566
0.000530735
0.000610179
0.000701234
0.000805373
0.000924201
0.00105946
0.001213
0.00138681
0.00158291
0.0018034
0.00205033
0.00232569
0.0026313
0.00296869
0.00333904
0.00374301
0.00418062
0.00465116
0.00515304
0.0056837
0.00623959
0.00681616
0.00740787
0.00800838
0.0086107
0.00920741
0.00979101
0.0103542
0.0108904
0.0113936
0.0118592
0.0122841
0.0126664
0.013006
0.013304
0.0135633
0.0137876
0.0139817
0.0141508
0.0143014
0.0144407
0.0145733
0.0147033
0.0148357
0.0149761
0.0151283
0.0152951
0.0154781
0.0156781
0.015895
0.0161273
0.0163723
0.0166264
0.0168845
0.0171408
0.0173866
0.0176116
0.0178053
0.0179565
0.0180416
0.0180602
0.0179992
0.0178374
0.0175619
0.017162
0.01663
0.0159626
0.0151621
0.014237
0.0132026
0.0120809
0.0108994
0.00968985
0.00848551
0.0073187
0.00621806
0.00520634
0.00429908
0.00350424
0.0028229
0.00225081
0.00178036
0.00140296
0.00111144
0.000903018
0.000783991
0.000781809
0.000996365
0.00204434
4.7332e-05
2.28102e-05
1.66062e-05
1.43586e-05
1.36703e-05
1.37932e-05
1.4404e-05
1.5337e-05
1.64898e-05
1.77974e-05
1.92153e-05
2.07125e-05
2.22674e-05
2.38659e-05
2.55001e-05
2.71677e-05
2.88717e-05
3.06207e-05
3.24287e-05
3.43156e-05
3.63074e-05
3.84369e-05
4.07444e-05
4.32784e-05
4.60969e-05
4.92684e-05
5.28735e-05
5.70067e-05
6.17784e-05
6.73172e-05
7.37727e-05
8.13186e-05
9.01563e-05
0.000100518
0.000112674
0.000126931
0.000143647
0.000163228
0.00018614
0.000212915
0.000244159
0.000280557
0.000322889
0.000372033
0.000428979
0.000494837
0.000570847
0.000658391
0.000758994
0.000874334
0.00100623
0.00115666
0.0013277
0.00152155
0.00174046
0.00198666
0.00226233
0.00256949
0.00290988
0.00328484
0.00369516
0.00414098
0.00462155
0.00513522
0.00567922
0.00624966
0.00684151
0.00744863
0.00806394
0.00867964
0.00928745
0.00987901
0.0104463
0.0109818
0.0114793
0.011934
0.0123424
0.0127031
0.0130165
0.0132845
0.0135104
0.0136995
0.0138571
0.0139902
0.0141078
0.0142139
0.014313
0.0144131
0.0145206
0.01464
0.0147753
0.0149297
0.0151052
0.0153029
0.015523
0.0157647
0.016026
0.016304
0.0165948
0.016893
0.0171919
0.0174841
0.0177616
0.0180126
0.0182248
0.0183829
0.0184601
0.0184675
0.0183792
0.0181766
0.0178475
0.0173812
0.0167712
0.0160163
0.015122
0.0141006
0.012972
0.0117634
0.0105073
0.00923947
0.00799625
0.00681115
0.00571215
0.00471969
0.00384578
0.00309438
0.00246283
0.00194402
0.00152905
0.00121009
0.000983725
0.000856327
0.000857354
0.00109614
0.00225104
5.26695e-05
2.53398e-05
1.83543e-05
1.57375e-05
1.48301e-05
1.48064e-05
1.5311e-05
1.61645e-05
1.72558e-05
1.85147e-05
1.98934e-05
2.13587e-05
2.28878e-05
2.44656e-05
2.6084e-05
2.77408e-05
2.94394e-05
3.11891e-05
3.3005e-05
3.49084e-05
3.69269e-05
3.90954e-05
4.14569e-05
4.40628e-05
4.69748e-05
5.02659e-05
5.40222e-05
5.83447e-05
6.33521e-05
6.91829e-05
7.5999e-05
8.3989e-05
9.33723e-05
0.000104404
0.000117379
0.000132639
0.000150578
0.000171649
0.000196373
0.000225346
0.000259248
0.000298854
0.000345043
0.000398811
0.00046128
0.000533711
0.000617513
0.000714253
0.000825659
0.000953626
0.0011002
0.00126759
0.0014581
0.00167413
0.0019181
0.00219238
0.00249917
0.00284043
0.00321769
0.00363194
0.00408342
0.00457148
0.00509442
0.00564936
0.00623215
0.00683735
0.0074583
0.00808725
0.00871558
0.0093342
0.00993388
0.0105057
0.0110416
0.0115347
0.0119798
0.0123734
0.0127143
0.0130031
0.0132425
0.0134369
0.0135916
0.0137142
0.0138148
0.0138977
0.0139668
0.0140325
0.0141026
0.0141825
0.0142773
0.0143911
0.0145272
0.0146877
0.014874
0.0150865
0.0153249
0.0155877
0.0158729
0.0161773
0.016497
0.0168268
0.0171605
0.0174908
0.0178086
0.0181043
0.018368
0.018588
0.0187412
0.0188074
0.0187932
0.0186683
0.0184178
0.0180285
0.0174901
0.0167978
0.0159529
0.014964
0.013848
0.01263
0.0113425
0.010023
0.00871126
0.00744562
0.00625972
0.00517963
0.00422231
0.00339548
0.00269883
0.00212631
0.00166906
0.00131872
0.00107127
0.000933108
0.000935587
0.00119759
0.00245975
5.82547e-05
2.79914e-05
2.01969e-05
1.72059e-05
1.60828e-05
1.59202e-05
1.63293e-05
1.71148e-05
1.8157e-05
1.938e-05
2.07326e-05
2.21792e-05
2.36955e-05
2.52655e-05
2.68808e-05
2.85392e-05
3.02449e-05
3.20078e-05
3.38443e-05
3.57773e-05
3.78365e-05
4.00594e-05
4.24916e-05
4.51885e-05
4.82159e-05
5.16521e-05
5.55895e-05
6.01371e-05
6.54226e-05
7.15964e-05
7.88341e-05
8.73414e-05
9.73586e-05
0.000109165
0.000123087
0.000139503
0.000158848
0.000181629
0.000208426
0.000239908
0.000276838
0.000320089
0.000370653
0.000429653
0.000498358
0.000578193
0.000670748
0.00077779
0.000901261
0.00104328
0.00120613
0.00139224
0.00160414
0.00184439
0.00211555
0.00242003
0.00276
0.00313722
0.00355287
0.00400739
0.00450025
0.00502982
0.00559318
0.00618601
0.00680258
0.00743576
0.0080772
0.00871759
0.00934698
0.0099553
0.0105328
0.0110706
0.0115612
0.0119989
0.0123802
0.0127037
0.0129704
0.0131836
0.0133483
0.0134716
0.0135625
0.0136295
0.0136754
0.0137106
0.0137441
0.0137825
0.0138333
0.013901
0.0139899
0.0141031
0.0142431
0.014411
0.0146076
0.0148327
0.0150852
0.0153638
0.0156659
0.0159888
0.0163286
0.0166807
0.0170395
0.0173985
0.0177496
0.0180837
0.0183902
0.0186572
0.0188703
0.0190122
0.0190662
0.0190237
0.0188583
0.0185559
0.018102
0.0174883
0.0167116
0.0157754
0.0146925
0.013485
0.0121838
0.0108269
0.00945705
0.00811709
0.00684657
0.00567783
0.00463367
0.00372652
0.00295932
0.00232775
0.00182342
0.00143763
0.00116584
0.00101445
0.0010166
0.00130085
0.00267078
6.40989e-05
3.07699e-05
2.21364e-05
1.87641e-05
1.74274e-05
1.71323e-05
1.74553e-05
1.81827e-05
1.91871e-05
2.03861e-05
2.17244e-05
2.31643e-05
2.46795e-05
2.62535e-05
2.78772e-05
2.95488e-05
3.12728e-05
3.30604e-05
3.49294e-05
3.69044e-05
3.90176e-05
4.13092e-05
4.38285e-05
4.66347e-05
4.97989e-05
5.34053e-05
5.75536e-05
6.23614e-05
6.79675e-05
7.45349e-05
8.22553e-05
9.13536e-05
0.000102093
0.000114782
0.00012978
0.000147504
0.000168441
0.000193154
0.00022229
0.000256598
0.000296934
0.000344278
0.000399745
0.000464599
0.000540267
0.000628351
0.000730636
0.000849098
0.000985905
0.00114341
0.00132411
0.00153067
0.00176578
0.00203218
0.00233246
0.00266903
0.00304386
0.00345839
0.00391328
0.00440822
0.0049417
0.00551085
0.0061113
0.00673714
0.00738088
0.00803369
0.00868559
0.00932587
0.00994357
0.0105281
0.0110697
0.0115603
0.0119935
0.0123655
0.0126749
0.0129229
0.013113
0.013251
0.0133441
0.0134081
0.013439
0.0134502
0.0134532
0.0134553
0.0134635
0.013483
0.0135222
0.0135839
0.0136714
0.0137869
0.0139318
0.0141065
0.014311
0.0145446
0.0148062
0.015094
0.0154057
0.0157388
0.01609
0.0164552
0.0168298
0.0172081
0.0175833
0.0179473
0.0182906
0.0186023
0.0188691
0.0190749
0.0191955
0.0192308
0.0191621
0.0189544
0.0185961
0.0180754
0.0173841
0.0165205
0.0154918
0.0143156
0.0130201
0.0116426
0.0102274
0.00882165
0.00747066
0.00621363
0.0050801
0.00408824
0.0032452
0.00254918
0.00199279
0.0015673
0.00126772
0.0011006
0.00110056
0.00140612
0.00288464
7.02147e-05
3.36808e-05
2.41761e-05
2.04137e-05
1.88639e-05
1.84416e-05
1.86865e-05
1.93651e-05
2.03421e-05
2.15277e-05
2.28628e-05
2.43068e-05
2.5832e-05
2.74207e-05
2.90636e-05
3.07589e-05
3.25119e-05
3.43351e-05
3.62476e-05
3.82765e-05
4.04564e-05
4.28309e-05
4.54531e-05
4.8387e-05
5.17092e-05
5.55108e-05
5.98997e-05
6.50035e-05
7.09727e-05
7.79852e-05
8.62503e-05
9.60142e-05
0.000107566
0.000121246
0.00013745
0.000156642
0.000179361
0.000206233
0.000237981
0.000275441
0.000319571
0.000371467
0.00043238
0.000503726
0.000587102
0.000684299
0.000797307
0.000928324
0.00107974
0.00125414
0.00145426
0.00168293
0.00194301
0.00223732
0.00256844
0.00293862
0.00334956
0.00380219
0.00429645
0.00483106
0.0054033
0.00600886
0.00664176
0.0072943
0.00795725
0.00862008
0.00927136
0.00989933
0.0104925
0.0110402
0.0115335
0.0119655
0.0123318
0.0126308
0.0128638
0.0130348
0.0131491
0.0132199
0.01325
0.0132519
0.0132312
0.0132016
0.0131715
0.0131506
0.0131432
0.0131501
0.0131837
0.0132438
0.0133326
0.0134512
0.0136003
0.0137797
0.0139887
0.0142264
0.0144913
0.0147819
0.0150962
0.0154319
0.0157864
0.0161565
0.0165384
0.0169275
0.0173183
0.0177039
0.0180761
0.0184254
0.0187397
0.0190043
0.0192034
0.0193029
0.0193174
0.019219
0.0189667
0.0185507
0.0179604
0.0171878
0.0162337
0.0151104
0.0138413
0.0124617
0.0110163
0.00955532
0.00812997
0.00678653
0.00556207
0.00448162
0.00355761
0.00279166
0.00217805
0.00170839
0.00137736
0.00119188
0.00118774
0.00151373
0.00310198
7.66163e-05
3.67308e-05
2.63197e-05
2.21569e-05
2.03935e-05
1.98481e-05
2.00221e-05
2.06603e-05
2.16192e-05
2.28014e-05
2.41435e-05
2.56019e-05
2.71472e-05
2.87607e-05
3.04327e-05
3.21618e-05
3.39539e-05
3.58228e-05
3.77897e-05
3.98839e-05
4.21431e-05
4.46144e-05
4.73553e-05
5.04353e-05
5.3937e-05
5.79593e-05
6.2619e-05
6.80549e-05
7.4431e-05
8.19412e-05
9.08144e-05
0.000101321
0.000113778
0.00012856
0.000146106
0.000166928
0.000191625
0.000220891
0.000255533
0.000296481
0.000344805
0.000401729
0.000468648
0.000547141
0.000638989
0.000746181
0.000870923
0.00101564
0.00118295
0.00137565
0.00159669
0.00184906
0.00213574
0.00245952
0.00282291
0.00322788
0.00367567
0.00416654
0.00469948
0.00527206
0.00588012
0.00651774
0.00717715
0.00784886
0.0085219
0.00918423
0.0098233
0.0104267
0.0109829
0.011482
0.0119163
0.0122808
0.0125736
0.0127958
0.0129512
0.0130472
0.0130932
0.0131003
0.0130703
0.0130225
0.0129625
0.012902
0.0128487
0.0128124
0.0127972
0.0127972
0.0128293
0.0128903
0.0129815
0.013103
0.0132547
0.013436
0.0136458
0.0138829
0.0141461
0.0144338
0.0147445
0.0150763
0.0154274
0.0157953
0.0161773
0.0165698
0.0169686
0.0173682
0.0177618
0.0181411
0.0184959
0.0188127
0.019077
0.019265
0.01935
0.0193429
0.0192103
0.0189103
0.0184334
0.017768
0.0169078
0.0158583
0.0146371
0.0132755
0.0118168
0.0103137
0.00882215
0.00739583
0.00608006
0.00490776
0.00389786
0.00305644
0.00238023
0.00186167
0.00149534
0.00128864
0.00127846
0.00162402
0.0033236
8.33193e-05
3.9927e-05
2.85719e-05
2.39968e-05
2.2018e-05
2.13529e-05
2.1462e-05
2.20676e-05
2.30173e-05
2.42054e-05
2.5564e-05
2.70464e-05
2.86214e-05
3.02692e-05
3.19798e-05
3.3752e-05
3.55928e-05
3.75175e-05
3.95492e-05
4.172e-05
4.40709e-05
4.6653e-05
4.95288e-05
5.27733e-05
5.64765e-05
6.07455e-05
6.57072e-05
7.15127e-05
7.83406e-05
8.64027e-05
9.59496e-05
0.000107278
0.000120736
0.000136737
0.000155764
0.000178385
0.000205262
0.000237167
0.000274995
0.000319781
0.000372713
0.000435155
0.000508657
0.000594972
0.000696075
0.000814162
0.000951661
0.00111122
0.00129569
0.00150807
0.00175148
0.00202905
0.00234376
0.00269837
0.00309513
0.00353562
0.00402044
0.00454896
0.00511908
0.00572695
0.00636682
0.00703099
0.00770986
0.00839216
0.00906537
0.00971621
0.0103314
0.0108985
0.0114066
0.0118469
0.0122138
0.0125047
0.0127206
0.0128653
0.0129449
0.0129742
0.0129557
0.0129027
0.0128261
0.0127392
0.0126497
0.0125676
0.0124997
0.0124554
0.0124366
0.0124349
0.0124681
0.0125314
0.0126249
0.0127482
0.0129005
0.0130808
0.0132879
0.0135206
0.0137777
0.0140579
0.0143601
0.0146831
0.0150254
0.0153857
0.015762
0.0161519
0.0165523
0.016959
0.0173668
0.0177686
0.018156
0.0185172