/*--------------------------------*- C++ -*----------------------------------*\
  =========                 |
  \\      /  F ield         | OpenFOAM: The Open Source CFD Toolbox
   \\    /   O peration     | Website:  https://openfoam.org
    \\  /    A nd           | Version:  12
     \\/     M anipulation  |
\*---------------------------------------------------------------------------*/
FoamFile
{
    format      ascii;
    class       volScalarField;
    location    "6.5";
    object      k;
}
// * * * * * * * * * * * * * * * * * * * * * * * * * * * * * * * * * * * * * //

dimensions      [0 2 -2 0 0 0 0];

internalField   nonuniform List<scalar> 
18225
(
2.78636e-10
1.88576e-09
4.204e-09
6.97404e-09
1.00761e-08
1.34338e-08
1.69899e-08
2.06965e-08
2.4512e-08
2.83991e-08
3.23245e-08
3.62593e-08
4.01789e-08
4.4064e-08
4.79016e-08
5.16852e-08
5.54156e-08
5.9102e-08
6.27619e-08
6.64221e-08
7.01192e-08
7.38999e-08
7.78214e-08
8.19524e-08
8.63734e-08
9.11773e-08
9.64705e-08
1.02373e-07
1.09021e-07
1.16566e-07
1.25176e-07
1.35037e-07
1.46354e-07
1.59351e-07
1.74272e-07
1.91382e-07
2.10963e-07
2.33321e-07
2.58776e-07
2.87671e-07
3.20362e-07
3.57222e-07
3.98638e-07
4.45008e-07
4.96741e-07
5.54253e-07
6.17968e-07
6.88313e-07
7.65718e-07
8.50616e-07
9.43434e-07
1.0446e-06
1.15453e-06
1.27365e-06
1.40233e-06
1.54098e-06
1.68996e-06
1.8496e-06
2.02022e-06
2.20211e-06
2.39554e-06
2.60073e-06
2.81788e-06
3.04715e-06
3.28869e-06
3.54258e-06
3.80892e-06
4.08774e-06
4.37906e-06
4.68287e-06
4.99915e-06
5.32784e-06
5.66884e-06
6.02206e-06
6.38735e-06
6.76452e-06
7.15337e-06
7.55364e-06
7.96501e-06
8.38709e-06
8.81944e-06
9.26149e-06
9.71259e-06
1.01719e-05
1.06386e-05
1.11115e-05
1.15892e-05
1.20701e-05
1.25526e-05
1.30343e-05
1.35127e-05
1.3985e-05
1.44477e-05
1.48969e-05
1.53284e-05
1.57372e-05
1.61179e-05
1.64645e-05
1.67699e-05
1.70269e-05
1.72274e-05
1.7357e-05
1.74128e-05
1.74117e-05
1.73207e-05
1.71339e-05
1.6848e-05
1.6461e-05
1.59723e-05
1.53837e-05
1.46996e-05
1.39277e-05
1.30786e-05
1.21661e-05
1.12062e-05
1.02169e-05
9.21712e-06
8.22581e-06
7.26084e-06
6.33816e-06
5.47104e-06
4.66957e-06
3.94038e-06
3.28675e-06
2.70885e-06
2.2042e-06
1.76824e-06
1.39498e-06
1.07745e-06
8.08477e-07
5.8118e-07
3.89682e-07
2.30041e-07
1.02078e-07
1.50555e-08
2.1061e-09
1.67952e-08
3.77253e-08
6.26868e-08
9.0625e-08
1.2086e-07
1.52877e-07
1.86248e-07
2.20597e-07
2.5559e-07
2.90927e-07
3.26347e-07
3.61629e-07
3.966e-07
4.31141e-07
4.65195e-07
4.98768e-07
5.31943e-07
5.64877e-07
5.97813e-07
6.31078e-07
6.65093e-07
7.00373e-07
7.37536e-07
7.77305e-07
8.20519e-07
8.68132e-07
9.21229e-07
9.81029e-07
1.04889e-06
1.12634e-06
1.21505e-06
1.31685e-06
1.43378e-06
1.56801e-06
1.72194e-06
1.89811e-06
2.09926e-06
2.32829e-06
2.58827e-06
2.88241e-06
3.21407e-06
3.58674e-06
4.004e-06
4.46952e-06
4.98706e-06
5.56042e-06
6.19345e-06
6.89002e-06
7.65402e-06
8.48931e-06
9.39973e-06
1.03891e-05
1.1461e-05
1.26191e-05
1.38669e-05
1.52076e-05
1.66442e-05
1.81797e-05
1.98167e-05
2.15574e-05
2.3404e-05
2.53582e-05
2.74215e-05
2.95952e-05
3.18801e-05
3.42768e-05
3.67859e-05
3.94075e-05
4.21415e-05
4.49876e-05
4.79453e-05
5.10138e-05
5.41922e-05
5.74791e-05
6.08729e-05
6.43718e-05
6.79733e-05
7.16747e-05
7.54724e-05
7.93625e-05
8.33399e-05
8.73986e-05
9.15317e-05
9.57304e-05
9.99849e-05
0.000104283
0.000108611
0.000112952
0.000117286
0.000121592
0.000125842
0.000130006
0.00013405
0.000137934
0.000141614
0.000145042
0.000148163
0.000150915
0.000153232
0.000155032
0.000156183
0.000156667
0.000156648
0.000155815
0.00015412
0.000151535
0.000148042
0.000143637
0.000138334
0.000132175
0.000125228
0.000117589
0.000109381
0.000100749
9.1854e-05
8.28659e-05
7.39541e-05
6.52794e-05
5.69848e-05
4.91896e-05
4.19842e-05
3.54284e-05
2.95517e-05
2.43555e-05
1.98179e-05
1.58977e-05
1.25403e-05
9.68454e-06
7.2656e-06
5.22152e-06
3.4991e-06
2.06244e-06
9.0848e-07
1.13746e-07
4.47452e-09
3.83698e-08
8.67466e-08
1.44445e-07
2.09015e-07
2.78883e-07
3.52863e-07
4.29965e-07
5.09323e-07
5.90163e-07
6.71795e-07
7.53611e-07
8.35103e-07
9.1587e-07
9.95636e-07
1.07427e-06
1.15178e-06
1.22836e-06
1.30437e-06
1.38037e-06
1.45712e-06
1.53559e-06
1.61697e-06
1.70268e-06
1.79439e-06
1.89404e-06
2.00383e-06
2.12626e-06
2.26415e-06
2.42065e-06
2.59926e-06
2.80383e-06
3.03864e-06
3.30835e-06
3.61801e-06
3.97312e-06
4.37959e-06
4.84374e-06
5.37226e-06
5.97226e-06
6.65117e-06
7.41675e-06
8.27706e-06
9.24038e-06
1.03152e-05
1.15103e-05
1.28344e-05
1.42964e-05
1.59054e-05
1.76703e-05
1.96e-05
2.17036e-05
2.39898e-05
2.64672e-05
2.91441e-05
3.20286e-05
3.51284e-05
3.84507e-05
4.20022e-05
4.57889e-05
4.98164e-05
5.40897e-05
5.86129e-05
6.33897e-05
6.84229e-05
7.37149e-05
7.92673e-05
8.5081e-05
9.11567e-05
9.74941e-05
0.000104093
0.000110951
0.000118068
0.00012544
0.000133064
0.000140936
0.000149052
0.000157405
0.000165989
0.000174794
0.000183811
0.000193027
0.000202427
0.000211994
0.000221707
0.000231543
0.000241472
0.000251461
0.000261471
0.000271457
0.000281365
0.000291134
0.000300694
0.000309966
0.000318858
0.000327271
0.000335093
0.0003422
0.000348451
0.000353698
0.00035777
0.000360334
0.000361366
0.000361275
0.000359299
0.000355339
0.000349337
0.00034125
0.000331068
0.000318825
0.000304614
0.000288592
0.000270978
0.000252055
0.000232156
0.000211652
0.000190934
0.000170392
0.000150398
0.000131281
0.000113316
9.67111e-05
8.16046e-05
6.80639e-05
5.60922e-05
4.56384e-05
3.66076e-05
2.88747e-05
2.22967e-05
1.67243e-05
1.20146e-05
8.04491e-06
4.73257e-06
2.07143e-06
2.41206e-07
7.32027e-09
6.43393e-08
1.46159e-07
2.43872e-07
3.5325e-07
4.71608e-07
5.96924e-07
7.27524e-07
8.61938e-07
9.98854e-07
1.1371e-06
1.27564e-06
1.41362e-06
1.55036e-06
1.68538e-06
1.81845e-06
1.9496e-06
2.07914e-06
2.2077e-06
2.33621e-06
2.46595e-06
2.59857e-06
2.73607e-06
2.88087e-06
3.03579e-06
3.2041e-06
3.38954e-06
3.59634e-06
3.82926e-06
4.09364e-06
4.39538e-06
4.74105e-06
5.13785e-06
5.59368e-06
6.11713e-06
6.7175e-06
7.40479e-06
8.18973e-06
9.08368e-06
1.00987e-05
1.12474e-05
1.25429e-05
1.39989e-05
1.56296e-05
1.74493e-05
1.94729e-05
2.17153e-05
2.41918e-05
2.69176e-05
2.99081e-05
3.31787e-05
3.67445e-05
4.06206e-05
4.48218e-05
4.93624e-05
5.42564e-05
5.95169e-05
6.51564e-05
7.11866e-05
7.76181e-05
8.44605e-05
9.17226e-05
9.94117e-05
0.000107534
0.000116095
0.000125099
0.000134548
0.000144444
0.000154787
0.000165578
0.000176814
0.000188493
0.00020061
0.000213159
0.000226134
0.000239526
0.000253324
0.000267516
0.000282086
0.000297019
0.000312292
0.000327882
0.000343763
0.0003599
0.000376258
0.000392792
0.000409454
0.000426186
0.000442921
0.000459584
0.000476086
0.000492328
0.000508194
0.000523555
0.000538264
0.000552159
0.000565059
0.000576761
0.000587044
0.000595664
0.000602352
0.000606511
0.000608134
0.000607947
0.000604619
0.000597984
0.000587944
0.000574425
0.000557396
0.000536905
0.000513097
0.000486224
0.000456651
0.000424845
0.000391367
0.000356842
0.000321932
0.000287303
0.000253584
0.000221337
0.000191032
0.000163022
0.000137543
0.000114707
9.45214e-05
7.68975e-05
6.16751e-05
4.86417e-05
3.75552e-05
2.81629e-05
2.02233e-05
1.353e-05
7.94447e-06
3.46118e-06
3.93254e-07
1.05555e-08
9.37069e-08
2.13612e-07
3.57063e-07
5.17734e-07
6.91626e-07
8.75753e-07
1.06764e-06
1.26512e-06
1.46627e-06
1.66935e-06
1.87285e-06
2.07548e-06
2.27625e-06
2.47446e-06
2.66977e-06
2.8622e-06
3.05222e-06
3.24073e-06
3.42911e-06
3.61924e-06
3.81353e-06
4.01492e-06
4.22696e-06
4.45379e-06
4.70021e-06
4.97171e-06
5.27449e-06
5.61556e-06
6.00272e-06
6.44468e-06
6.95107e-06
7.53248e-06
8.20052e-06
8.96781e-06
9.84804e-06
1.08559e-05
1.20073e-05
1.33188e-05
1.48083e-05
1.64943e-05
1.83963e-05
2.05344e-05
2.29295e-05
2.56029e-05
2.85766e-05
3.18726e-05
3.55136e-05
3.95221e-05
4.39211e-05
4.87334e-05
5.39817e-05
5.96884e-05
6.58756e-05
7.2565e-05
7.97774e-05
8.75327e-05
9.58499e-05
0.000104746
0.000114239
0.000124341
0.000135067
0.000146427
0.000158432
0.000171088
0.000184401
0.000198375
0.000213011
0.000228308
0.000244264
0.000260873
0.000278128
0.000296018
0.000314531
0.00033365
0.000353358
0.000373632
0.000394447
0.000415774
0.000437581
0.000459832
0.000482484
0.000505492
0.000528804
0.000552363
0.000576103
0.000599954
0.000623832
0.000647646
0.000671293
0.000694653
0.000717592
0.000739956
0.000761573
0.000782248
0.000801764
0.000819874
0.000836307
0.000850768
0.000862921
0.00087238
0.000878321
0.000880644
0.000880491
0.000875936
0.000866668
0.000852543
0.000833428
0.00080925
0.000780044
0.000745988
0.000707418
0.000664838
0.000618913
0.000570448
0.000520356
0.00046961
0.000419194
0.000370045
0.000323005
0.000278772
0.000237879
0.000200677
0.000167339
0.000137875
0.000112155
8.99436e-05
7.09293e-05
5.47558e-05
4.1053e-05
2.94678e-05
1.96992e-05
1.15485e-05
5.0148e-06
5.64144e-07
1.41192e-08
1.25941e-07
2.87807e-07
4.81815e-07
6.9928e-07
9.34716e-07
1.18404e-06
1.44388e-06
1.7113e-06
1.98365e-06
2.2586e-06
2.53408e-06
2.80834e-06
3.08001e-06
3.34815e-06
3.61227e-06
3.87242e-06
4.12922e-06
4.38388e-06
4.63827e-06
4.89492e-06
5.15709e-06
5.42878e-06
5.71477e-06
6.02068e-06
6.35298e-06
6.71911e-06
7.12747e-06
7.58752e-06
8.10986e-06
8.70626e-06
9.38976e-06
1.01747e-05
1.10769e-05
1.21134e-05
1.33028e-05
1.4665e-05
1.62216e-05
1.79954e-05
2.00103e-05
2.22918e-05
2.48663e-05
2.77613e-05
3.10053e-05
3.46274e-05
3.86574e-05
4.31259e-05
4.80636e-05
5.35017e-05
5.94716e-05
6.60048e-05
7.31326e-05
8.0886e-05
8.92959e-05
9.83921e-05
0.000108204
0.000118758
0.000130083
0.000142201
0.000155136
0.000168908
0.000183535
0.000199031
0.00021541
0.000232679
0.000250845
0.000269909
0.00028987
0.000310723
0.000332456
0.000355057
0.000378506
0.00040278
0.000427851
0.000453685
0.000480246
0.000507491
0.000535372
0.00056384
0.000592838
0.000622307
0.000652182
0.000682397
0.000712877
0.000743546
0.000774321
0.000805111
0.000835819
0.000866337
0.000896544
0.000926307
0.000955471
0.000983863
0.00101128
0.00103751
0.00106228
0.00108531
0.00110626
0.00112479
0.00114046
0.00115278
0.00116082
0.00116413
0.0011643
0.00115905
0.00114767
0.00112999
0.0011058
0.00107492
0.00103736
0.000993281
0.000943075
0.000887362
0.000826989
0.000763008
0.000696629
0.000629164
0.000561953
0.000496284
0.00043332
0.000374039
0.000319187
0.000269262
0.000224514
0.000184964
0.000150446
0.000120641
9.51296e-05
7.34305e-05
5.50449e-05
3.94978e-05
2.63865e-05
1.5449e-05
6.69301e-06
7.49412e-07
1.7973e-08
1.60727e-07
3.67967e-07
6.16781e-07
8.95915e-07
1.19824e-06
1.51847e-06
1.85223e-06
2.19572e-06
2.54554e-06
2.89864e-06
3.25237e-06
3.60446e-06
3.95313e-06
4.29715e-06
4.6359e-06
4.96942e-06
5.2985e-06
5.62469e-06
5.95038e-06
6.27884e-06
6.61424e-06
6.96171e-06
7.3274e-06
7.71851e-06
8.14336e-06
8.61149e-06
9.13369e-06
9.72212e-06
1.03904e-05
1.11536e-05
1.20286e-05
1.30338e-05
1.41894e-05
1.55176e-05
1.70422e-05
1.87891e-05
2.07859e-05
2.3062e-05
2.56486e-05
2.85785e-05
3.18859e-05
3.56064e-05
3.97769e-05
4.44354e-05
4.96206e-05
5.53721e-05
6.17303e-05
6.87359e-05
7.64299e-05
8.48536e-05
9.40483e-05
0.000104055
0.000114914
0.000126665
0.000139346
0.000152994
0.000167643
0.000183327
0.000200074
0.000217909
0.000236855
0.00025693
0.000278146
0.000300512
0.000324028
0.000348691
0.000374491
0.000401409
0.00042942
0.000458491
0.000488583
0.000519648
0.00055163
0.000584469
0.000618096
0.000652437
0.000687415
0.000722947
0.00075895
0.000795337
0.000832021
0.000868913
0.000905927
0.000942971
0.000979957
0.00101679
0.00105337
0.0010896
0.00112536
0.00116051
0.00119492
0.0012284
0.00126076
0.00129177
0.00132114
0.00134856
0.00137365
0.00139601
0.00141512
0.0014304
0.00144097
0.00144577
0.00144663
0.00144149
0.00142889
0.00140861
0.00138033
0.00134378
0.00129887
0.00124571
0.00118471
0.00111655
0.00104225
0.000963067
0.000880502
0.000796208
0.000711898
0.000629242
0.000549768
0.000474774
0.000405267
0.000341929
0.000285117
0.000234889
0.000191044
0.000153189
0.000120789
9.32304e-05
6.98784e-05
5.01283e-05
3.347e-05
1.95767e-05
8.46745e-06
9.45717e-07
2.20934e-08
1.97874e-07
4.53615e-07
7.61115e-07
1.10639e-06
1.48052e-06
1.87691e-06
2.29009e-06
2.71532e-06
3.14837e-06
3.58543e-06
4.02318e-06
4.45879e-06
4.89004e-06
5.31537e-06
5.73401e-06
6.146e-06
6.55229e-06
6.95481e-06
7.35653e-06
7.76147e-06
8.1748e-06
8.60288e-06
9.05331e-06
9.53502e-06
1.00583e-05
1.0635e-05
1.12784e-05
1.20036e-05
1.28275e-05
1.37688e-05
1.48483e-05
1.6089e-05
1.75159e-05
1.91566e-05
2.10407e-05
2.32004e-05
2.56701e-05
2.84865e-05
3.16885e-05
3.53169e-05
3.94147e-05
4.40264e-05
4.91982e-05
5.49778e-05
6.14139e-05
6.85564e-05
7.64561e-05
8.51644e-05
9.47333e-05
0.000105215
0.000116662
0.000129127
0.00014266
0.000157313
0.000173133
0.000190167
0.000208458
0.000228047
0.000248968
0.000271251
0.000294921
0.000319995
0.000346483
0.000374385
0.000403693
0.000434388
0.000466443
0.000499815
0.000534453
0.000570292
0.000607258
0.000645266
0.000684218
0.000724014
0.000764542
0.000805689
0.000847339
0.000889376
0.000931687
0.000974162
0.0010167
0.0010592
0.00110157
0.00114373
0.0011856
0.00122712
0.00126819
0.00130875
0.00134871
0.00138796
0.00142639
0.00146385
0.00150015
0.00153506
0.0015683
0.00159954
0.00162836
0.0016543
0.0016768
0.00169516
0.00170865
0.00171552
0.00171744
0.0017133
0.00170046
0.00167869
0.00164756
0.00160667
0.0015558
0.00149498
0.00142458
0.00134532
0.00125831
0.00116497
0.00106707
0.000966571
0.00086555
0.000766068
0.000670044
0.000579137
0.000494658
0.000417524
0.000348238
0.000286925
0.000233378
0.000187134
0.000147551
0.000113883
8.53503e-05
6.12147e-05
4.08551e-05
2.38781e-05
1.03161e-05
1.15049e-06
2.64661e-08
2.37267e-07
5.44463e-07
9.14302e-07
1.32991e-06
1.78049e-06
2.25799e-06
2.75579e-06
3.26814e-06
3.78987e-06
4.31636e-06
4.84356e-06
5.36804e-06
5.88708e-06
6.39878e-06
6.90219e-06
7.39733e-06
7.88535e-06
8.36858e-06
8.85058e-06
9.3362e-06
9.8317e-06
1.03447e-05
1.08844e-05
1.14616e-05
1.20887e-05
1.27798e-05
1.35512e-05
1.4421e-05
1.54095e-05
1.65394e-05
1.78358e-05
1.93264e-05
2.10416e-05
2.30147e-05
2.52816e-05
2.78814e-05
3.08558e-05
3.42494e-05
3.81095e-05
4.2486e-05
4.7431e-05
5.29991e-05
5.92467e-05
6.62321e-05
7.40151e-05
8.2657e-05
9.22202e-05
0.000102768
0.000114365
0.000127076
0.000140964
0.000156095
0.000172533
0.000190337
0.000209569
0.000230285
0.000252535
0.000276366
0.000301818
0.000328922
0.000357701
0.000388165
0.000420314
0.000454134
0.000489597
0.000526659
0.000565258
0.000605317
0.000646743
0.000689424
0.000733236
0.000778041
0.00082369
0.000870029
0.000916898
0.00096414
0.0010116
0.00105913
0.00110661
0.0011539
0.00120091
0.00124754
0.00129374
0.00133945
0.00138463
0.00142924
0.00147326
0.00151667
0.00155942
0.00160147
0.00164273
0.00168308
0.00172237
0.00176038
0.00179683
0.00183136
0.00186354
0.00189284
0.00191864
0.00194019
0.00195674
0.00196624
0.00196957
0.00196712
0.00195497
0.00193279
0.00190006
0.00185624
0.00180097
0.00173416
0.00165612
0.00156754
0.00146954
0.00136369
0.00125192
0.00113647
0.00101974
0.000904165
0.000792068
0.00068549
0.000586091
0.000495066
0.000413121
0.000340489
0.000276991
0.000222121
0.000175141
0.000135175
0.000101301
7.26435e-05
4.84671e-05
2.83109e-05
1.22212e-05
1.36169e-06
3.10837e-08
2.78844e-07
6.40356e-07
1.07606e-06
1.56605e-06
2.09752e-06
2.66092e-06
3.24837e-06
3.85299e-06
4.46864e-06
5.08983e-06
5.7117e-06
6.33015e-06
6.94194e-06
7.5448e-06
8.13755e-06
8.72023e-06
9.29419e-06
9.86217e-06
1.04284e-05
1.09985e-05
1.15801e-05
1.2182e-05
1.28152e-05
1.34923e-05
1.42281e-05
1.50394e-05
1.59451e-05
1.69668e-05
1.81286e-05
1.94572e-05
2.09825e-05
2.27371e-05
2.47573e-05
2.70825e-05
2.97554e-05
3.28224e-05
3.63333e-05
4.03412e-05
4.49026e-05
5.00771e-05
5.59271e-05
6.2518e-05
6.99174e-05
7.81954e-05
8.7424e-05
9.7677e-05
0.00010903
0.000121559
0.000135342
0.000150457
0.000166983
0.000184996
0.000204573
0.000225787
0.000248709
0.000273403
0.000299928
0.000328335
0.000358663
0.00039094
0.000425179
0.000461379
0.000499519
0.000539559
0.000581435
0.000625065
0.00067034
0.00071713
0.000765282
0.000814623
0.000864965
0.000916106
0.000967836
0.00101994
0.00107222
0.00112447
0.0011765
0.00122817
0.00127933
0.00132987
0.00137972
0.00142883
0.00147719
0.00152478
0.00157165
0.00161782
0.00166333
0.00170822
0.00175251
0.00179621
0.00183928
0.00188164
0.00192314
0.00196358
0.00200267
0.00204004
0.0020752
0.00210759
0.00213652
0.0021612
0.00218077
0.00219329
0.00219831
0.00219787
0.0021872
0.00216552
0.00213232
0.00208694
0.00202885
0.00195785
0.00187411
0.00177824
0.00167134
0.00155502
0.00143132
0.00130267
0.00117173
0.00104129
0.000914043
0.000792429
0.000678488
0.000573744
0.000479157
0.000395122
0.000321536
0.000257883
0.00020335
0.000156945
0.000117609
8.43271e-05
5.62481e-05
3.28422e-05
1.41691e-05
1.57775e-06
3.59432e-08
3.22584e-07
7.41239e-07
1.24626e-06
1.8146e-06
2.43135e-06
3.08533e-06
3.76732e-06
4.46928e-06
5.184e-06
5.905e-06
6.62661e-06
7.34398e-06
8.05331e-06
8.75191e-06
9.43839e-06
1.01128e-05
1.07766e-05
1.14331e-05
1.20872e-05
1.27455e-05
1.34167e-05
1.41112e-05
1.48418e-05
1.56232e-05
1.64724e-05
1.74091e-05
1.84554e-05
1.96363e-05
2.09799e-05
2.25173e-05
2.42834e-05
2.63163e-05
2.86583e-05
3.13554e-05
3.44578e-05
3.80198e-05
4.20998e-05
4.67602e-05
5.20674e-05
5.80916e-05
6.49065e-05
7.25891e-05
8.12195e-05
9.08806e-05
0.000101658
0.000113639
0.000126913
0.000141571
0.000157706
0.000175409
0.000194774
0.000215892
0.000238851
0.000263737
0.000290629
0.000319599
0.000350711
0.000384013
0.00041954
0.00045731
0.000497318
0.000539537
0.000583914
0.000630368
0.000678786
0.000729029
0.000780924
0.00083427
0.000888842
0.00094439
0.00100065
0.00105736
0.00111423
0.00117101
0.00122745
0.00128332
0.00133843
0.00139264
0.00144583
0.00149794
0.00154895
0.00159887
0.00164777
0.00169572
0.00174282
0.00178921
0.00183499
0.00188026
0.00192511
0.00196959
0.00201369
0.00205735
0.00210044
0.00214275
0.00218398
0.00222372
0.00226146
0.00229657
0.00232831
0.00235584
0.00237819
0.00239376
0.00240094
0.00240221
0.00239366
0.00237324
0.00234058
0.00229489
0.00223553
0.00216212
0.0020747
0.00197374
0.00186025
0.00173577
0.00160239
0.00146263
0.00131937
0.00117565
0.00103452
0.000898825
0.000770994
0.000652924
0.000545882
0.000450488
0.000366764
0.000294231
0.000232033
0.000179081
0.000134187
9.62016e-05
6.41554e-05
3.74472e-05
1.61491e-05
1.79747e-06
4.10455e-08
3.68497e-07
8.47129e-07
1.42494e-06
2.07558e-06
2.78195e-06
3.53118e-06
4.3126e-06
5.11691e-06
5.93577e-06
6.76166e-06
7.58799e-06
8.40913e-06
9.22066e-06
1.00195e-05
1.08039e-05
1.1574e-05
1.23315e-05
1.30801e-05
1.38255e-05
1.45753e-05
1.53395e-05
1.61302e-05
1.69619e-05
1.78516e-05
1.8819e-05
1.98864e-05
2.10795e-05
2.24268e-05
2.39608e-05
2.57173e-05
2.77364e-05
3.00621e-05
3.27432e-05
3.5833e-05
3.93893e-05
4.34752e-05
4.81583e-05
5.35111e-05
5.96108e-05
6.65389e-05
7.43815e-05
8.32284e-05
9.31733e-05
0.000104313
0.000116747
0.000130579
0.000145913
0.000162856
0.000181515
0.000201998
0.000224413
0.000248865
0.000275454
0.000304276
0.000335419
0.000368957
0.000404952
0.000443448
0.000484466
0.000528001
0.000574021
0.00062246
0.000673216
0.000726151
0.000781087
0.000837807
0.000896059
0.000955557
0.00101599
0.00107702
0.00113832
0.00119954
0.00126035
0.00132045
0.00137957
0.0014375
0.00149406
0.00154915
0.0016027
0.00165474
0.00170532
0.00175456
0.00180261
0.00184963
0.00189584
0.00194141
0.00198655
0.0020314
0.0020761
0.00212073
0.00216529
0.00220972
0.0022539
0.00229758
0.00234044
0.00238203
0.00242183
0.00245915
0.00249322
0.00252315
0.0025479
0.00256626
0.00257571
0.00257847
0.0025724
0.00255382
0.00252254
0.00247769
0.00241851
0.00234445
0.00225536
0.00215155
0.00203385
0.00190369
0.00176306
0.00161452
0.00146105
0.0013059
0.00115243
0.00100384
0.000862981
0.000732151
0.000612978
0.000506364
0.00041252
0.000331052
0.000261104
0.000201514
0.000150982
0.000108226
7.21599e-05
4.21088e-05
1.81539e-05
2.02e-06
4.63944e-08
4.16619e-07
9.58108e-07
1.61221e-06
2.34916e-06
3.14954e-06
3.99869e-06
4.88445e-06
5.79615e-06
6.72423e-06
7.66007e-06
8.59607e-06
9.52579e-06
1.04441e-05
1.13475e-05
1.22339e-05
1.31036e-05
1.39584e-05
1.48026e-05
1.56426e-05
1.64872e-05
1.73478e-05
1.8238e-05
1.91745e-05
2.01766e-05
2.12667e-05
2.24702e-05
2.38163e-05
2.53376e-05
2.70708e-05
2.90571e-05
3.13419e-05
3.39757e-05
3.70142e-05
4.05182e-05
4.45542e-05
4.91945e-05
5.45166e-05
6.0604e-05
6.75454e-05
7.54351e-05
8.43722e-05
9.44604e-05
0.000105808
0.000118527
0.000132734
0.000148546
0.000166086
0.000185476
0.000206841
0.000230303
0.000255984
0.000284004
0.000314473
0.000347496
0.000383162
0.000421546
0.000462702
0.000506657
0.00055341
0.000602922
0.000655118
0.000709876
0.00076703
0.000826366
0.000887622
0.000950489
0.00101462
0.00107963
0.00114512
0.00121068
0.00127588
0.00134033
0.00140367
0.00146559
0.00152582
0.00158418
0.00164055
0.00169491
0.0017473
0.00179781
0.00184663
0.00189397
0.00194008
0.00198525
0.00202973
0.0020738
0.0021177
0.00216162
0.00220571
0.00225004
0.00229463
0.0023394
0.00238418
0.00242872
0.00247265
0.00251552
0.00255674
0.00259564
0.00263143
0.00266318
0.00268988
0.00271042
0.0027221
0.00272619
0.00272268
0.00270641
0.00267723
0.00263426
0.00257661
0.00250355
0.00241475
0.00231027
0.00219075
0.00205738
0.00191203
0.00175714
0.00159573
0.00143117
0.00126705
0.00110693
0.00095405
0.000811151
0.000680266
0.000562641
0.000458736
0.000368304
0.000290531
0.000224218
0.000167968
0.000120378
8.02458e-05
4.6817e-05
2.0179e-05
2.24485e-06
5.19962e-08
4.67009e-07
1.07431e-06
1.8083e-06
2.63563e-06
3.5345e-06
4.48836e-06
5.48342e-06
6.50761e-06
7.55004e-06
8.6009e-06
9.65154e-06
1.06946e-05
1.17243e-05
1.27365e-05
1.37291e-05
1.4702e-05
1.56577e-05
1.66008e-05
1.75387e-05
1.84813e-05
1.94414e-05
2.04345e-05
2.14795e-05
2.25981e-05
2.38155e-05
2.51607e-05
2.66663e-05
2.83693e-05
3.03112e-05
3.25384e-05
3.51024e-05
3.80605e-05
4.14756e-05
4.5417e-05
4.99601e-05
5.51872e-05
6.11866e-05
6.80535e-05
7.58895e-05
8.48019e-05
9.49044e-05
0.000106316
0.00011916
0.000133566
0.000149666
0.000167597
0.000187496
0.000209503
0.000233761
0.000260406
0.000289576
0.0003214
0.000355999
0.000393479
0.000433929
0.000477416
0.000523976
0.000573611
0.000626283
0.000681906
0.000740344
0.000801403
0.000864835
0.00093033
0.000997527
0.00106601
0.00113533
0.00120501
0.00127454
0.00134344
0.00141123
0.00147749
0.00154185
0.001604
0.00166376
0.00172099
0.00177567
0.00182789
0.00187779
0.00192561
0.00197164
0.00201621
0.00205966
0.00210236
0.00214464
0.00218681
0.00222914
0.00227182
0.002315
0.00235873
0.00240299
0.00244767
0.00249259
0.00253744
0.00258185
0.00262532
0.00266728
0.00270704
0.00274382
0.00277673
0.0028048
0.00282695
0.00284067
0.00284603
0.00284487
0.00283129
0.00280483
0.00276464
0.00270972
0.00263919
0.00255248
0.00244943
0.00233036
0.00219623
0.00204863
0.00188986
0.00172281
0.00155093
0.00137797
0.00120778
0.001044
0.000889805
0.000747692
0.000619307
0.000505425
0.000406006
0.000320332
0.000247203
0.00018515
0.000132658
8.84095e-05
5.15686e-05
2.22227e-05
2.47181e-06
5.78596e-08
5.19745e-07
1.19591e-06
2.0135e-06
2.93544e-06
3.93739e-06
5.00083e-06
6.1103e-06
7.25218e-06
8.41417e-06
9.58521e-06
1.07555e-05
1.19167e-05
1.30623e-05
1.41877e-05
1.52903e-05
1.63704e-05
1.74303e-05
1.84757e-05
1.95145e-05
2.05582e-05
2.1621e-05
2.27205e-05
2.38777e-05
2.5117e-05
2.64667e-05
2.79592e-05
2.96312e-05
3.15242e-05
3.36847e-05
3.61648e-05
3.90225e-05
4.2322e-05
4.61345e-05
5.05379e-05
5.56174e-05
6.1466e-05
6.81837e-05
7.58783e-05
8.46649e-05
9.46656e-05
0.000106009
0.000118831
0.000133272
0.000149478
0.0001676
0.000187792
0.00021021
0.000235012
0.000262355
0.000292394
0.000325275
0.000361138
0.000400108
0.000442289
0.000487764
0.000536579
0.000588745
0.000644224
0.000702927
0.000764703
0.000829338
0.000896549
0.000965986
0.00103723
0.00110981
0.00118319
0.00125681
0.0013301
0.00140248
0.0014734
0.00154236
0.00160893
0.00167277
0.00173365
0.00179144
0.00184614
0.00189784
0.00194676
0.00199319
0.00203748
0.00208004
0.0021213
0.0021617
0.00220166
0.00224153
0.00228163
0.00232223
0.00236351
0.00240557
0.00244844
0.00249205
0.00253625
0.00258081
0.00262541
0.00266965
0.00271304
0.002755
0.00279489
0.00283194
0.00286533
0.00289412
0.0029173
0.00293285
0.00293961
0.00294032
0.00292973
0.00290648
0.00286982
0.00281867
0.00275199
0.002669
0.00256926
0.00245278
0.00232017
0.00217272
0.00201244
0.00184207
0.00166498
0.00148503
0.00130629
0.00113277
0.000968123
0.000815307
0.000676435
0.000552667
0.000444232
0.000350568
0.000270513
0.000202554
0.00014508
9.66583e-05
5.63666e-05
2.42862e-05
2.70099e-06
6.3995e-08
5.74922e-07
1.32314e-06
2.22819e-06
3.24909e-06
4.35889e-06
5.53698e-06
6.7661e-06
8.03099e-06
9.31789e-06
1.06143e-05
1.19094e-05
1.31936e-05
1.44597e-05
1.57025e-05
1.69192e-05
1.811e-05
1.92777e-05
2.04285e-05
2.15715e-05
2.27194e-05
2.38882e-05
2.50975e-05
2.63706e-05
2.7735e-05
2.92222e-05
3.08682e-05
3.2714e-05
3.48058e-05
3.71955e-05
3.99414e-05
4.31081e-05
4.67677e-05
5.09997e-05
5.58916e-05
6.15391e-05
6.80464e-05
7.55263e-05
8.41001e-05
9.38974e-05
0.000105056
0.000117721
0.000132046
0.000148189
0.000166315
0.000186593
0.000209196
0.0002343
0.000262078
0.000292704
0.000326345
0.000363159
0.00040329
0.00044686
0.000493969
0.000544678
0.000599007
0.000656926
0.000718345
0.000783104
0.000850972
0.000921638
0.000994711
0.00106972
0.00114614
0.00122336
0.00130074
0.00137761
0.00145332
0.00152723
0.00159877
0.00166743
0.00173283
0.0017947
0.0018529
0.00190744
0.00195844
0.00200617
0.00205096
0.00209324
0.0021335
0.00217226
0.00221001
0.00224725
0.0022844
0.00232185
0.00235987
0.00239872
0.00243851
0.00247932
0.0025211
0.00256374
0.00260706
0.00265077
0.00269456
0.00273801
0.00278065
0.00282194
0.00286125
0.0028979
0.00293112
0.00296006
0.00298374
0.0030008
0.00300913
0.00301121
0.00300382
0.00298411
0.00295156
0.00290501
0.00284327
0.00276537
0.00267058
0.00255856
0.00242956
0.00228448
0.00212497
0.0019535
0.0017733
0.00158821
0.00140248
0.00122045
0.00104621
0.000883236
0.000734164
0.000600595
0.000483102
0.000381334
0.000294219
0.000220231
0.000157675
0.000105009
6.12192e-05
2.63723e-05
2.93271e-06
7.04149e-08
6.32652e-07
1.45624e-06
2.45278e-06
3.57721e-06
4.79982e-06
6.0978e-06
7.452e-06
8.84542e-06
1.02627e-05
1.169e-05
1.31149e-05
1.45271e-05
1.59183e-05
1.72828e-05
1.86176e-05
1.99228e-05
2.12018e-05
2.24612e-05
2.37116e-05
2.49668e-05
2.62449e-05
2.75675e-05
2.89607e-05
3.04549e-05
3.2085e-05
3.3891e-05
3.59184e-05
3.82185e-05
4.08489e-05
4.38744e-05
4.73669e-05
5.14065e-05
5.6082e-05
6.14909e-05
6.77401e-05
7.49461e-05
8.32352e-05
9.27431e-05
0.000103615
0.000116006
0.000130078
0.000146004
0.000163959
0.00018413
0.000206705
0.000231875
0.000259835
0.000290775
0.000324882
0.000362334
0.000403296
0.000447911
0.000496294
0.000548527
0.000604644
0.000664624
0.000728381
0.000795753
0.000866498
0.000940283
0.00101668
0.00109519
0.00117519
0.00125604
0.00133701
0.00141734
0.00149628
0.00157312
0.00164719
0.00171791
0.00178485
0.00184769
0.00190628
0.00196063
0.00201087
0.00205732
0.00210036
0.00214052
0.00217832
0.00221439
0.00224929
0.00228357
0.00231774
0.00235222
0.00238737
0.00242341
0.00246053
0.00249881
0.00253824
0.00257873
0.00262012
0.00266217
0.0027046
0.00274707
0.00278918
0.00283048
0.00287048
0.00290863
0.00294431
0.00297682
0.00300541
0.00302923
0.00304728
0.00305716
0.00306042
0.00305619
0.00304025
0.00301217
0.00297082
0.00291485
0.0028431
0.00275459
0.00264864
0.00252506
0.00238434
0.00222771
0.00205726
0.00187597
0.00168758
0.00149643
0.00130713
0.0011242
0.000951651
0.00079267
0.00064938
0.000522766
0.000412754
0.000318417
0.000238246
0.000170485
0.000113487
6.61393e-05
2.84864e-05
3.16754e-06
7.71331e-08
6.93061e-07
1.59552e-06
2.68778e-06
3.92052e-06
5.26111e-06
6.68446e-06
8.16938e-06
9.69704e-06
1.12504e-05
1.2814e-05
1.43741e-05
1.59193e-05
1.74403e-05
1.89309e-05
2.03878e-05
2.18111e-05
2.32048e-05
2.45762e-05
2.59371e-05
2.7303e-05
2.86937e-05
3.01334e-05
3.16509e-05
3.32798e-05
3.50586e-05
3.70317e-05
3.92492e-05
4.17679e-05
4.46514e-05
4.79714e-05
5.18076e-05
5.62489e-05
6.13936e-05
6.73501e-05
7.42373e-05
8.21848e-05
9.13332e-05
0.000101834
0.000113849
0.00012755
0.00014312
0.000160749
0.000180634
0.000202981
0.000227997
0.000255894
0.000286883
0.00032117
0.000358955
0.000400422
0.000445736
0.000495036
0.00054842
0.000605941
0.000667593
0.0007333
0.000802904
0.000876157
0.000952712
0.00103212
0.00111383
0.00119718
0.00128146
0.00136586
0.00144954
0.00153167
0.00161142
0.00168804
0.00176089
0.00182945
0.00189334
0.0019524
0.00200662
0.00205617
0.00210138
0.0021427
0.0021807
0.00221603
0.00224933
0.00228129
0.00231251
0.00234355
0.0023749
0.00240695
0.00244001
0.00247422
0.0025097
0.00254646
0.00258443
0.00262345
0.00266333
0.0027038
0.00274457
0.0027853
0.00282562
0.00286512
0.00290337
0.00293989
0.00297414
0.00300551
0.00303334
0.0030569
0.00307541
0.00308686
0.0030913
0.00308992
0.00307784
0.00305435
0.00301852
0.00296885
0.002904
0.00282277
0.00272413
0.00260749
0.00247286
0.00232099
0.00215354
0.0019731
0.00178322
0.00158823
0.00139294
0.00120226
0.00102073
0.00085215
0.000699213
0.000563394
0.000444972
0.000343215
0.000256679
0.000183564
0.000122123
7.11436e-05
3.0635e-05
3.40619e-06
8.41653e-08
7.5629e-07
1.74129e-06
2.93372e-06
4.27978e-06
5.7438e-06
7.29824e-06
8.91978e-06
1.05876e-05
1.22829e-05
1.39885e-05
1.56893e-05
1.73726e-05
1.90283e-05
2.06493e-05
2.22324e-05
2.37776e-05
2.52894e-05
2.67762e-05
2.82509e-05
2.97307e-05
3.12377e-05
3.27984e-05
3.44448e-05
3.62136e-05
3.81476e-05
4.02953e-05
4.27121e-05
4.54604e-05
4.86104e-05
5.22411e-05
5.64404e-05
6.13065e-05
6.6948e-05
7.3485e-05
8.10489e-05
8.97836e-05
9.98448e-05
0.000111401
0.000124631
0.000139726
0.000156888
0.000176327
0.000198263
0.00022292
0.000250527
0.000281313
0.000315506
0.000353326
0.00039498
0.000440655
0.000490512
0.000544674
0.000603214
0.000666144
0.000733405
0.000804849
0.00088023
0.000959194
0.00104127
0.00112589
0.00121234
0.00129985
0.00138754
0.00147449
0.00155977
0.00164246
0.00172172
0.00179681
0.00186713
0.00193225
0.00199196
0.00204623
0.00209524
0.00213935
0.00217906
0.00221501
0.00224789
0.00227848
0.00230749
0.00233563
0.00236351
0.00239167
0.00242056
0.0024505
0.00248172
0.00251428
0.00254823
0.00258349
0.00261994