/*--------------------------------*- C++ -*----------------------------------*\
  =========                 |
  \\      /  F ield         | OpenFOAM: The Open Source CFD Toolbox
   \\    /   O peration     | Website:  https://openfoam.org
    \\  /    A nd           | Version:  12
     \\/     M anipulation  |
\*---------------------------------------------------------------------------*/
FoamFile
{
    format      ascii;
    class       volScalarField;
    location    "6.5";
    object      nut;
}
// * * * * * * * * * * * * * * * * * * * * * * * * * * * * * * * * * * * * * //

dimensions      [0 2 -1 0 0 0 0];

internalField   nonuniform List<scalar> 
18225
(
6.88719e-15
4.66114e-14
1.03912e-13
1.72381e-13
2.49055e-13
3.32051e-13
4.19949e-13
5.11568e-13
6.05878e-13
7.01959e-13
7.98988e-13
8.96248e-13
9.93132e-13
1.08917e-12
1.18403e-12
1.27755e-12
1.36976e-12
1.46089e-12
1.55136e-12
1.64183e-12
1.73322e-12
1.82668e-12
1.92362e-12
2.02573e-12
2.13502e-12
2.25376e-12
2.3846e-12
2.53051e-12
2.69483e-12
2.88131e-12
3.0941e-12
3.33782e-12
3.61752e-12
3.93874e-12
4.30751e-12
4.73034e-12
5.21426e-12
5.76675e-12
6.3958e-12
7.10982e-12
7.91764e-12
8.82846e-12
9.85184e-12
1.09976e-11
1.22759e-11
1.36969e-11
1.52712e-11
1.70093e-11
1.89218e-11
2.10194e-11
2.33126e-11
2.58121e-11
2.85282e-11
3.1471e-11
3.46503e-11
3.80758e-11
4.17562e-11
4.57002e-11
4.99154e-11
5.44091e-11
5.91877e-11
6.42568e-11
6.96214e-11
7.52854e-11
8.12523e-11
8.75246e-11
9.4104e-11
1.00992e-10
1.08188e-10
1.15694e-10
1.23507e-10
1.31626e-10
1.4005e-10
1.48776e-10
1.57799e-10
1.67117e-10
1.76722e-10
1.8661e-10
1.96772e-10
2.07199e-10
2.17879e-10
2.28799e-10
2.39942e-10
2.51289e-10
2.62817e-10
2.74498e-10
2.86298e-10
2.9818e-10
3.10098e-10
3.21997e-10
3.33816e-10
3.45482e-10
3.56912e-10
3.6801e-10
3.78669e-10
3.88768e-10
3.98174e-10
4.06734e-10
4.1428e-10
4.20629e-10
4.25583e-10
4.28784e-10
4.30165e-10
4.30138e-10
4.27892e-10
4.23277e-10
4.16215e-10
4.06656e-10
3.94585e-10
3.80045e-10
3.63148e-10
3.44079e-10
3.23105e-10
3.00562e-10
2.76849e-10
2.5241e-10
2.27712e-10
2.03222e-10
1.79383e-10
1.56589e-10
1.35167e-10
1.15366e-10
9.73516e-11
8.12033e-11
6.69258e-11
5.4458e-11
4.36871e-11
3.44653e-11
2.66204e-11
1.99749e-11
1.43591e-11
9.62781e-12
5.68361e-12
2.52204e-12
3.71974e-13
2.0823e-13
6.78785e-12
1.70661e-11
2.90355e-11
4.23184e-11
5.66444e-11
7.17901e-11
8.75623e-11
1.03788e-10
1.20311e-10
1.36992e-10
1.53706e-10
1.7035e-10
1.86842e-10
2.03125e-10
2.19171e-10
2.34984e-10
2.50601e-10
2.66098e-10
2.81586e-10
2.97221e-10
3.132e-10
3.29767e-10
3.4721e-10
3.65871e-10
3.86143e-10
4.08476e-10
4.3338e-10
4.61427e-10
4.93258e-10
5.29585e-10
5.71197e-10
6.18958e-10
6.73818e-10
7.36807e-10
8.09041e-10
8.91721e-10
9.86129e-10
1.09363e-09
1.21566e-09
1.35373e-09
1.50941e-09
1.68433e-09
1.88016e-09
2.09864e-09
2.3415e-09
2.61051e-09
2.90746e-09
3.23416e-09
3.59239e-09
3.98395e-09
4.41059e-09
4.87406e-09
5.37603e-09
5.91814e-09
6.50195e-09
7.12892e-09
7.80043e-09
8.51772e-09
9.28193e-09
1.00941e-08
1.0955e-08
1.18654e-08
1.28258e-08
1.38368e-08
1.48986e-08
1.60114e-08
1.71753e-08
1.83901e-08
1.96558e-08
2.09722e-08
2.23388e-08
2.37552e-08
2.52209e-08
2.67353e-08
2.82976e-08
2.99068e-08
3.15621e-08
3.32621e-08
3.50054e-08
3.67904e-08
3.86149e-08
4.04765e-08
4.23724e-08
4.4299e-08
4.62522e-08
4.82271e-08
5.02178e-08
5.22173e-08
5.42175e-08
5.62087e-08
5.81794e-08
6.01164e-08
6.20046e-08
6.38266e-08
6.55626e-08
6.71907e-08
6.86858e-08
7.00189e-08
7.11593e-08
7.20644e-08
7.26687e-08
7.29551e-08
7.30294e-08
7.27211e-08
7.20081e-08
7.08761e-08
6.9314e-08
6.73167e-08
6.48889e-08
6.20477e-08
5.88238e-08
5.52618e-08
5.14199e-08
4.73673e-08
4.31819e-08
3.89459e-08
3.47418e-08
3.06478e-08
2.67333e-08
2.30563e-08
1.96601e-08
1.65735e-08
1.38101e-08
1.137e-08
9.24221e-09
7.40639e-09
5.83555e-09
4.50073e-09
3.37061e-09
2.41494e-09
1.60708e-09
9.2688e-10
3.65812e-10
1.12413e-11
4.42397e-13
3.64057e-11
1.17336e-10
2.13517e-10
3.18971e-10
4.31816e-10
5.50598e-10
6.73976e-10
8.00694e-10
9.29582e-10
1.05957e-09
1.18971e-09
1.31918e-09
1.44735e-09
1.57377e-09
1.6982e-09
1.82068e-09
1.94147e-09
2.06116e-09
2.18062e-09
2.30102e-09
2.42391e-09
2.55115e-09
2.68497e-09
2.82802e-09
2.98332e-09
3.15434e-09
3.345e-09
3.55971e-09
3.80341e-09
4.08158e-09
4.40026e-09
4.76613e-09
5.18645e-09
5.66915e-09
6.22279e-09
6.85658e-09
7.58032e-09
8.40446e-09
9.33996e-09
1.03983e-08
1.15915e-08
1.29318e-08
1.4432e-08
1.61049e-08
1.79636e-08
2.00215e-08
2.22915e-08
2.47872e-08
2.75214e-08
3.05073e-08
3.37573e-08
3.72839e-08
4.10987e-08
4.52131e-08
4.96376e-08
5.43818e-08
5.94546e-08
6.48636e-08
7.06155e-08
7.6716e-08
8.31692e-08
8.99783e-08
9.71454e-08
1.04671e-07
1.12556e-07
1.20799e-07
1.29397e-07
1.38348e-07
1.47649e-07
1.57297e-07
1.67286e-07
1.77613e-07
1.88272e-07
1.99259e-07
2.10567e-07
2.22191e-07
2.34124e-07
2.4636e-07
2.5889e-07
2.71706e-07
2.84797e-07
2.98151e-07
3.11753e-07
3.25585e-07
3.39624e-07
3.53845e-07
3.68215e-07
3.82693e-07
3.97233e-07
4.11776e-07
4.26249e-07
4.40569e-07
4.54636e-07
4.68332e-07
4.81522e-07
4.94052e-07
5.05745e-07
5.16391e-07
5.25759e-07
5.33609e-07
5.39306e-07
5.42536e-07
5.44583e-07
5.43734e-07
5.39835e-07
5.3275e-07
5.22348e-07
5.0854e-07
4.91316e-07
4.70766e-07
4.47095e-07
4.20627e-07
3.91804e-07
3.6117e-07
3.29345e-07
2.96993e-07
2.64789e-07
2.3337e-07
2.03307e-07
1.75073e-07
1.49022e-07
1.25384e-07
1.04266e-07
8.56641e-08
6.94839e-08
5.55587e-08
4.36716e-08
3.35818e-08
2.50347e-08
1.7781e-08
1.15925e-08
6.29029e-09
1.95247e-09
2.38378e-11
7.23757e-13
8.55614e-11
3.53611e-10
7.09642e-10
1.10433e-09
1.52475e-09
1.96513e-09
2.42094e-09
2.88791e-09
3.36199e-09
3.83936e-09
4.3166e-09
4.79073e-09
5.25938e-09
5.72086e-09
6.1743e-09
6.61973e-09
7.05812e-09
7.49152e-09
7.92306e-09
8.35704e-09
8.79896e-09
9.25559e-09
9.73502e-09
1.02467e-08
1.08017e-08
1.14123e-08
1.20928e-08
1.28589e-08
1.37284e-08
1.4721e-08
1.58583e-08
1.71641e-08
1.86646e-08
2.03878e-08
2.23643e-08
2.46269e-08
2.72102e-08
3.01512e-08
3.34884e-08
3.72622e-08
4.15142e-08
4.62872e-08
5.16247e-08
5.75708e-08
6.41699e-08
7.1466e-08
7.9503e-08
8.83237e-08
9.79702e-08
1.08483e-07
1.19901e-07
1.32261e-07
1.45597e-07
1.5994e-07
1.75319e-07
1.91757e-07
2.09275e-07
2.27888e-07
2.47608e-07
2.68442e-07
2.90391e-07
3.13453e-07
3.37623e-07
3.6289e-07
3.89243e-07
4.16664e-07
4.45136e-07
4.7464e-07
5.05157e-07
5.3667e-07
5.69159e-07
6.02609e-07
6.37e-07
6.72321e-07
7.08558e-07
7.45701e-07
7.83743e-07
8.22676e-07
8.62495e-07
9.03195e-07
9.44768e-07
9.87204e-07
1.03049e-06
1.0746e-06
1.11951e-06
1.16518e-06
1.21154e-06
1.25852e-06
1.306e-06
1.35386e-06
1.4019e-06
1.4499e-06
1.49756e-06
1.54455e-06
1.59045e-06
1.63477e-06
1.67694e-06
1.71631e-06
1.75212e-06
1.78394e-06
1.80778e-06
1.82419e-06
1.83754e-06
1.84117e-06
1.83442e-06
1.81669e-06
1.78735e-06
1.74589e-06
1.69207e-06
1.62605e-06
1.54838e-06
1.46009e-06
1.36269e-06
1.25807e-06
1.14846e-06
1.0363e-06
9.24082e-07
8.14198e-07
7.08804e-07
6.09694e-07
5.18222e-07
4.35269e-07
3.61251e-07
2.96168e-07
2.3967e-07
1.91143e-07
1.49783e-07
1.14685e-07
8.48932e-08
5.94591e-08
3.75302e-08
1.86801e-08
4.57002e-09
3.88643e-11
1.04362e-12
1.44611e-10
7.2025e-10
1.60526e-09
2.63066e-09
3.7313e-09
4.88278e-09
6.07141e-09
7.28607e-09
8.51652e-09
9.75315e-09
1.09871e-08
1.22108e-08
1.3418e-08
1.46042e-08
1.5767e-08
1.69063e-08
1.80244e-08
1.91265e-08
2.02204e-08
2.13169e-08
2.24302e-08
2.35771e-08
2.47784e-08
2.60578e-08
2.7443e-08
2.89654e-08
3.06607e-08
3.25685e-08
3.47332e-08
3.7204e-08
4.0035e-08
4.32855e-08
4.70201e-08
5.13088e-08
5.62267e-08
6.18543e-08
6.82767e-08
7.55836e-08
8.38686e-08
9.32283e-08
1.03762e-07
1.1557e-07
1.28755e-07
1.43418e-07
1.59658e-07
1.77575e-07
1.97262e-07
2.18812e-07
2.42309e-07
2.67836e-07
2.95465e-07
3.25264e-07
3.57289e-07
3.91589e-07
4.28202e-07
4.67155e-07
5.08463e-07
5.52129e-07
5.98145e-07
6.46493e-07
6.97143e-07
7.50057e-07
8.05188e-07
8.62484e-07
9.21888e-07
9.83342e-07
1.04678e-06
1.11216e-06
1.17941e-06
1.24851e-06
1.31942e-06
1.3921e-06
1.46655e-06
1.54276e-06
1.62072e-06
1.70046e-06
1.78201e-06
1.86541e-06
1.95069e-06
2.03792e-06
2.12715e-06
2.21843e-06
2.31182e-06
2.40734e-06
2.50502e-06
2.60485e-06
2.70681e-06
2.8108e-06
2.9167e-06
3.02428e-06
3.13321e-06
3.24305e-06
3.35325e-06
3.46307e-06
3.57163e-06
3.67782e-06
3.78035e-06
3.87792e-06
3.97004e-06
4.05179e-06
4.11691e-06
4.1657e-06
4.20877e-06
4.23023e-06
4.22765e-06
4.19953e-06
4.14418e-06
4.06002e-06
3.94626e-06
3.80288e-06
3.63093e-06
3.4326e-06
3.21118e-06
2.97104e-06
2.7174e-06
2.45604e-06
2.19299e-06
1.93414e-06
1.68483e-06
1.44961e-06
1.23197e-06
1.03427e-06
8.57673e-07
7.02325e-07
5.67462e-07
4.51622e-07
3.52852e-07
2.68898e-07
1.97351e-07
1.35848e-07
8.24942e-08
3.75353e-08
7.68746e-09
5.57529e-11
1.39596e-12
2.09123e-10
1.18178e-09
2.89514e-09
5.01488e-09
7.34205e-09
9.79075e-09
1.2319e-08
1.4899e-08
1.75078e-08
2.01247e-08
2.2731e-08
2.53101e-08
2.78486e-08
3.03368e-08
3.2769e-08
3.51447e-08
3.74683e-08
3.97501e-08
4.20061e-08
4.42587e-08
4.65366e-08
4.88749e-08
5.13157e-08
5.39082e-08
5.67088e-08
5.97817e-08
6.31994e-08
6.70426e-08
7.14013e-08
7.63747e-08
8.20718e-08
8.86115e-08
9.6123e-08
1.04745e-07
1.14628e-07
1.25928e-07
1.38814e-07
1.53458e-07
1.70041e-07
1.88748e-07
2.09764e-07
2.33277e-07
2.59472e-07
2.8853e-07
3.20626e-07
3.55926e-07
3.94586e-07
4.36749e-07
4.82545e-07
5.32085e-07
5.85465e-07
6.42761e-07
7.04028e-07
7.69301e-07
8.38589e-07
9.1188e-07
9.89139e-07
1.07031e-06
1.15531e-06
1.24404e-06
1.33641e-06
1.43229e-06
1.53155e-06
1.63406e-06
1.7397e-06
1.84833e-06
1.95986e-06
2.07416e-06
2.19118e-06
2.31091e-06
2.43338e-06
2.55854e-06
2.68639e-06
2.81699e-06
2.95044e-06
3.08683e-06
3.22629e-06
3.36899e-06
3.5151e-06
3.66481e-06
3.81831e-06
3.97581e-06
4.13749e-06
4.30354e-06
4.4741e-06
4.64928e-06
4.82913e-06
5.01362e-06
5.20264e-06
5.39616e-06
5.59338e-06
5.79357e-06
5.99574e-06
6.19861e-06
6.40058e-06
6.59955e-06
6.79286e-06
6.98001e-06
7.15831e-06
7.31523e-06
7.4467e-06
7.54705e-06
7.6368e-06
7.68985e-06
7.69844e-06
7.66032e-06
7.57252e-06
7.43256e-06
7.23833e-06
6.98952e-06
6.68772e-06
6.33651e-06
5.94153e-06
5.51035e-06
5.05217e-06
4.57734e-06
4.09679e-06
3.62136e-06
3.16113e-06
2.72482e-06
2.31932e-06
1.94948e-06
1.61797e-06
1.32542e-06
1.07072e-06
8.51343e-07
6.63724e-07
5.03592e-07
3.66354e-07
2.47604e-07
1.44627e-07
6.08108e-08
1.1048e-08
7.40625e-11
1.77699e-12
2.77701e-10
1.70582e-09
4.51553e-09
8.24925e-09
1.24891e-08
1.7011e-08
2.17004e-08
2.64894e-08
3.13284e-08
3.61757e-08
4.09946e-08
4.57534e-08
5.04263e-08
5.4994e-08
5.94453e-08
6.3778e-08
6.79992e-08
7.21269e-08
7.61895e-08
8.02268e-08
8.42901e-08
8.84426e-08
9.27594e-08
9.73283e-08
1.0225e-07
1.07638e-07
1.13621e-07
1.20342e-07
1.27958e-07
1.36644e-07
1.46589e-07
1.57999e-07
1.71097e-07
1.86123e-07
2.03331e-07
2.22987e-07
2.45372e-07
2.70776e-07
2.99493e-07
3.31822e-07
3.68062e-07
4.08503e-07
4.53431e-07
5.03113e-07
5.57801e-07
6.17726e-07
6.83089e-07
7.54067e-07
8.30803e-07
9.13407e-07
1.00195e-06
1.09648e-06
1.19698e-06
1.30342e-06
1.41573e-06
1.53379e-06
1.65745e-06
1.78654e-06
1.92086e-06
2.06025e-06
2.20446e-06
2.35325e-06
2.50641e-06
2.66372e-06
2.825e-06
2.99008e-06
3.15882e-06
3.33107e-06
3.50682e-06
3.68604e-06
3.86871e-06
4.05499e-06
4.24504e-06
4.43904e-06
4.63722e-06
4.83987e-06
5.0473e-06
5.25989e-06
5.47802e-06
5.70209e-06
5.93254e-06
6.1698e-06
6.41426e-06
6.66631e-06
6.92628e-06
7.1944e-06
7.47082e-06
7.75551e-06
8.04821e-06
8.34824e-06
8.6551e-06
8.96764e-06
9.28422e-06
9.60274e-06
9.92079e-06
1.02347e-05
1.05399e-05
1.08363e-05
1.11167e-05
1.1364e-05
1.1576e-05
1.17363e-05
1.18746e-05
1.19636e-05
1.19819e-05
1.19281e-05
1.1798e-05
1.15877e-05
1.12946e-05
1.09183e-05
1.04612e-05
9.92846e-06
9.3281e-06
8.67106e-06
7.97065e-06
7.24204e-06
6.50139e-06
5.76499e-06
5.0483e-06
4.365e-06
3.72631e-06
3.14041e-06
2.6123e-06
2.14378e-06
1.73383e-06
1.37899e-06
1.07392e-06
8.11972e-07
5.8595e-07
3.89275e-07
2.19535e-07
8.66624e-08
1.45524e-08
9.34628e-11
2.18437e-12
3.4995e-10
2.27226e-09
6.38907e-09
1.22393e-08
1.9149e-08
2.66639e-08
3.4527e-08
4.25845e-08
5.07326e-08
5.88904e-08
6.69904e-08
7.4975e-08
8.27976e-08
9.04234e-08
9.78311e-08
1.05015e-07
1.11984e-07
1.18767e-07
1.2541e-07
1.31975e-07
1.38548e-07
1.45229e-07
1.5214e-07
1.59425e-07
1.67243e-07
1.7578e-07
1.8524e-07
1.9585e-07
2.07862e-07
2.21549e-07
2.37209e-07
2.55166e-07
2.75764e-07
2.99372e-07
3.26378e-07
3.57189e-07
3.92222e-07
4.31907e-07
4.76676e-07
5.26957e-07
5.8317e-07
6.45718e-07
7.14979e-07
7.91298e-07
8.74986e-07
9.66307e-07
1.06548e-06
1.17266e-06
1.28797e-06
1.41145e-06
1.54309e-06
1.68285e-06
1.83062e-06
1.9862e-06
2.1494e-06
2.31995e-06
2.49755e-06
2.68186e-06
2.87253e-06
3.06916e-06
3.27145e-06
3.47907e-06
3.69172e-06
3.90912e-06
4.13107e-06
4.3574e-06
4.58803e-06
4.82298e-06
5.0622e-06
5.30575e-06
5.55377e-06
5.80652e-06
6.06433e-06
6.32757e-06
6.59667e-06
6.87214e-06
7.15452e-06
7.44441e-06
7.74247e-06
8.04935e-06
8.36575e-06
8.69233e-06
9.02973e-06
9.37854e-06
9.73923e-06
1.01121e-05
1.04974e-05
1.08949e-05
1.13042e-05
1.17243e-05
1.21542e-05
1.25919e-05
1.3035e-05
1.34802e-05
1.3923e-05
1.43585e-05
1.47809e-05
1.51853e-05
1.55659e-05
1.59016e-05
1.61895e-05
1.6401e-05
1.65696e-05
1.66823e-05
1.66948e-05
1.66078e-05
1.64176e-05
1.61198e-05
1.57118e-05
1.51935e-05
1.45681e-05
1.38423e-05
1.30263e-05
1.21339e-05
1.11819e-05
1.01897e-05
9.17781e-06
8.16757e-06
7.17942e-06
6.23191e-06
5.34071e-06
4.51781e-06
3.77104e-06
3.10406e-06
2.51648e-06
2.00441e-06
1.56107e-06
1.17758e-06
8.44101e-07
5.52437e-07
3.02563e-07
1.13865e-07
1.81531e-08
1.137e-10
2.6167e-12
4.2578e-10
2.87065e-09
8.45083e-09
1.68546e-08
2.71855e-08
3.86856e-08
5.08665e-08
6.34258e-08
7.61597e-08
8.89165e-08
1.01576e-07
1.14039e-07
1.26225e-07
1.38074e-07
1.49548e-07
1.60633e-07
1.71341e-07
1.81712e-07
1.91811e-07
2.01736e-07
2.11611e-07
2.21589e-07
2.31854e-07
2.42618e-07
2.54123e-07
2.66644e-07
2.80484e-07
2.95979e-07
3.13497e-07
3.33438e-07
3.56237e-07
3.82357e-07
4.12294e-07
4.4657e-07
4.85732e-07
5.30344e-07
5.80985e-07
6.38236e-07
7.02673e-07
7.7486e-07
8.55334e-07
9.44595e-07
1.0431e-06
1.15124e-06
1.26935e-06
1.3977e-06
1.53646e-06
1.68574e-06
1.84555e-06
2.01583e-06
2.19644e-06
2.38713e-06
2.58763e-06
2.7976e-06
3.01663e-06
3.24429e-06
3.48011e-06
3.72363e-06
3.97436e-06
4.2318e-06
4.49552e-06
4.76513e-06
5.04029e-06
5.32073e-06
5.60624e-06
5.89672e-06
6.19213e-06
6.49257e-06
6.79811e-06
7.10894e-06
7.42535e-06
7.74778e-06
8.07671e-06
8.41273e-06
8.75649e-06
9.10871e-06
9.47021e-06
9.84185e-06
1.02245e-05
1.06192e-05
1.10269e-05
1.14483e-05
1.18845e-05
1.23361e-05
1.28036e-05
1.32873e-05
1.37873e-05
1.4303e-05
1.48336e-05
1.53776e-05
1.59328e-05
1.64963e-05
1.70641e-05
1.76315e-05
1.81924e-05
1.87399e-05
1.92663e-05
1.97633e-05
2.02197e-05
2.0625e-05
2.09647e-05
2.12065e-05
2.13726e-05
2.14845e-05
2.1468e-05
2.13258e-05
2.10565e-05
2.06563e-05
2.0123e-05
1.94572e-05
1.86628e-05
1.77478e-05
1.6724e-05
1.56072e-05
1.44168e-05
1.31749e-05
1.19057e-05
1.06341e-05
9.38477e-06
8.1804e-06
7.0407e-06
5.98133e-06
5.01317e-06
4.14207e-06
3.36886e-06
2.68975e-06
2.09701e-06
1.57997e-06
1.12674e-06
7.28576e-07
3.89911e-07
1.41676e-07
2.18199e-08
1.34572e-10
3.07323e-12
5.05204e-10
3.49621e-09
1.06551e-08
2.19682e-08
3.64064e-08
5.28761e-08
7.05777e-08
8.89767e-08
1.0771e-07
1.26515e-07
1.45183e-07
1.63548e-07
1.81476e-07
1.9887e-07
2.15664e-07
2.31831e-07
2.4738e-07
2.62362e-07
2.7687e-07
2.91038e-07
3.05043e-07
3.19101e-07
3.33472e-07
3.48457e-07
3.64397e-07
3.81677e-07
4.00721e-07
4.21997e-07
4.46014e-07
4.73324e-07
5.04518e-07
5.40227e-07
5.81117e-07
6.27886e-07
6.81253e-07
7.41958e-07
8.10744e-07
8.8835e-07
9.75497e-07
1.07288e-06
1.18112e-06
1.30082e-06
1.43247e-06
1.57648e-06
1.73316e-06
1.90272e-06
2.08526e-06
2.28077e-06
2.48911e-06
2.71007e-06
2.94334e-06
3.18849e-06
3.44504e-06
3.71247e-06
3.99018e-06
4.27758e-06
4.57403e-06
4.87895e-06
5.19173e-06
5.51179e-06
5.83865e-06
6.17188e-06
6.51113e-06
6.85614e-06
7.20676e-06
7.56292e-06
7.92467e-06
8.29216e-06
8.6656e-06
9.04531e-06
9.43172e-06
9.82542e-06
1.02271e-05
1.06375e-05
1.10575e-05
1.14882e-05
1.19305e-05
1.23856e-05
1.28547e-05
1.3339e-05
1.38396e-05
1.43578e-05
1.48943e-05
1.545e-05
1.60252e-05
1.662e-05
1.72339e-05
1.78659e-05
1.85143e-05
1.91764e-05
1.98488e-05
2.05272e-05
2.1206e-05
2.18784e-05
2.25366e-05
2.31721e-05
2.3775e-05
2.43346e-05
2.48385e-05
2.52739e-05
2.56299e-05
2.58789e-05
2.60073e-05
2.60869e-05
2.60193e-05
2.58023e-05
2.54391e-05
2.49279e-05
2.4267e-05
2.34575e-05
2.25041e-05
2.14155e-05
2.02042e-05
1.88872e-05
1.74851e-05
1.60218e-05
1.45238e-05
1.30185e-05
1.15337e-05
1.00952e-05
8.72627e-06
7.44577e-06
6.26751e-06
5.19965e-06
4.24452e-06
3.39889e-06
2.65459e-06
1.9997e-06
1.42103e-06
9.10472e-07
4.78806e-07
1.69647e-07
2.55305e-08
1.55925e-10
3.55369e-12
5.88282e-10
4.14721e-09
1.29736e-08
2.74761e-08
4.66103e-08
6.89636e-08
9.33662e-08
1.18973e-07
1.4519e-07
1.71579e-07
1.97808e-07
2.23612e-07
2.4878e-07
2.73153e-07
2.96625e-07
3.19142e-07
3.40709e-07
3.61387e-07
3.81294e-07
4.0061e-07
4.1957e-07
4.38469e-07
4.57655e-07
4.77535e-07
4.98569e-07
5.21271e-07
5.46208e-07
5.74003e-07
6.05327e-07
6.40905e-07
6.81507e-07
7.27949e-07
7.81085e-07
8.41799e-07
9.10999e-07
9.89604e-07
1.07853e-06
1.17866e-06
1.29086e-06
1.41593e-06
1.55458e-06
1.70745e-06
1.87505e-06
2.05777e-06
2.25589e-06
2.4695e-06
2.6986e-06
2.94301e-06
3.20245e-06
3.4765e-06
3.76466e-06
4.06631e-06
4.38078e-06
4.70736e-06
5.04528e-06
5.3938e-06
5.75216e-06
6.11964e-06
6.49557e-06
6.87931e-06
7.27032e-06
7.66816e-06
8.07247e-06
8.48301e-06
8.89963e-06
9.32232e-06
9.75117e-06
1.01864e-05
1.06283e-05
1.10772e-05
1.15338e-05
1.19989e-05
1.24732e-05
1.29577e-05
1.34536e-05
1.39621e-05
1.44845e-05
1.50224e-05
1.5577e-05
1.61498e-05
1.67423e-05
1.73555e-05
1.79903e-05
1.86473e-05
1.93264e-05
2.00272e-05
2.07484e-05
2.14879e-05
2.22428e-05
2.30092e-05
2.37818e-05
2.45544e-05
2.53202e-05
2.60708e-05
2.67965e-05
2.74869e-05
2.81311e-05
2.8717e-05
2.92319e-05
2.96633e-05
2.99993e-05
3.02142e-05
3.02929e-05
3.0303e-05
3.01704e-05
2.98657e-05
2.94015e-05
2.87782e-05
2.79951e-05
2.70537e-05
2.59589e-05
2.47193e-05
2.33477e-05
2.1861e-05
2.02803e-05
1.86301e-05
1.6938e-05
1.52332e-05
1.35451e-05
1.19023e-05
1.03307e-05
8.85197e-06
7.48265e-06
6.23313e-06
5.10736e-06
4.10294e-06
3.21166e-06
2.42082e-06
1.71662e-06
1.09266e-06
5.67371e-07
1.97506e-07
2.92678e-08
1.77639e-10
4.05814e-12
6.75108e-10
4.82347e-09
1.53905e-08
3.33031e-08
5.76178e-08
8.66606e-08
1.1886e-07
1.52995e-07
1.88165e-07
2.237e-07
2.59085e-07
2.93914e-07
3.27868e-07
3.60704e-07
3.92257e-07
4.22436e-07
4.51229e-07
4.78703e-07
5.05004e-07
5.30358e-07
5.55068e-07
5.79516e-07
6.04155e-07
6.29513e-07
6.56184e-07
6.84833e-07
7.16189e-07
7.51048e-07
7.90266e-07
8.34758e-07
8.85493e-07
9.43487e-07
1.0098e-06
1.0855e-06
1.17171e-06
1.26952e-06
1.38e-06
1.50421e-06
1.64311e-06
1.79761e-06
1.96848e-06
2.15639e-06
2.36185e-06
2.58519e-06
2.8266e-06
3.08608e-06
3.36347e-06
3.65844e-06
3.97051e-06
4.29908e-06
4.64345e-06
5.00282e-06
5.37632e-06
5.76308e-06
6.16218e-06
6.57273e-06
6.99387e-06
7.42477e-06
7.86468e-06
8.31289e-06
8.76883e-06
9.23198e-06
9.70198e-06
1.01785e-05
1.06615e-05
1.11509e-05
1.16468e-05
1.21493e-05
1.2659e-05
1.31763e-05
1.37019e-05
1.42367e-05
1.47818e-05
1.53384e-05
1.59079e-05
1.64918e-05
1.70917e-05
1.77094e-05
1.83464e-05
1.90045e-05
1.96849e-05
2.03887e-05
2.11165e-05
2.18685e-05
2.26437e-05
2.3441e-05
2.42576e-05
2.50897e-05
2.59316e-05
2.67804e-05
2.76294e-05
2.84709e-05
2.92949e-05
3.00916e-05
3.08505e-05
3.15604e-05
3.22095e-05
3.27857e-05
3.32765e-05
3.36708e-05
3.39565e-05
3.41197e-05
3.41143e-05
3.40342e-05
3.38334e-05
3.34365e-05
3.28709e-05
3.21412e-05
3.12472e-05
3.01905e-05
2.89757e-05
2.7611e-05
2.61085e-05
2.44845e-05
2.27596e-05
2.0958e-05
1.91074e-05
1.72377e-05
1.53798e-05
1.35638e-05
1.18178e-05
1.01661e-05
8.62757e-06
7.21478e-06
5.93337e-06
4.78191e-06
3.75239e-06
2.83174e-06
2.00608e-06
1.27137e-06
6.54409e-07
2.25091e-07
3.30201e-08
1.99631e-10
4.58697e-12
7.65806e-10
5.52568e-09
1.78985e-08
3.93987e-08
6.92866e-08
1.05704e-07
1.46671e-07
1.90548e-07
2.36063e-07
2.82247e-07
3.28348e-07
3.73774e-07
4.18058e-07
4.60846e-07
5.01888e-07
5.41038e-07
5.78255e-07
6.13607e-07
6.47264e-07
6.79503e-07
7.10701e-07
7.41332e-07
7.71968e-07
8.0327e-07
8.35986e-07
8.70948e-07
9.09067e-07
9.51332e-07
9.98803e-07
1.0526e-06
1.11391e-06
1.18397e-06
1.26404e-06
1.35541e-06
1.45938e-06
1.57724e-06
1.71022e-06
1.85951e-06
2.02621e-06
2.21129e-06
2.41558e-06
2.63974e-06
2.88427e-06
3.14945e-06
3.43536e-06
3.74187e-06
4.06867e-06
4.41526e-06
4.78098e-06
5.16504e-06
5.56655e-06
5.98452e-06
6.41793e-06
6.86572e-06
7.32684e-06
7.80027e-06
8.28501e-06
8.78013e-06
9.28476e-06
9.79813e-06
1.03195e-05
1.08484e-05
1.13843e-05
1.19268e-05
1.24758e-05
1.30311e-05
1.35928e-05
1.41613e-05
1.47368e-05
1.53201e-05
1.59119e-05
1.65134e-05
1.7126e-05
1.7751e-05
1.83902e-05
1.90455e-05
1.97188e-05
2.04119e-05
2.11267e-05
2.18649e-05
2.26274e-05
2.34153e-05
2.42283e-05
2.50663e-05
2.59264e-05
2.68032e-05
2.76957e-05
2.86012e-05
2.95142e-05
3.04246e-05
3.1324e-05
3.22032e-05
3.30525e-05
3.38612e-05
3.46184e-05
3.53132e-05
3.59341e-05
3.64699e-05
3.69094e-05
3.72401e-05
3.74537e-05
3.75422e-05
3.74541e-05
3.72507e-05
3.69794e-05
3.65011e-05
3.58394e-05
3.50129e-05
3.40225e-05
3.28691e-05
3.15567e-05
3.0093e-05
2.84884e-05
2.6758e-05
2.49213e-05
2.30016e-05
2.1026e-05
1.90241e-05
1.70275e-05
1.50677e-05
1.31744e-05
1.1374e-05
9.68777e-06
8.1304e-06
6.70923e-06
5.42396e-06
4.26697e-06
3.22508e-06
2.28461e-06
1.44425e-06
7.39225e-07
2.52318e-07
3.67808e-08
2.21852e-10
5.14081e-12
8.60525e-10
6.25503e-09
2.04961e-08
4.57334e-08
8.15142e-08
1.25874e-07
1.76443e-07
2.31137e-07
2.8826e-07
3.46484e-07
4.04766e-07
4.62278e-07
5.18368e-07
5.72533e-07
6.24415e-07
6.73792e-07
7.20583e-07
7.64842e-07
8.06761e-07
8.46665e-07
8.85008e-07
9.22369e-07
9.59444e-07
9.97043e-07
1.03608e-06
1.07758e-06
1.12264e-06
1.17247e-06
1.22835e-06
1.29163e-06
1.36373e-06
1.44609e-06
1.54022e-06
1.64762e-06
1.76979e-06
1.90819e-06
2.06424e-06
2.23926e-06
2.43444e-06
2.65083e-06
2.88931e-06
3.15054e-06
3.43498e-06
3.74283e-06
4.07408e-06
4.42847e-06
4.80553e-06
5.20459e-06
5.62481e-06
6.06522e-06
6.52473e-06
7.00219e-06
7.49639e-06
8.00612e-06
8.53016e-06
9.06734e-06
9.61651e-06
1.01766e-05
1.07466e-05
1.13255e-05
1.19126e-05
1.25071e-05
1.31084e-05
1.3716e-05
1.43296e-05
1.49491e-05
1.55744e-05
1.62059e-05
1.68441e-05
1.74896e-05
1.81436e-05
1.88074e-05
1.94828e-05
2.01714e-05
2.08755e-05
2.15972e-05
2.23386e-05
2.31019e-05
2.38886e-05
2.47007e-05
2.55383e-05
2.64022e-05
2.72904e-05
2.81966e-05
2.91232e-05
3.00701e-05
3.10283e-05
3.19895e-05
3.2946e-05
3.38891e-05
3.48092e-05
3.56963e-05
3.65401e-05
3.73301e-05
3.80556e-05
3.87063e-05
3.9272e-05
3.97429e-05
4.01096e-05
4.03634e-05
4.0495e-05
4.04946e-05
4.03189e-05
3.99999e-05
3.96237e-05
3.90819e-05
3.83396e-05
3.74278e-05
3.63561e-05
3.51241e-05
3.37355e-05
3.21965e-05
3.05159e-05
2.8707e-05
2.67876e-05
2.47794e-05
2.27083e-05
2.06033e-05
1.84959e-05
1.64184e-05
1.44019e-05
1.24748e-05
1.06604e-05
8.97573e-06
7.42989e-06
6.02383e-06
4.75053e-06
3.59689e-06
2.5496e-06
1.61003e-06
8.21488e-07
2.7916e-07
4.05482e-08
2.44282e-10
5.7205e-12
9.59443e-10
7.01301e-09
2.31851e-08
5.22932e-08
9.42343e-08
1.47003e-07
2.07876e-07
2.74311e-07
3.44151e-07
4.15659e-07
4.87448e-07
5.5841e-07
6.27665e-07
6.94529e-07
7.58505e-07
8.19277e-07
8.76702e-07
9.30813e-07
9.81815e-07
1.03008e-06
1.07614e-06
1.12068e-06
1.16454e-06
1.20868e-06
1.2542e-06
1.30233e-06
1.35438e-06
1.41179e-06
1.47608e-06
1.54884e-06
1.63174e-06
1.72646e-06
1.83475e-06
1.95833e-06
2.09891e-06
2.25814e-06
2.4376e-06
2.63873e-06
2.86285e-06
3.11108e-06
3.38432e-06
3.68323e-06
4.00823e-06
4.35946e-06
4.73679e-06
5.13984e-06
5.56797e-06
6.02036e-06
6.49598e-06
6.99367e-06
7.51215e-06
8.05009e-06
8.60609e-06
9.17874e-06
9.76665e-06
1.03684e-05
1.09828e-05
1.16084e-05
1.2244e-05
1.28886e-05
1.3541e-05
1.42003e-05
1.48657e-05
1.55366e-05
1.62124e-05
1.68931e-05
1.75785e-05
1.8269e-05
1.89653e-05
1.96682e-05
2.03792e-05
2.11e-05
2.18327e-05
2.25795e-05
2.3343e-05
2.41257e-05
2.49297e-05
2.57572e-05
2.66096e-05
2.7489e-05
2.83933e-05
2.93159e-05
3.02616e-05
3.12352e-05
3.22252e-05
3.32226e-05
3.42216e-05
3.52136e-05
3.61896e-05
3.71399e-05
3.80542e-05
3.89224e-05
3.97343e-05
4.04799e-05
4.11498e-05
4.17347e-05
4.22259e-05
4.26154e-05
4.28953e-05
4.30587e-05
4.3099e-05
4.30106e-05
4.27604e-05
4.23409e-05
4.18602e-05
4.12192e-05
4.04249e-05
3.94414e-05
3.83023e-05
3.70081e-05
3.55614e-05
3.39677e-05
3.22335e-05
3.03698e-05
2.83923e-05
2.63209e-05
2.41796e-05
2.19964e-05
1.98022e-05
1.76295e-05
1.55106e-05
1.34756e-05
1.15501e-05
9.75315e-06
8.09596e-06
6.58094e-06
5.20187e-06
3.94589e-06
2.8001e-06
1.76831e-06
9.01132e-07
3.05634e-07
4.43252e-08
2.6693e-10
6.32709e-12
1.06276e-09
7.80133e-09
2.59698e-08
5.90751e-08
1.0741e-07
1.68974e-07
2.40739e-07
3.19696e-07
4.03202e-07
4.89075e-07
5.75538e-07
6.61159e-07
7.44791e-07
8.25538e-07
9.02737e-07
9.7595e-07
1.04496e-06
1.10976e-06
1.17057e-06
1.22779e-06
1.28205e-06
1.33413e-06
1.38502e-06
1.43585e-06
1.48792e-06
1.54267e-06
1.60165e-06
1.66654e-06
1.73913e-06
1.82127e-06
1.91487e-06
2.0219e-06
2.14434e-06
2.28413e-06
2.44322e-06
2.62344e-06
2.82654e-06
3.0541e-06
3.30754e-06
3.58805e-06
3.89656e-06
4.23375e-06
4.59997e-06
4.9953e-06
5.4195e-06
5.87206e-06
6.35219e-06
6.85888e-06
7.39093e-06
7.94697e-06
8.52553e-06
9.12505e-06
9.74391e-06
1.03805e-05
1.10332e-05
1.17003e-05
1.23803e-05
1.30716e-05
1.37727e-05
1.44823e-05
1.51988e-05
1.59213e-05
1.66485e-05
1.73798e-05
1.81144e-05
1.88521e-05
1.9593e-05
2.03374e-05
2.10862e-05
2.18409e-05
2.26031e-05
2.3375e-05
2.41592e-05
2.49586e-05
2.57759e-05
2.6614e-05
2.74752e-05
2.83615e-05
2.92724e-05
3.02058e-05
3.1159e-05
3.21434e-05
3.31504e-05
3.41721e-05
3.52033e-05
3.62322e-05
3.72524e-05
3.82542e-05
3.92275e-05
4.01623e-05
4.10483e-05
4.18758e-05
4.26352e-05
4.33178e-05
4.39153e-05
4.44201e-05
4.48251e-05
4.51238e-05
4.53103e-05
4.53789e-05
4.53244e-05
4.51415e-05
4.48156e-05
4.43136e-05
4.37399e-05
4.30341e-05
4.21542e-05
4.11227e-05
3.99247e-05
3.85812e-05
3.70909e-05
3.5459e-05
3.36889e-05
3.17893e-05
2.97738e-05
2.766e-05
2.54695e-05
2.32288e-05
2.09677e-05
1.87188e-05
1.65151e-05
1.43881e-05
1.23656e-05
1.0469e-05
8.71169e-06
7.09787e-06
5.62233e-06
4.27266e-06
3.03636e-06
1.91924e-06
9.78281e-07
3.31795e-07
4.81187e-08
2.8983e-10
6.9618e-12
1.1707e-09
8.6219e-09
2.88557e-08
6.60846e-08
1.21025e-07
1.91718e-07
2.74871e-07
3.67003e-07
4.64979e-07
5.66135e-07
6.68273e-07
7.69598e-07
8.68661e-07
9.64322e-07
1.05573e-06
1.14229e-06
1.22371e-06
1.29993e-06
1.37115e-06
1.43784e-06
1.50067e-06
1.56056e-06
1.61865e-06
1.67624e-06
1.73485e-06
1.79613e-06
1.86192e-06
1.93414e-06
2.01486e-06
2.1062e-06
2.21037e-06
2.3296e-06
2.46613e-06
2.62215e-06
2.79982e-06
3.00118e-06
3.22815e-06
3.48245e-06
3.76561e-06
4.07889e-06
4.42327e-06
4.79939e-06
5.20759e-06
5.64787e-06
6.11987e-06
6.62294e-06
7.15615e-06
7.71828e-06
8.30793e-06
8.92352e-06
9.56334e-06
1.02256e-05
1.09084e-05
1.16098e-05
1.23279e-05
1.30608e-05
1.38066e-05
1.45632e-05
1.5329e-05
1.61021e-05
1.68809e-05
1.76638e-05
1.84496e-05
1.92372e-05
2.0026e-05
2.08156e-05
2.16063e-05
2.23987e-05
2.31941e-05
2.39943e-05
2.48016e-05
2.56187e-05
2.64488e-05
2.72952e-05
2.81611e-05
2.90498e-05
2.99629e-05
3.09022e-05
3.18506e-05
3.28386e-05
3.38537e-05
3.48857e-05
3.59317e-05
3.69863e-05
3.80449e-05
3.90886e-05
4.01122e-05
4.11051e-05
4.20573e-05
4.29585e-05
4.37991e-05
4.45701e-05
4.52633e-05
4.5871e-05
4.63865e-05
4.68037e-05
4.71172e-05
4.73221e-05
4.74138e-05
4.73879e-05
4.72408e-05
4.69686e-05
4.65658e-05
4.59888e-05
4.53145e-05
4.45504e-05
4.36113e-05
4.25404e-05
4.13045e-05
3.99054e-05
3.83811e-05
3.67228e-05
3.49302e-05
3.30091e-05
3.09709e-05
2.88308e-05
2.66079e-05
2.43265e-05
2.20151e-05
1.97056e-05
1.74314e-05
1.52255e-05
1.31175e-05
1.11316e-05
9.28334e-06
7.57905e-06
6.01486e-06
4.57901e-06
3.25942e-06
2.06345e-06
1.05318e-06
3.57723e-07
5.19392e-08
3.13037e-10
7.626e-12
1.28352e-09
9.47678e-09
3.18499e-08
7.33327e-08
1.35083e-07
2.15202e-07
3.10171e-07
4.16031e-07
5.29152e-07
6.46368e-07
7.65028e-07
8.82942e-07
9.9833e-07
1.10978e-06
1.21622e-06
1.31691e-06
1.41143e-06
1.49966e-06
1.58181e-06
1.65834e-06
1.73005e-06
1.79794e-06
1.86332e-06
1.92768e-06
1.99276e-06
2.06047e-06
2.13289e-06
2.21226e-06
2.30092e-06
2.4013e-06
2.51591e-06
2.64724e-06
2.79783e-06
2.97012e-06
3.16649e-06
3.3892e-06
3.64034e-06
3.92179e-06
4.23517e-06
4.58183e-06
4.96276e-06
5.37863e-06
5.82972e-06
6.31593e-06
6.83682e-06
7.39158e-06
7.97907e-06
8.59791e-06
9.24644e-06
9.92283e-06
1.06251e-05
1.13511e-05
1.20988e-05
1.28657e-05
1.36497e-05
1.44483e-05
1.52593e-05
1.60804e-05
1.69092e-05
1.77437e-05
1.85817e-05
1.94214e-05
2.02614e-05
2.11004e-05
2.19378e-05
2.27734e-05
2.36077e-05
2.44418e-05
2.52773e-05
2.61168e-05
2.69632e-05
2.78199e-05
2.86908e-05
2.95796e-05
3.04892e-05
3.14245e-05
3.23747e-05
3.33563e-05
3.43613e-05
3.54e-05
3.64571e-05
3.75279e-05
3.85999e-05
3.96712e-05
4.0747e-05
4.17909e-05
4.2803e-05
4.37727e-05
4.46897e-05
4.55447e-05
4.63289e-05
4.70342e-05
4.76537e-05
4.81813e-05
4.86114e-05
4.89396e-05
4.91617e-05
4.92743e-05
4.92741e-05
4.91571e-05
4.89206e-05
4.85624e-05
4.80816e-05
4.74428e-05
4.66775e-05
4.58537e-05
4.48624e-05
4.37222e-05
4.24824e-05
4.1065e-05
3.94917e-05
3.78097e-05
3.60029e-05
3.40699e-05
3.202e-05
2.98656e-05
2.7623e-05
2.53141e-05
2.29655e-05
2.06081e-05
1.82753e-05
1.60011e-05
1.38172e-05
1.175e-05
9.81806e-06
8.02987e-06
6.3833e-06
4.86751e-06
3.47084e-06
2.20176e-06
1.12618e-06
3.83523e-07
5.57996e-08
3.36621e-10
8.32123e-12
1.40149e-09
1.03682e-08
3.49599e-08
8.08341e-08
1.49597e-07
2.39426e-07
3.46589e-07
4.66658e-07
5.95499e-07
7.2943e-07
8.65322e-07
1.00057e-06
1.13303e-06
1.261e-06
1.38317e-06
1.49861e-06
1.60679e-06
1.70752e-06
1.80098e-06
1.88767e-06
1.96845e-06
2.04447e-06
2.11717e-06
2.18826e-06
2.25971e-06
2.3337e-06
2.4126e-06
2.49893e-06
2.59537e-06
2.70466e-06
2.8296e-06
2.97301e-06
3.13769e-06
3.32637e-06