/*--------------------------------*- C++ -*----------------------------------*\
  =========                 |
  \\      /  F ield         | OpenFOAM: The Open Source CFD Toolbox
   \\    /   O peration     | Website:  https://openfoam.org
    \\  /    A nd           | Version:  12
     \\/     M anipulation  |
\*---------------------------------------------------------------------------*/
FoamFile
{
    format      ascii;
    class       surfaceScalarField;
    location    "6.5";
    object      phi;
}
// * * * * * * * * * * * * * * * * * * * * * * * * * * * * * * * * * * * * * //

dimensions      [0 3 -1 0 0 0 0];

internalField   nonuniform List<scalar> 
36180
(
-4.55902e-11
4.56188e-11
-7.54535e-11
2.98839e-11
-4.81518e-11
-2.72979e-11
4.88344e-11
-9.69934e-11
2.1418e-10
-1.65356e-10
4.41875e-10
-2.27706e-10
7.24025e-10
-2.82158e-10
1.05215e-09
-3.28125e-10
1.41772e-09
-3.65572e-10
1.81245e-09
-3.94727e-10
2.2284e-09
-4.15953e-10
2.65812e-09
-4.29709e-10
3.09465e-09
-4.36523e-10
3.53165e-09
-4.36988e-10
3.9634e-09
-4.31745e-10
4.38489e-09
-4.21478e-10
4.7918e-09
-4.06897e-10
5.18053e-09
-3.88726e-10
5.54823e-09
-3.67687e-10
5.89273e-09
-3.44491e-10
6.21256e-09
-3.19821e-10
6.50689e-09
-2.94328e-10
6.77552e-09
-2.68616e-10
7.01876e-09
-2.4324e-10
7.23745e-09
-2.18684e-10
7.43283e-09
-1.95366e-10
7.60648e-09
-1.73644e-10
7.7603e-09
-1.53817e-10
7.89641e-09
-1.36108e-10
8.01708e-09
-1.20666e-10
8.12465e-09
-1.07558e-10
8.22142e-09
-9.67739e-11
8.30966e-09
-8.82273e-11
8.39141e-09
-8.17539e-11
8.46853e-09
-7.71134e-11
8.54252e-09
-7.39907e-11
8.61452e-09
-7.19982e-11
8.68521e-09
-7.06786e-11
8.75471e-09
-6.95002e-11
8.82264e-09
-6.79276e-11
8.8879e-09
-6.52668e-11
8.9488e-09
-6.08921e-11
9.00288e-09
-5.40855e-11
9.04698e-09
-4.4101e-11
9.0772e-09
-3.02154e-11
9.08884e-09
-1.16465e-11
9.0765e-09
1.23403e-11
9.03402e-09
4.24787e-11
8.9545e-09
7.95203e-11
8.8303e-09
1.24199e-10
8.65306e-09
1.77239e-10
8.41369e-09
2.39374e-10
8.10234e-09
3.11346e-10
7.70843e-09
3.93912e-10
7.22057e-09
4.87859e-10
6.62657e-09
5.94002e-10
5.91345e-09
7.13116e-10
5.06733e-09
8.46123e-10
4.07353e-09
9.93794e-10
2.91657e-09
1.15696e-09
1.58013e-09
1.33645e-09
4.71408e-11
1.53298e-09
-1.7e-09
1.74714e-09
-3.67942e-09
1.97942e-09
-5.90949e-09
2.23007e-09
-8.4085e-09
2.49901e-09
-1.11944e-08
2.78595e-09
-1.42848e-08
3.09032e-09
-1.76959e-08
3.41114e-09
-2.14429e-08
3.74702e-09
-2.55391e-08
4.09616e-09
-2.99954e-08
4.45627e-09
-3.482e-08
4.82463e-09
-4.0018e-08
5.19804e-09
-4.55908e-08
5.57282e-09
-5.15357e-08
5.94488e-09
-5.78454e-08
6.30971e-09
-6.45078e-08
6.66241e-09
-7.15056e-08
6.9978e-09
-7.8816e-08
7.31038e-09
-8.64105e-08
7.59449e-09
-9.42548e-08
7.84429e-09
-1.02309e-07
8.05388e-09
-1.10526e-07
8.21732e-09
-1.18855e-07
8.32872e-09
-1.27237e-07
8.38224e-09
-1.35609e-07
8.3722e-09
-1.43902e-07
8.29311e-09
-1.52042e-07
8.1397e-09
-1.59949e-07
7.90701e-09
-1.67539e-07
7.59043e-09
-1.74725e-07
7.18583e-09
-1.81415e-07
6.68961e-09
-1.87514e-07
6.09891e-09
-1.92925e-07
5.41167e-09
-1.97551e-07
4.62589e-09
-2.01285e-07
3.73386e-09
-2.04032e-07
2.74689e-09
-2.05727e-07
1.69449e-09
-2.06265e-07
5.38209e-10
-2.0556e-07
-7.04782e-10
-2.03558e-07
-2.00226e-09
-2.00203e-07
-3.35485e-09
-1.95463e-07
-4.73972e-09
-1.89331e-07
-6.13209e-09
-1.81825e-07
-7.50602e-09
-1.72992e-07
-8.83263e-09
-1.62913e-07
-1.00795e-08
-1.51701e-07
-1.12122e-08
-1.39505e-07
-1.21954e-08
-1.2651e-07
-1.29952e-08
-1.1293e-07
-1.35804e-08
-9.90045e-08
-1.39252e-08
-8.49937e-08
-1.40109e-08
-7.11659e-08
-1.38277e-08
-5.77891e-08
-1.33768e-08
-4.51184e-08
-1.26707e-08
-3.3385e-08
-1.17333e-08
-2.27858e-08
-1.05992e-08
-1.34744e-08
-9.31143e-09
-5.55522e-09
-7.91918e-09
9.19079e-10
-6.4743e-09
5.9473e-09
-5.02822e-09
9.57474e-09
-3.62744e-09
1.18878e-08
-2.3131e-09
1.30054e-08
-1.11758e-09
1.30702e-08
-6.4771e-11
1.22411e-08
8.29069e-10
1.0693e-08
1.54809e-09
8.61227e-09
2.08076e-09
6.21363e-09
2.39864e-09
3.76083e-09
2.45281e-09
1.59804e-09
2.16278e-09
2.02726e-10
1.39532e-09
2.02726e-10
-7.78556e-11
1.23526e-10
-9.66197e-11
4.86837e-11
3.5375e-11
-1.59281e-10
3.46665e-10
-4.08286e-10
8.38353e-10
-6.57056e-10
1.49761e-09
-8.86979e-10
2.30532e-09
-1.08988e-09
3.2397e-09
-1.26251e-09
4.27815e-09
-1.40402e-09
5.39821e-09
-1.51479e-09
6.57816e-09
-1.5959e-09
7.79736e-09
-1.64891e-09
9.03654e-09
-1.67569e-09
1.0278e-08
-1.6784e-09
1.15056e-08
-1.65941e-09
1.27054e-08
-1.62123e-09
1.3865e-08
-1.56652e-09
1.49743e-08
-1.49795e-09
1.60248e-08
-1.41824e-09
1.70104e-08
-1.33004e-09
1.79265e-08
-1.23594e-09
1.87706e-08
-1.13837e-09
1.95416e-08
-1.03962e-09
2.02401e-08
-9.41784e-10
2.08682e-08
-8.46715e-10
2.14288e-08
-7.5602e-10
2.19263e-08
-6.71058e-10
2.23654e-08
-5.92937e-10
2.27518e-08
-5.22485e-10
2.30914e-08
-4.60241e-10
2.33902e-08
-4.06443e-10
2.36545e-08
-3.61031e-10
2.38899e-08
-3.23643e-10
2.41018e-08
-2.93621e-10
2.42947e-08
-2.70012e-10
2.44723e-08
-2.51574e-10
2.46371e-08
-2.36781e-10
2.47902e-08
-2.23838e-10
2.49314e-08
-2.10682e-10
2.50587e-08
-1.95154e-10
2.5168e-08
-1.74622e-10
2.52537e-08
-1.46576e-10
2.53078e-08
-1.0822e-10
2.53203e-08
-5.66159e-11
2.52791e-08
1.10728e-11
2.51695e-08
9.78889e-11
2.49751e-08
2.06768e-10
2.46769e-08
3.40629e-10
2.4254e-08
5.02428e-10
2.36832e-08
6.95068e-10
2.2939e-08
9.21437e-10
2.19939e-08
1.18442e-09
2.08183e-08
1.48695e-09
1.93803e-08
1.83196e-09
1.76456e-08
2.22248e-09
1.5578e-08
2.6616e-09
1.31389e-08
3.15229e-09
1.02872e-08
3.6978e-09
6.98006e-09
4.30094e-09
3.17231e-09
4.96471e-09
-1.18292e-09
5.69168e-09
-6.13454e-09
6.48461e-09
-1.17327e-08
7.34533e-09
-1.80277e-08
8.27444e-09
-2.50696e-08
9.27195e-09
-3.29079e-08
1.03372e-08
-4.15903e-08
1.14683e-08
-5.11619e-08
1.26619e-08
-6.16639e-08
1.39132e-08
-7.31324e-08
1.52156e-08
-8.55973e-08
1.65611e-08
-9.90808e-08
1.79398e-08
-1.13596e-07
1.934e-08
-1.29147e-07
2.07485e-08
-1.45724e-07
2.21503e-08
-1.63308e-07
2.35287e-08
-1.81864e-07
2.48659e-08
-2.01344e-07
2.61426e-08
-2.21685e-07
2.73387e-08
-2.42808e-07
2.84334e-08
-2.64619e-07
2.94052e-08
-2.87007e-07
3.02326e-08
-3.09847e-07
3.08939e-08
-3.32998e-07
3.13678e-08
-3.56303e-07
3.16334e-08
-3.79591e-07
3.16705e-08
-4.02678e-07
3.14596e-08
-4.25368e-07
3.09824e-08
-4.4745e-07
3.02217e-08
-4.68704e-07
2.91618e-08
-4.88903e-07
2.77887e-08
-5.07807e-07
2.60902e-08
-5.25174e-07
2.40566e-08
-5.40756e-07
2.16806e-08
-5.54303e-07
1.89586e-08
-5.65566e-07
1.58889e-08
-5.74298e-07
1.24662e-08
-5.80236e-07
8.68461e-09
-5.83206e-07
4.66437e-09
-5.82999e-07
3.31937e-10
-5.79444e-07
-4.26033e-09
-5.72373e-07
-9.0736e-09
-5.6169e-07
-1.4037e-08
-5.47346e-07
-1.90843e-08
-5.29349e-07
-2.41291e-08
-5.07776e-07
-2.90789e-08
-4.82776e-07
-3.38323e-08
-4.54578e-07
-3.82772e-08
-4.23495e-07
-4.22952e-08
-3.89924e-07
-4.57666e-08
-3.54344e-07
-4.85756e-08
-3.17307e-07
-5.06174e-08
-2.79428e-07
-5.18041e-08
-2.41366e-07
-5.20724e-08
-2.03805e-07
-5.13892e-08
-1.67425e-07
-4.97572e-08
-1.32878e-07
-4.72176e-08
-1.00761e-07
-4.38505e-08
-7.15875e-08
-3.97722e-08
-4.57694e-08
-3.51295e-08
-2.35974e-08
-3.00912e-08
-5.23408e-09
-2.48376e-08
9.28707e-09
-1.95494e-08
2.00552e-08
-1.43955e-08
2.72681e-08
-9.52608e-09
3.12145e-08
-5.06398e-09
3.22556e-08
-1.10582e-09
3.08096e-08
2.27508e-09
2.73426e-08
5.01508e-09
2.23672e-08
7.05614e-09
1.64752e-08
8.29063e-09
1.03698e-08
8.55826e-09
4.91843e-09
7.6141e-09
1.17332e-09
5.14043e-09
1.37605e-09
-6.7124e-11
1.9073e-10
-2.20366e-11
3.63115e-12
2.51654e-10
-4.32969e-10
7.94677e-10
-9.51324e-10
1.61044e-09
-1.47284e-09
2.68213e-09
-1.95869e-09
3.9826e-09
-2.39036e-09
5.47974e-09
-2.75965e-09
7.13945e-09
-3.06373e-09
8.92736e-09
-3.30269e-09
1.08098e-08
-3.47838e-09
1.27548e-08
-3.59382e-09
1.47319e-08
-3.65284e-09
1.67135e-08
-3.65993e-09
1.86741e-08
-3.62005e-09
2.05915e-08
-3.53856e-09
2.2446e-08
-3.42106e-09
2.42214e-08
-3.2733e-09
2.59042e-08
-3.10105e-09
2.74842e-08
-2.91e-09
2.89539e-08
-2.70568e-09
3.03089e-08
-2.49333e-09
3.15472e-08
-2.27787e-09
3.26692e-08
-2.06379e-09
3.36776e-08
-1.85509e-09
3.45768e-08
-1.65526e-09
3.5373e-08
-1.46723e-09
3.60734e-08
-1.29336e-09
3.66863e-08
-1.1354e-09
3.72206e-08
-9.94481e-10
3.76852e-08
-8.71076e-10
3.80892e-08
-7.65008e-10
3.8441e-08
-6.75446e-10
3.87483e-08
-6.00903e-10
3.90175e-08
-5.39245e-10
3.92537e-08
-4.87702e-10
3.94598e-08
-4.42888e-10
3.96368e-08
-4.00818e-10
3.9783e-08
-3.56936e-10
3.98943e-08
-3.06402e-10
3.99631e-08
-2.43474e-10
3.99791e-08
-1.62515e-10
3.99282e-08
-5.73317e-11
3.97931e-08
7.8496e-11
3.95527e-08
2.51467e-10
3.91824e-08
4.68114e-10
3.86541e-08
7.35095e-10
3.79358e-08
1.05895e-09
3.6992e-08
1.44623e-09
3.57836e-08
1.90344e-09
3.4268e-08
2.43701e-09
3.23991e-08
3.05339e-09
3.0127e-08
3.75902e-09
2.73985e-08
4.56042e-09
2.41569e-08
5.46416e-09
2.03416e-08
6.47685e-09
1.58889e-08
7.60503e-09
1.07319e-08
8.85479e-09
4.80041e-09
1.02324e-08
-1.97947e-09
1.17446e-08
-9.68432e-09
1.33965e-08
-1.83916e-08
1.51919e-08
-2.81797e-08
1.71333e-08
-3.91271e-08
1.92219e-08
-5.13118e-08
2.14566e-08
-6.48089e-08
2.38343e-08
-7.96896e-08
2.63491e-08
-9.60193e-08
2.89916e-08
-1.13856e-07
3.17496e-08
-1.33247e-07
3.46068e-08
-1.54229e-07
3.75435e-08
-1.76826e-07
4.05362e-08
-2.01043e-07
4.35576e-08
-2.26872e-07
4.65767e-08
-2.5428e-07
4.95592e-08
-2.83219e-07
5.24676e-08
-3.13615e-07
5.52618e-08
-3.45372e-07
5.78995e-08
-3.7837e-07
6.03367e-08
-4.12465e-07
6.25283e-08
-4.47489e-07
6.44287e-08
-4.83248e-07
6.59925e-08
-5.19529e-07
6.71747e-08
-5.56093e-07
6.79316e-08
-5.92681e-07
6.82212e-08
-6.29013e-07
6.80033e-08
-6.64794e-07
6.72405e-08
-6.9971e-07
6.58977e-08
-7.33431e-07
6.39432e-08
-7.65618e-07
6.13488e-08
-7.9592e-07
5.80904e-08
-8.23977e-07
5.4148e-08
-8.49428e-07
4.95072e-08
-8.71907e-07
4.41595e-08
-8.91051e-07
3.81032e-08
-9.06507e-07
3.13441e-08
-9.17934e-07
2.38935e-08
-9.24955e-07
1.57053e-08
-9.2734e-07
7.05006e-09
-9.24832e-07
-2.17672e-09
-9.17162e-07
-1.19298e-08
-9.04167e-07
-2.20691e-08
-8.85735e-07
-3.24687e-08
-8.61829e-07
-4.29901e-08
-8.32501e-07
-5.34578e-08
-7.97896e-07
-6.36832e-08
-7.58267e-07
-7.3462e-08
-7.13973e-07
-8.25712e-08
-6.65492e-07
-9.07761e-08
-6.13418e-07
-9.78402e-08
-5.58458e-07
-1.03536e-07
-5.01418e-07
-1.07657e-07
-4.43192e-07
-1.10031e-07
-3.84734e-07
-1.1053e-07
-3.27033e-07
-1.0909e-07
-2.71077e-07
-1.05712e-07
-2.17821e-07
-1.00474e-07
-1.6814e-07
-9.35311e-08
-1.22803e-07
-8.51092e-08
-8.24348e-08
-7.54978e-08
-4.74935e-08
-6.50325e-08
-1.82554e-08
-5.40758e-08
5.19031e-09
-4.2995e-08
2.29353e-08
-3.21405e-08
3.52365e-08
-2.18273e-08
4.24949e-08
-1.23224e-08
4.52303e-08
-3.8412e-09
4.40629e-08
3.44249e-09
3.96951e-08
9.38283e-09
3.29167e-08
1.38346e-08
2.46323e-08
1.6575e-08
1.58957e-08
1.72949e-08
7.95337e-09
1.55564e-08
2.22075e-09
1.0873e-08
3.5968e-09
-2.9981e-11
2.20784e-10
1.16299e-10
-1.42606e-10
5.60501e-10
-8.77156e-10
1.34923e-09
-1.74006e-09
2.48748e-09
-2.6111e-09
3.95577e-09
-3.427e-09
5.72109e-09
-4.15569e-09
7.74325e-09
-4.78183e-09
9.97882e-09
-5.2993e-09
1.23834e-08
-5.70726e-09
1.49132e-08
-6.00817e-09
1.7526e-08
-6.20665e-09
2.01821e-08
-6.30891e-09
2.28445e-08
-6.32236e-09
2.54798e-08
-6.25531e-09
2.8058e-08
-6.11674e-09
3.05531e-08
-5.91611e-09
3.29429e-08
-5.66314e-09
3.52095e-08
-5.36761e-09
3.73387e-08
-5.0392e-09
3.93203e-08
-4.68729e-09
4.11478e-08
-4.32082e-09
4.28181e-08
-3.94814e-09
4.43312e-08
-3.57691e-09
4.56901e-08
-3.21397e-09
4.69001e-08
-2.86526e-09
4.79687e-08
-2.53578e-09
4.89049e-08
-2.22953e-09
4.97189e-08
-1.94946e-09
5.04219e-08
-1.69743e-09
5.1025e-08
-1.47419e-09
5.15394e-08
-1.27936e-09
5.19753e-08
-1.11142e-09
5.23422e-08
-9.67716e-10
5.26474e-08
-8.44473e-10
5.28965e-08
-7.36805e-10
5.30924e-08
-6.38751e-10
5.32349e-08
-5.4332e-10
5.33205e-08
-4.42533e-10
5.33419e-08
-3.27826e-10
5.32877e-08
-1.89253e-10
5.3142e-08
-1.68176e-11
5.28843e-08
2.00391e-10
5.24893e-08
4.73483e-10
5.19268e-08
8.13956e-10
5.11616e-08
1.23333e-09
5.01534e-08
1.7433e-09
4.88569e-08
2.35544e-09
4.72218e-08
3.08131e-09
4.51929e-08
3.93234e-09
4.271e-08
4.9199e-09
3.97081e-08
6.0553e-09
3.61173e-08
7.34982e-09
3.18629e-08
8.81479e-09
2.68655e-08
1.04616e-08
2.10414e-08
1.23009e-08
1.43024e-08
1.4344e-08
6.55544e-09
1.66017e-08
-2.29716e-09
1.9085e-08
-1.23551e-08
2.18025e-08
-2.37205e-08
2.47619e-08
-3.64972e-08
2.79686e-08
-5.07896e-08
3.14258e-08
-6.67009e-08
3.51332e-08
-8.43314e-08
3.90871e-08
-1.03776e-07
4.32791e-08
-1.25123e-07
4.76959e-08
-1.4845e-07
5.23188e-08
-1.73824e-07
5.71229e-08
-2.01294e-07
6.20769e-08
-2.30894e-07
6.71434e-08
-2.62635e-07
7.22782e-08
-2.96509e-07
7.7431e-08
-3.32477e-07
8.25454e-08
-3.70478e-07
8.75596e-08
-4.10417e-07
9.2407e-08
-4.52172e-07
9.70169e-08
-4.95589e-07
1.01316e-07
-5.4048e-07
1.05228e-07
-5.86628e-07
1.08676e-07
-6.33784e-07
1.11585e-07
-6.8167e-07
1.13879e-07
-7.29979e-07
1.15484e-07
-7.78378e-07
1.16331e-07
-8.2651e-07
1.16352e-07
-8.73994e-07
1.15488e-07
-9.20433e-07
1.13679e-07
-9.65411e-07
1.10876e-07
-1.0085e-06
1.07033e-07
-1.04926e-06
1.02111e-07
-1.08725e-06
9.60788e-08
-1.12202e-06
8.89134e-08
-1.15311e-06
8.06005e-08
-1.18009e-06
7.11359e-08
-1.20251e-06
6.05268e-08
-1.21996e-06
4.87931e-08
-1.23203e-06
3.59643e-08
-1.23837e-06
2.20503e-08
-1.23863e-06
7.30953e-09
-1.23253e-06
-8.27728e-09
-1.21984e-06
-2.46275e-08
-1.20038e-06
-4.15294e-08
-1.17406e-06
-5.87829e-08
-1.14089e-06
-7.61594e-08
-1.10097e-06
-9.33775e-08
-1.05452e-06
-1.10133e-07
-1.00188e-06
-1.26101e-07
-9.43526e-07
-1.40929e-07
-8.80055e-07
-1.54247e-07
-8.12211e-07
-1.65685e-07
-7.40862e-07
-1.74884e-07
-6.66998e-07
-1.81522e-07
-5.91705e-07
-1.85324e-07
-5.16145e-07
-1.8609e-07
-4.41525e-07
-1.83711e-07
-3.69053e-07
-1.78184e-07
-2.99904e-07
-1.69624e-07
-2.35169e-07
-1.58266e-07
-1.75818e-07
-1.44461e-07
-1.22654e-07
-1.28661e-07
-7.62878e-08
-1.11399e-07
-3.71112e-08
-9.32523e-08
-5.28868e-09
-7.48176e-08
1.92412e-08
-5.66703e-08
3.67517e-08
-3.93378e-08
4.77063e-08
-2.32771e-08
5.27331e-08
-8.868e-09
5.25997e-08
3.57592e-09
4.81955e-08
1.37871e-08
4.05366e-08
2.14934e-08
3.07763e-08
2.63353e-08
2.02411e-08
2.78301e-08
1.04561e-08
2.53415e-08
3.11677e-09
1.82123e-08
6.71357e-09
2.30103e-11
1.97852e-10
2.95175e-10
-4.14729e-10
9.30437e-10
-1.51242e-09
1.97519e-09
-2.78483e-09
3.43411e-09
-4.07005e-09
5.2854e-09
-5.27832e-09
7.49143e-09
-6.36173e-09
1.00056e-08
-7.29602e-09
1.27768e-08
-8.0705e-09
1.57522e-08
-8.6827e-09
1.88794e-08
-9.13535e-09
2.21075e-08
-9.43474e-09
2.53883e-08
-9.5897e-09
2.8677e-08
-9.611e-09
3.19325e-08
-9.51085e-09
3.51184e-08
-9.30258e-09
3.82025e-08
-9.00023e-09
4.11577e-08
-8.61829e-09
4.39615e-08
-8.17136e-09
4.65962e-08
-7.67391e-09
4.90489e-08
-7.13996e-09
5.13109e-08
-6.5829e-09
5.33781e-08
-6.01524e-09
5.52496e-08
-5.44847e-09
5.69285e-08
-4.89284e-09
5.84205e-08
-4.35726e-09
5.97339e-08
-3.84921e-09
6.08791e-08
-3.37464e-09
6.18675e-08
-2.93792e-09
6.27119e-08
-2.54176e-09
6.34249e-08
-2.1872e-09
6.4019e-08
-1.87352e-09
6.45059e-08
-1.59829e-09
6.48956e-08
-1.35736e-09
6.51959e-08
-1.14483e-09
6.54122e-08
-9.53122e-10
6.55465e-08
-7.73007e-10
6.55969e-08
-5.93675e-10
6.55572e-08
-4.02902e-10
6.54166e-08
-1.87223e-10
6.51589e-08
6.84955e-11
6.47623e-08
3.79774e-10
6.41993e-08
7.63411e-10
6.34362e-08
1.2366e-09
6.2433e-08
1.81709e-09
6.11436e-08
2.52275e-09
5.95152e-08
3.37167e-09
5.74889e-08
4.38181e-09
5.49991e-08
5.57108e-09
5.19742e-08
6.95719e-09
4.83364e-08
8.55772e-09
4.40016e-08
1.03901e-08
3.88797e-08
1.24717e-08
3.28749e-08
1.48197e-08
2.58857e-08
1.74508e-08
1.78048e-08
2.03818e-08
8.51908e-09
2.36297e-08
-2.08887e-09
2.72097e-08
-1.41401e-08
3.11362e-08
-2.77593e-08
3.54217e-08
-4.30732e-08
4.00758e-08
-6.02091e-08
4.51045e-08
-7.92932e-08
5.05099e-08
-1.00449e-07
5.62887e-08
-1.23793e-07
6.24311e-08
-1.49434e-07
6.89207e-08
-1.77471e-07
7.57327e-08
-2.07986e-07
8.28335e-08
-2.41043e-07
9.01805e-08
-2.76687e-07
9.77209e-08
-3.14937e-07
1.05393e-07
-3.55782e-07
1.13124e-07
-3.99184e-07
1.20833e-07
-4.45068e-07
1.2843e-07
-4.93326e-07
1.35818e-07
-5.43813e-07
1.42893e-07
-5.96343e-07
1.49547e-07
-6.50694e-07
1.55667e-07
-7.06607e-07
1.6114e-07
-7.63782e-07
1.65852e-07
-8.21889e-07
1.69691e-07
-8.8056e-07
1.7255e-07
-9.39399e-07
1.74323e-07
-9.97983e-07
1.74914e-07
-1.05586e-06
1.74233e-07
-1.11257e-06
1.72197e-07
-1.16763e-06
1.68733e-07
-1.22053e-06
1.63776e-07
-1.27077e-06
1.57273e-07
-1.31784e-06
1.4918e-07
-1.36122e-06
1.39464e-07
-1.40042e-06
1.28107e-07
-1.43492e-06
1.15101e-07
-1.46424e-06
1.00455e-07
-1.4879e-06
8.41933e-08
-1.50547e-06
6.63596e-08
-1.51652e-06
4.70154e-08
-1.5207e-06
2.62321e-08
-1.51765e-06
4.25667e-09
-1.50709e-06
-1.88367e-08
-1.48882e-06
-4.28973e-08
-1.4627e-06
-6.76442e-08
-1.42869e-06
-9.27942e-08
-1.38683e-06
-1.1802e-07
-1.33728e-06
-1.42928e-07
-1.28033e-06
-1.67089e-07
-1.21638e-06
-1.90047e-07
-1.146e-06
-2.11313e-07
-1.06987e-06
-2.30375e-07
-9.88833e-07
-2.46719e-07
-9.03867e-07
-2.5985e-07
-8.16073e-07
-2.69316e-07
-7.26664e-07
-2.74733e-07
-6.36935e-07
-2.75818e-07
-5.48239e-07
-2.72408e-07
-4.61936e-07
-2.64487e-07
-3.7936e-07
-2.522e-07
-3.01765e-07
-2.3586e-07
-2.3028e-07
-2.15946e-07
-1.65862e-07
-1.93079e-07
-1.0926e-07
-1.68001e-07
-6.09844e-08
-1.41528e-07
-2.12889e-08
-1.14513e-07
9.83062e-09
-8.77898e-08
3.26286e-08
-6.21358e-08
4.75905e-08
-3.8239e-08
5.54072e-08
-1.66847e-08
5.6949e-08
2.03415e-09
5.32472e-08
1.74889e-08
4.54909e-08
2.92497e-08
3.50303e-08
3.6796e-08
2.34022e-08
3.94582e-08
1.23476e-08
3.63961e-08
3.8063e-09
2.67536e-08
1.05199e-08
8.4156e-11
1.13773e-10
4.9762e-10
-8.28144e-10
1.33744e-09
-2.35222e-09
2.64474e-09
-4.09214e-09
4.42167e-09
-5.847e-09
6.64367e-09
-7.50033e-09
9.26909e-09
-8.98717e-09
1.2246e-08
-1.0273e-08
1.5517e-08
-1.13415e-08
1.90221e-08
-1.21878e-08
2.27015e-08
-1.28147e-08
2.64968e-08
-1.323e-08
3.03524e-08
-1.34454e-08
3.42166e-08
-1.34751e-08
3.80418e-08
-1.3336e-08
4.17854e-08
-1.30461e-08
4.541e-08
-1.26248e-08
4.88836e-08
-1.20919e-08
5.21798e-08
-1.14676e-08
5.52777e-08
-1.07718e-08
5.81616e-08
-1.00238e-08
6.08208e-08
-9.24214e-09
6.32497e-08
-8.44413e-09
6.54468e-08
-7.64559e-09
6.74147e-08
-6.86069e-09
6.91592e-08
-6.10175e-09
7.0689e-08
-5.37905e-09
7.20152e-08
-4.70079e-09
7.31502e-08
-4.0729e-09
7.41075e-08
-3.49904e-09
7.49007e-08
-2.98044e-09
7.55432e-08
-2.51597e-09
7.60469e-08
-2.10204e-09
7.64222e-08
-1.7326e-09
7.66766e-08
-1.3992e-09
7.68144e-08
-1.09097e-09
7.68361e-08
-7.94738e-10
7.67376e-08
-4.95114e-10
7.65094e-08
-1.74683e-10
7.61362e-08
1.85897e-10
7.55968e-08
6.0789e-10
7.4863e-08
1.11361e-09
7.38995e-08
1.72687e-09
7.26639e-08
2.47222e-09
7.11061e-08
3.37492e-09
6.91683e-08
4.46052e-09
6.67852e-08
5.7548e-09
6.38836e-08
7.28344e-09
6.03827e-08
9.07197e-09
5.61942e-08
1.11457e-08
5.12223e-08
1.35296e-08
4.5364e-08
1.62484e-08
3.85092e-08
1.93265e-08
3.05409e-08
2.2788e-08
2.13353e-08
2.66564e-08
1.07622e-08
3.09549e-08
-1.31372e-09
3.57056e-08
-1.50331e-08
4.09291e-08
-3.05404e-08
4.66435e-08
-4.79827e-08
5.2864e-08
-6.75081e-08
5.96012e-08
-8.9264e-08
6.68604e-08
-1.13394e-07
7.46402e-08
-1.40037e-07
8.29312e-08
-1.6932e-07
9.17146e-08
-2.01361e-07
1.00961e-07
-2.36257e-07
1.10629e-07
-2.74089e-07
1.20666e-07
-3.14911e-07
1.31002e-07
-3.58749e-07
1.41559e-07
-4.05598e-07
1.52241e-07
-4.55415e-07
1.62941e-07
-5.08121e-07
1.73538e-07
-5.63593e-07
1.83902e-07
-6.21666e-07
1.93891e-07
-6.82131e-07
2.03359e-07
-7.44735e-07
2.12151e-07
-8.0918e-07
2.20112e-07
-8.75126e-07
2.27086e-07
-9.42192e-07
2.32919e-07
-1.00996e-06
2.37462e-07
-1.07799e-06
2.40574e-07
-1.14578e-06
2.4212e-07
-1.21285e-06
2.41979e-07
-1.27866e-06
2.4004e-07
-1.34266e-06
2.36206e-07
-1.40432e-06
2.30391e-07
-1.46307e-06
2.22525e-07
-1.51835e-06
2.12553e-07
-1.56961e-06
2.00436e-07
-1.61629e-06
1.86147e-07
-1.65786e-06
1.6968e-07
-1.69381e-06
1.51044e-07
-1.72362e-06
1.3027e-07
-1.74684e-06
1.07409e-07
-1.76301e-06
8.25358e-08
-1.77175e-06
5.57538e-08
-1.77271e-06
2.7193e-08
-1.76557e-06
-2.88994e-09
-1.75007e-06
-3.43342e-08
-1.72606e-06
-6.69066e-08
-1.69345e-06
-1.00258e-07
-1.65222e-06
-1.34016e-07
-1.60249e-06
-1.67754e-07
-1.54445e-06
-2.00966e-07
-1.47844e-06
-2.33097e-07
-1.40493e-06
-2.6356e-07
-1.32451e-06
-2.91729e-07
-1.23794e-06
-3.16948e-07
-1.1461e-06
-3.38559e-07
-1.05003e-06
-3.55923e-07
-9.50888e-07
-3.68457e-07
-8.4996e-07
-3.75662e-07
-7.4862e-07
-3.77158e-07
-6.48306e-07
-3.72721e-07
-5.50482e-07
-3.6231e-07
-4.56594e-07
-3.46088e-07
-3.68016e-07
-3.24438e-07
-2.86009e-07
-2.97954e-07
-2.11661e-07
-2.67427e-07
-1.4585e-07
-2.33811e-07
-8.92053e-08
-1.98173e-07
-4.20836e-08
-1.61635e-07
-4.55769e-09
-1.25316e-07
2.35803e-08
-9.02737e-08
4.28039e-08
-5.74626e-08
5.38299e-08
-2.77107e-08
5.7592e-08
-1.72796e-09
5.52227e-08
1.98583e-08
4.80391e-08
3.64332e-08
3.75426e-08
4.72924e-08
2.5434e-08
5.15669e-08
1.36288e-08
4.82013e-08
4.28426e-09
3.60981e-08
1.48041e-08
1.48899e-10
-3.50485e-11
7.11793e-10
-1.391e-09
1.76373e-09
-3.40415e-09
3.3365e-09
-5.66492e-09
5.42744e-09
-7.93797e-09
8.00841e-09
-1.00813e-08
1.10339e-08
-1.20127e-08
1.44473e-08
-1.36864e-08
1.81857e-08
-1.50799e-08
2.21833e-08
-1.61854e-08
2.63737e-08
-1.70051e-08
3.06922e-08
-1.75485e-08
3.50767e-08
-1.78299e-08
3.94694e-08
-1.78678e-08
4.38169e-08
-1.76835e-08
4.80713e-08
-1.73005e-08
5.21903e-08
-1.67438e-08
5.61378e-08
-1.60394e-08
5.98835e-08
-1.52134e-08
6.34035e-08
-1.42918e-08
6.66796e-08
-1.32998e-08
6.96992e-08
-1.22617e-08
7.2455e-08
-1.12e-08
7.49447e-08
-1.01353e-08
7.71702e-08
-9.08616e-09
7.91371e-08
-8.06865e-09
8.08542e-08
-7.09616e-09
8.23327e-08
-6.17929e-09
8.35855e-08
-5.32569e-09
8.46264e-08
-4.53994e-09
8.54694e-08
-3.82349e-09
8.6128e-08
-3.17455e-09
8.66141e-08
-2.58811e-09
8.69374e-08
-2.05591e-09
8.71046e-08
-1.56641e-09
8.71186e-08
-1.10493e-09
8.69775e-08
-6.53665e-10
8.66743e-08
-1.91848e-10
8.61956e-08
3.04018e-10
8.55214e-08
8.60037e-10
8.46246e-08
1.50469e-09
8.34701e-08
2.26818e-09
8.20144e-08
3.1825e-09
8.02059e-08
4.28075e-09
7.79839e-08
5.59697e-09
7.52787e-08
7.16565e-09
7.2012e-08
9.02153e-09
6.80962e-08
1.11993e-08
6.34349e-08
1.37333e-08
5.7923e-08
1.66576e-08
5.14467e-08
2.00058e-08
4.38842e-08
2.3811e-08
3.51052e-08
2.81055e-08
2.49719e-08
3.29212e-08
1.33394e-08
3.8289e-08
5.57624e-11
4.42385e-08
-1.50363e-08
5.07977e-08
-3.2099e-08
5.79918e-08
-5.12978e-08
6.58423e-08
-7.27995e-08
7.43658e-08
-9.67708e-08
8.35724e-08
-1.23375e-07
9.34643e-08
-1.52768e-07
1.04034e-07
-1.85099e-07
1.15262e-07
-2.20499e-07
1.27115e-07
-2.59086e-07
1.39548e-07
-3.00952e-07
1.52495e-07
-3.46163e-07
1.65877e-07
-3.94755e-07
1.79594e-07
-4.46725e-07
1.9353e-07
-5.02033e-07
2.07549e-07
-5.60593e-07
2.21501e-07
-6.22274e-07
2.35219e-07
-6.86896e-07
2.48523e-07
-7.54227e-07
2.61222e-07
-8.23988e-07
2.7312e-07
-8.95849e-07
2.84012e-07
-9.69433e-07
2.93696e-07
-1.04432e-06
3.01972e-07
-1.12005e-06
3.08645e-07
-1.19611e-06
3.13531e-07
-1.272e-06
3.16456e-07
-1.34714e-06
3.17262e-07
-1.42097e-06
3.15807e-07
-1.49289e-06
3.11968e-07
-1.56233e-06
3.05638e-07
-1.62866e-06
2.9673e-07
-1.69132e-06
2.85178e-07
-1.7497e-06
2.70934e-07
-1.80323e-06
2.53971e-07
-1.85137e-06
2.34281e-07
-1.89357e-06
2.11877e-07
-1.92932e-06
1.86796e-07
-1.95814e-06
1.59097e-07
-1.9796e-06
1.28865e-07
-1.99328e-06
9.62157e-08
-1.99882e-06
6.12965e-08
-1.99592e-06
2.42943e-08
-1.98431e-06
-1.45085e-08
-1.96377e-06
-5.487e-08
-1.9342e-06
-9.64761e-08
-1.89555e-06
-1.38908e-07
-1.84786e-06
-1.81708e-07
-1.79126e-06
-2.24351e-07
-1.726e-06
-2.66227e-07
-1.65244e-06
-3.06658e-07
-1.57107e-06
-3.44932e-07
-1.48251e-06
-3.80287e-07
-1.38753e-06
-4.1193e-07
-1.28703e-06
-4.39056e-07
-1.18206e-06
-4.60887e-07
-1.07382e-06
-4.76703e-07
-9.63598e-07
-4.85882e-07
-8.52815e-07
-4.87941e-07
-7.42956e-07
-4.8258e-07
-6.35547e-07
-4.69719e-07
-5.32112e-07
-4.49524e-07
-4.34119e-07
-4.22431e-07
-3.42934e-07
-3.89139e-07
-2.59764e-07
-3.50597e-07
-1.85607e-07
-3.07968e-07
-1.21213e-07
-2.62567e-07
-6.70476e-08
-2.158e-07
-2.32762e-08
-1.69087e-07
1.02404e-08
-1.2379e-07
3.39374e-08
-8.11597e-08
4.85273e-08
-4.23005e-08
5.49746e-08
-8.1753e-09
5.4475e-08
2.03578e-08
4.84377e-08
4.24705e-08
3.84787e-08
5.72515e-08
2.64261e-08
6.36195e-08
1.43398e-08
6.02876e-08
4.56557e-09
4.58723e-08
1.93697e-08
2.14208e-10
-2.49178e-10
9.29459e-10
-2.1062e-09
2.19627e-09
-4.67095e-09
4.03414e-09
-7.5028e-09
6.43358e-09
-1.03374e-08
9.36189e-09
-1.30097e-08
1.27695e-08
-1.54203e-08
1.65954e-08
-1.75123e-08
2.07719e-08
-1.92564e-08
2.5228e-08
-2.06415e-08
2.98919e-08
-2.1669e-08
3.46931e-08
-2.23497e-08
3.95641e-08
-2.2701e-08
4.44416e-08
-2.27453e-08
4.92672e-08
-2.2509e-08
5.39881e-08
-2.20214e-08
5.8558e-08
-2.13137e-08
6.29367e-08
-2.04181e-08
6.70907e-08
-1.93674e-08
7.09931e-08
-1.81942e-08
7.46234e-08
-1.69301e-08
7.7967e-08
-1.56053e-08
8.10152e-08
-1.42482e-08
8.37645e-08
-1.28846e-08
8.6216e-08
-1.15376e-08
8.83749e-08
-1.02275e-08
9.02495e-08
-8.97082e-09
9.18511e-08
-7.78081e-09
9.31923e-08
-6.66688e-09
9.42869e-08
-5.63454e-09
9.51487e-08
-4.68531e-09
9.57908e-08
-3.8166e-09
9.62243e-08
-3.02168e-09
9.64581e-08
-2.28966e-09
9.64972e-08
-1.60551e-09
9.63423e-08
-9.50093e-10
9.5989e-08
-3.00312e-10
9.54264e-08
3.70727e-10
9.4637e-08
1.09347e-09
9.35953e-08
1.9017e-09
9.22679e-08
2.83216e-09
9.06121e-08
3.92398e-09
8.85761e-08
5.21849e-09
8.60983e-08
6.75854e-09
8.31071e-08
8.58813e-09
7.95209e-08
1.07519e-08
7.52476e-08
1.32948e-08
7.01852e-08
1.62616e-08
6.42216e-08
1.96969e-08
5.72347e-08
2.36445e-08
4.9093e-08
2.81475e-08
3.96556e-08
3.32484e-08
2.87728e-08
3.89883e-08
1.62866e-08
4.54074e-08
2.03139e-09
5.25442e-08
-1.41651e-08
6.04351e-08
-3.24808e-08
6.91134e-08
-5.30974e-08
7.86084e-08
-7.61989e-08
8.89438e-08
-1.01969e-07
1.00136e-07
-1.30589e-07
1.12192e-07
-1.62233e-07
1.25109e-07
-1.97067e-07
1.38867e-07
-2.3524e-07
1.53434e-07
-2.76884e-07
1.68759e-07
-3.22106e-07
1.8477e-07
-3.70986e-07
2.01375e-07
-4.23567e-07
2.18458e-07
-4.79854e-07
2.35881e-07
-5.39808e-07
2.53484e-07
-6.03342e-07
2.71083e-07
-6.70318e-07
2.88477e-07
-7.40542e-07
3.05444e-07
-8.13768e-07
3.21749e-07
-8.89693e-07
3.37147e-07
-9.67959e-07
3.51386e-07
-1.04816e-06
3.6421e-07
-1.12983e-06
3.7537e-07
-1.21248e-06
3.84621e-07
-1.29556e-06
3.9173e-07
-1.37851e-06
3.96481e-07
-1.46074e-06
3.98676e-07
-1.54161e-06
3.98139e-07
-1.62052e-06
3.94716e-07
-1.69683e-06
3.8828e-07
-1.76992e-06
3.78727e-07
-1.83917e-06
3.65979e-07
-1.90397e-06
3.49981e-07
-1.96374e-06
3.30705e-07
-2.01792e-06
3.08146e-07
-2.06596e-06
2.82324e-07
-2.10737e-06
2.53281e-07
-2.14166e-06
2.21087e-07
-2.16839e-06
1.85836e-07
-2.18718e-06
1.47654e-07
-2.19766e-06
1.06697e-07
-2.19953e-06
6.31621e-08
-2.19252e-06
1.72872e-08
-2.17642e-06
-3.06096e-08
-2.15108e-06
-8.02134e-08
-2.11642e-06
-1.31137e-07
-2.07243e-06
-1.82896e-07
-2.01919e-06
-2.34951e-07
-1.95685e-06
-2.86685e-07
-1.88568e-06
-3.37395e-07
-1.80605e-06
-3.86292e-07
-1.71844e-06
-4.32539e-07
-1.62348e-06
-4.75251e-07
-1.52191e-06
-5.13497e-07
-1.41463e-06
-5.46335e-07
-1.30268e-06
-5.72841e-07
-1.18723e-06
-5.92159e-07
-1.06957e-06
-6.03535e-07
-9.51141e-07
-6.06373e-07
-8.33436e-07
-6.00285e-07
-7.18021e-07
-5.85133e-07
-6.06474e-07
-5.61072e-07
-5.00337e-07
-5.28567e-07
-4.01067e-07
-4.88409e-07
-3.09976e-07
-4.41689e-07
-2.28177e-07
-3.89766e-07
-1.56539e-07
-3.34205e-07
-9.56428e-08
-2.76697e-07
-4.57572e-08
-2.18973e-07
-6.82736e-09
-1.6272e-07
2.15232e-08
-1.0951e-07
3.99781e-08
-6.07554e-08
4.95058e-08
-1.7703e-08
5.13353e-08
1.85284e-08
4.69377e-08
4.68681e-08
3.80123e-08
6.61768e-08
2.64867e-08
7.51452e-08
1.45397e-08
7.22345e-08
4.6737e-09
5.57383e-08
2.40434e-08
2.78182e-10
-5.27286e-10
1.14497e-09
-2.97294e-09
2.62565e-09
-6.15163e-09
4.72544e-09
-9.60261e-09
7.42641e-09
-1.30384e-08
1.06902e-08
-1.62735e-08
1.44629e-08
-1.91929e-08
1.86791e-08
-2.17286e-08
2.32669e-08
-2.38442e-08
2.81505e-08
-2.5525e-08
3.32532e-08
-2.67718e-08
3.84999e-08
-2.75963e-08
4.38181e-08
-2.80191e-08
4.91396e-08
-2.80669e-08
5.44018e-08
-2.77712e-08
5.95477e-08
-2.71673e-08
6.4527e-08
-2.62929e-08
6.92962e-08
-2.51872e-08
7.38188e-08
-2.38899e-08
7.80651e-08
-2.24405e-08
8.20125e-08
-2.08774e-08
8.56446e-08
-1.92373e-08
8.8951e-08
-1.75546e-08
9.1927e-08
-1.58606e-08
9.45729e-08
-1.41835e-08
9.6893e-08
-1.25476e-08
9.88952e-08
-1.0973e-08
1.0059e-07
-9.47562e-09
1.0199e-07
-8.06664e-09
1.03108e-07
-6.75246e-09
1.03957e-07
-5.53453e-09
1.0455e-07
-4.40923e-09
1.04896e-07
-3.36782e-09
1.05002e-07
-2.39639e-09
1.04873e-07
-1.47589e-09
1.04505e-07
-5.82174e-10
1.03891e-07
3.1381e-10
1.03016e-07
1.24586e-09
1.01857e-07
2.25221e-09
1.00383e-07
3.37522e-09
9.85546e-08
4.66092e-09
9.63202e-08
6.15842e-09
9.36192e-08
7.91947e-09
9.03799e-08
9.99779e-09
8.65195e-08
1.24485e-08
8.19437e-08
1.53277e-08
7.6547e-08
1.86915e-08
7.02125e-08
2.25961e-08
6.28122e-08
2.70971e-08
5.42074e-08
3.22493e-08
4.42486e-08
3.81063e-08
3.27764e-08
4.47205e-08
1.96223e-08
5.21425e-08
4.60856e-09
6.04211e-08
-1.24498e-08
6.96025e-08
-3.17442e-08
7.97295e-08
-5.34711e-08
9.08402e-08
-7.78297e-08
1.02967e-07
-1.0502e-07
1.16134e-07
-1.35238e-07
1.30355e-07
-1.68677e-07
1.45631e-07
-2.05516e-07
1.61948e-07
-2.45923e-07
1.79274e-07
-2.90045e-07
1.97557e-07
-3.38004e-07
2.16718e-07
-3.89892e-07
2.36658e-07
-4.45762e-07
2.57245e-07
-5.05628e-07
2.78324e-07
-5.69456e-07
2.99709e-07
-6.37158e-07
3.21186e-07
-7.08593e-07
3.42518e-07
-7.83559e-07
3.63443e-07
-8.61796e-07
3.8368e-07
-9.42982e-07
4.02935e-07
-1.02674e-06
4.20902e-07
-1.11262e-06
4.37274e-07
-1.20016e-06
4.51743e-07
-1.2888e-06
4.64013e-07
-1.37798e-06
4.73799e-07
-1.46709e-06
4.80838e-07
-1.55549e-06
4.84887e-07
-1.64255e-06
4.85732e-07
-1.7276e-06
4.8319e-07
-1.80999e-06
4.77107e-07
-1.88907e-06
4.67363e-07
-1.96421e-06
4.53866e-07
-2.03479e-06
4.36558e-07
-2.10022e-06
4.15411e-07
-2.15994e-06
3.90424e-07
-2.21342e-06
3.61623e-07
-2.26016e-06
3.29064e-07
-2.2997e-06
2.92825e-07
-2.33163e-06
2.53013e-07
-2.35556e-06
2.09764e-07
-2.37115e-06
1.63243e-07
-2.3781e-06
1.1365e-07
-2.37617e-06
6.12262e-08
-2.36513e-06
6.25665e-09
-2.34484e-06
-5.09028e-08
-2.31518e-06
-1.09874e-07
-2.27611e-06
-1.70207e-07
-2.22765e-06
-2.31359e-07
-2.16988e-06
-2.92717e-07
-2.10298e-06
-3.53583e-07
-2.02721e-06
-4.1317e-07
-1.94291e-06
-4.70589e-07
-1.85056e-06
-5.24889e-07
-1.75075e-06