/*--------------------------------*- C++ -*----------------------------------*\
  =========                 |
  \\      /  F ield         | OpenFOAM: The Open Source CFD Toolbox
   \\    /   O peration     | Website:  https://openfoam.org
    \\  /    A nd           | Version:  12
     \\/     M anipulation  |
\*---------------------------------------------------------------------------*/
FoamFile
{
    format      ascii;
    class       volVectorField;
    location    "6.5";
    object      U;
}
// * * * * * * * * * * * * * * * * * * * * * * * * * * * * * * * * * * * * * //

dimensions      [0 1 -1 0 0 0 0];

internalField   nonuniform List<vector> 
18225
(
(-3.06894e-06 1.07481e-06 0)
(-9.66564e-06 8.50705e-07 0)
(-1.02796e-05 1.52731e-07 0)
(-2.03439e-06 -7.23265e-07 0)
(1.57503e-05 -1.54706e-06 0)
(4.24721e-05 -2.27862e-06 0)
(7.71266e-05 -2.9015e-06 0)
(0.000118577 -3.41661e-06 0)
(0.000165661 -3.82922e-06 0)
(0.000217235 -4.14581e-06 0)
(0.000272198 -4.37244e-06 0)
(0.000329509 -4.51578e-06 0)
(0.000388191 -4.58223e-06 0)
(0.000447345 -4.5792e-06 0)
(0.000506157 -4.51408e-06 0)
(0.0005639 -4.39515e-06 0)
(0.000619944 -4.23059e-06 0)
(0.000673755 -4.02901e-06 0)
(0.000724897 -3.79861e-06 0)
(0.000773031 -3.54754e-06 0)
(0.000817913 -3.28332e-06 0)
(0.000859389 -3.01332e-06 0)
(0.000897391 -2.74415e-06 0)
(0.000931927 -2.48189e-06 0)
(0.000963078 -2.23147e-06 0)
(0.000990984 -1.99701e-06 0)
(0.00101584 -1.78217e-06 0)
(0.00103788 -1.59041e-06 0)
(0.00105739 -1.42454e-06 0)
(0.00107465 -1.28648e-06 0)
(0.00108999 -1.17718e-06 0)
(0.00110371 -1.09673e-06 0)
(0.00111614 -1.04441e-06 0)
(0.00112755 -1.01874e-06 0)
(0.00113823 -1.01741e-06 0)
(0.00114839 -1.03742e-06 0)
(0.00115822 -1.07497e-06 0)
(0.00116785 -1.12563e-06 0)
(0.00117732 -1.18376e-06 0)
(0.00118663 -1.24519e-06 0)
(0.00119567 -1.30153e-06 0)
(0.00120427 -1.34789e-06 0)
(0.00121213 -1.37634e-06 0)
(0.00121888 -1.37985e-06 0)
(0.00122404 -1.35159e-06 0)
(0.00122705 -1.28429e-06 0)
(0.0012272 -1.17103e-06 0)
(0.00122372 -1.00348e-06 0)
(0.00121573 -7.75286e-07 0)
(0.00120225 -4.79567e-07 0)
(0.0011822 -1.0953e-07 0)
(0.0011544 3.41853e-07 0)
(0.00111758 8.81857e-07 0)
(0.00107034 1.51801e-06 0)
(0.00101122 2.2584e-06 0)
(0.000938618 3.11178e-06 0)
(0.000850836 4.08584e-06 0)
(0.00074606 5.19183e-06 0)
(0.000622366 6.44272e-06 0)
(0.00047771 7.84861e-06 0)
(0.000309948 9.42347e-06 0)
(0.000116821 1.11719e-05 0)
(-0.000104018 1.31042e-05 0)
(-0.000354983 1.52322e-05 0)
(-0.000638552 1.7569e-05 0)
(-0.000957208 2.01197e-05 0)
(-0.00131341 2.28873e-05 0)
(-0.00170956 2.58746e-05 0)
(-0.00214795 2.90801e-05 0)
(-0.00263074 3.24988e-05 0)
(-0.00315984 3.61211e-05 0)
(-0.00373691 3.99329e-05 0)
(-0.00436326 4.39149e-05 0)
(-0.00503979 4.80422e-05 0)
(-0.00576697 5.22845e-05 0)
(-0.0065447 5.66055e-05 0)
(-0.00737232 6.09631e-05 0)
(-0.00824855 6.53098e-05 0)
(-0.0091714 6.95923e-05 0)
(-0.0101382 7.37524e-05 0)
(-0.0111454 7.77273e-05 0)
(-0.0121888 8.14499e-05 0)
(-0.0132634 8.48496e-05 0)
(-0.0143634 8.78527e-05 0)
(-0.0154821 9.03832e-05 0)
(-0.0166121 9.23631e-05 0)
(-0.0177452 9.37133e-05 0)
(-0.0188724 9.4354e-05 0)
(-0.0199841 9.42057e-05 0)
(-0.0210698 9.31896e-05 0)
(-0.0221185 9.12288e-05 0)
(-0.0231187 8.82495e-05 0)
(-0.0240581 8.41825e-05 0)
(-0.0249242 7.89644e-05 0)
(-0.0257041 7.25441e-05 0)
(-0.0263846 6.49017e-05 0)
(-0.0269512 5.57e-05 0)
(-0.0273922 4.54643e-05 0)
(-0.0276938 3.40753e-05 0)
(-0.027846 2.08763e-05 0)
(-0.027838 7.09704e-06 0)
(-0.0276562 -7.7497e-06 0)
(-0.0272956 -2.37139e-05 0)
(-0.0267495 -4.03236e-05 0)
(-0.0260152 -5.72781e-05 0)
(-0.0250934 -7.42606e-05 0)
(-0.0239884 -9.08983e-05 0)
(-0.0227088 -0.000106754 0)
(-0.0212675 -0.000121353 0)
(-0.0196825 -0.000134204 0)
(-0.0179762 -0.000144826 0)
(-0.0161756 -0.000152774 0)
(-0.0143116 -0.000157673 0)
(-0.0124181 -0.000159249 0)
(-0.0105311 -0.000157363 0)
(-0.00868708 -0.000152024 0)
(-0.00692164 -0.000143411 0)
(-0.00526795 -0.000131864 0)
(-0.00375517 -0.000117873 0)
(-0.00240717 -0.00010204 0)
(-0.00124152 -8.50418e-05 0)
(-0.000268871 -6.75781e-05 0)
(0.000507164 -5.03286e-05 0)
(0.00108971 -3.38735e-05 0)
(0.00148781 -1.86822e-05 0)
(0.00171561 -5.13167e-06 0)
(0.00179093 6.55643e-06 0)
(0.00173419 1.63211e-05 0)
(0.00156828 2.40342e-05 0)
(0.00131696 2.96659e-05 0)
(0.00100727 3.29406e-05 0)
(0.000670735 3.31431e-05 0)
(0.000347363 2.9115e-05 0)
(9.53977e-05 1.7666e-05 0)
(-1.07005e-05 -3.92845e-06 0)
(-5.5277e-06 5.92588e-06 0)
(-1.60207e-05 3.50276e-06 0)
(-9.53528e-06 -4.30782e-06 0)
(1.99327e-05 -1.37442e-05 0)
(7.43342e-05 -2.30825e-05 0)
(0.000152534 -3.16375e-05 0)
(0.000252212 -3.91328e-05 0)
(0.000370521 -4.54736e-05 0)
(0.000504419 -5.06474e-05 0)
(0.000650839 -5.46806e-05 0)
(0.000806782 -5.76212e-05 0)
(0.000969378 -5.95313e-05 0)
(0.00113592 -6.04829e-05 0)
(0.00130392 -6.05576e-05 0)
(0.00147108 -5.98432e-05 0)
(0.00163537 -5.84338e-05 0)
(0.001795 -5.64264e-05 0)
(0.00194845 -5.39211e-05 0)
(0.00209448 -5.10168e-05 0)
(0.0022321 -4.78116e-05 0)
(0.00236058 -4.43995e-05 0)
(0.00247946 -4.08707e-05 0)
(0.00258849 -3.73083e-05 0)
(0.00268765 -3.37891e-05 0)
(0.00277711 -3.03803e-05 0)
(0.00285723 -2.71404e-05 0)
(0.0029285 -2.41191e-05 0)
(0.00299155 -2.13571e-05 0)
(0.00304709 -1.88851e-05 0)
(0.0030959 -1.67232e-05 0)
(0.0031388 -1.48808e-05 0)
(0.00317663 -1.33563e-05 0)
(0.00321018 -1.21374e-05 0)
(0.00324021 -1.12012e-05 0)
(0.00326741 -1.05142e-05 0)
(0.00329232 -1.00325e-05 0)
(0.00331538 -9.70196e-06 0)
(0.00333684 -9.459e-06 0)
(0.00335675 -9.22996e-06 0)
(0.00337498 -8.9394e-06 0)
(0.00339112 -8.49197e-06 0)
(0.00340453 -7.79964e-06 0)
(0.00341427 -6.76222e-06 0)
(0.00341915 -5.27575e-06 0)
(0.00341766 -3.24133e-06 0)
(0.00340802 -5.52439e-07 0)
(0.0033881 2.89932e-06 0)
(0.00335553 7.21467e-06 0)
(0.00330761 1.24977e-05 0)
(0.00324135 1.88503e-05 0)
(0.00315348 2.63743e-05 0)
(0.00304042 3.51718e-05 0)
(0.00289832 4.53463e-05 0)
(0.00272302 5.70033e-05 0)
(0.00251005 7.02513e-05 0)
(0.00225466 8.52011e-05 0)
(0.00195179 0.000101966 0)
(0.00159606 0.000120664 0)
(0.00118182 0.000141438 0)
(0.000703094 0.000164354 0)
(0.000153678 0.000189506 0)
(-0.000472883 0.000217026 0)
(-0.00118334 0.000247015 0)
(-0.0019845 0.000279515 0)
(-0.00288312 0.000314537 0)
(-0.00388595 0.000352078 0)
(-0.00499961 0.000392097 0)
(-0.00623039 0.000434502 0)
(-0.00758416 0.000479151 0)
(-0.00906618 0.000525845 0)
(-0.0106809 0.000574323 0)
(-0.012432 0.000624262 0)
(-0.0143218 0.000675277 0)
(-0.0163515 0.000726915 0)
(-0.0185208 0.000778662 0)
(-0.0208277 0.000829943 0)
(-0.0232687 0.000880128 0)
(-0.0258382 0.000928536 0)
(-0.0285287 0.000974443 0)
(-0.0313305 0.00101709 0)
(-0.0342321 0.00105569 0)
(-0.0372196 0.00108945 0)
(-0.0402771 0.00111754 0)
(-0.0433865 0.00113916 0)
(-0.0465278 0.00115349 0)
(-0.0496787 0.00115975 0)
(-0.0528154 0.00115716 0)
(-0.0559121 0.00114498 0)
(-0.0589412 0.0011225 0)
(-0.0618737 0.00108907 0)
(-0.0646794 0.00104407 0)
(-0.0673265 0.000986949 0)
(-0.0697827 0.000917255 0)
(-0.0720147 0.000834619 0)
(-0.0739888 0.00073879 0)
(-0.0756713 0.000629556 0)
(-0.0770267 0.000506402 0)
(-0.0780291 0.00036952 0)
(-0.0786309 0.000221581 0)
(-0.0788241 6.51667e-05 0)
(-0.0785776 -0.000105694 0)
(-0.0778624 -0.000284464 0)
(-0.076666 -0.000469919 0)
(-0.074977 -0.000659486 0)
(-0.0727922 -0.000849834 0)
(-0.0701172 -0.00103742 0)
(-0.0669672 -0.00121834 0)
(-0.0633676 -0.00138821 0)
(-0.0593547 -0.00154238 0)
(-0.0549765 -0.00167611 0)
(-0.0502924 -0.00178484 0)
(-0.0453722 -0.00186439 0)
(-0.0402953 -0.00191126 0)
(-0.0351482 -0.00192294 0)
(-0.0300221 -0.00189812 0)
(-0.0250099 -0.00183692 0)
(-0.0202025 -0.00174099 0)
(-0.0156849 -0.00161354 0)
(-0.0115329 -0.00145918 0)
(-0.00780955 -0.00128371 0)
(-0.00456261 -0.00109375 0)
(-0.00182293 -0.000896316 0)
(0.000396322 -0.000698367 0)
(0.00209912 -0.000506297 0)
(0.0033054 -0.000325751 0)
(0.00404848 -0.000161184 0)
(0.00437285 -1.59559e-05 0)
(0.00433099 0.000107388 0)
(0.00398412 0.000206887 0)
(0.00339607 0.000280601 0)
(0.00264191 0.000324549 0)
(0.0018072 0.000332254 0)
(0.000995823 0.000293148 0)
(0.000345383 0.000191892 0)
(1.07642e-05 4.00065e-05 0)
(-5.70729e-06 1.08561e-05 0)
(-1.26213e-05 3.14641e-06 0)
(7.08461e-06 -1.73515e-05 0)
(6.1579e-05 -4.1857e-05 0)
(0.00015357 -6.64311e-05 0)
(0.000281719 -8.92215e-05 0)
(0.000442826 -0.000109388 0)
(0.000632762 -0.000126582 0)
(0.000846985 -0.0001407 0)
(0.00108083 -0.000151767 0)
(0.00132967 -0.000159883 0)
(0.00158905 -0.000165198 0)
(0.00185476 -0.000167897 0)
(0.00212285 -0.000168192 0)
(0.00238974 -0.000166318 0)
(0.0026522 -0.000162524 0)
(0.0029074 -0.000157073 0)
(0.00315292 -0.000150233 0)
(0.00338674 -0.000142273 0)
(0.00360728 -0.000133458 0)
(0.00381334 -0.000124044 0)
(0.00400412 -0.000114275 0)
(0.00417919 -0.00010438 0)
(0.00433846 -9.4566e-05 0)
(0.00448214 -8.50198e-05 0)
(0.00461073 -7.59017e-05 0)
(0.00472496 -6.73478e-05 0)
(0.00482572 -5.9468e-05 0)
(0.00491409 -5.23447e-05 0)
(0.00499123 -4.60309e-05 0)
(0.00505836 -4.055e-05 0)
(0.00511671 -3.58952e-05 0)
(0.00516746 -3.20297e-05 0)
(0.00521172 -2.88867e-05 0)
(0.00525045 -2.637e-05 0)
(0.00528444 -2.43541e-05 0)
(0.00531423 -2.26853e-05 0)
(0.00534011 -2.11827e-05 0)
(0.00536203 -1.96389e-05 0)
(0.00537962 -1.78345e-05 0)
(0.00539208 -1.55078e-05 0)
(0.00539823 -1.23999e-05 0)
(0.0053964 -8.23928e-06 0)
(0.00538451 -2.72417e-06 0)
(0.00535993 4.44039e-06 0)
(0.00531961 1.35438e-05 0)
(0.00525998 2.48929e-05 0)
(0.00517697 3.87815e-05 0)
(0.00506604 5.55071e-05 0)
(0.00492215 7.53631e-05 0)
(0.00473979 9.86412e-05 0)
(0.00451296 0.000125633 0)
(0.00423518 0.000156633 0)
(0.0038995 0.000191937 0)
(0.00349849 0.000231849 0)
(0.00302424 0.000276673 0)
(0.00246837 0.000326734 0)
(0.001822 0.000382354 0)
(0.00107593 0.000443678 0)
(0.000220468 0.000511131 0)
(-0.00075467 0.000585005 0)
(-0.00185991 0.000665504 0)
(-0.00310573 0.000752753 0)
(-0.00450277 0.000846822 0)
(-0.00606166 0.000947715 0)
(-0.00779277 0.00105534 0)
(-0.00970604 0.00116947 0)
(-0.0118107 0.00128976 0)
(-0.0141153 0.00141568 0)
(-0.0166268 0.00154656 0)
(-0.0193512 0.00168156 0)
(-0.0222924 0.00181966 0)
(-0.0254525 0.00195968 0)
(-0.0288314 0.00210023 0)
(-0.0324264 0.0022398 0)
(-0.0362322 0.0023767 0)
(-0.0402403 0.00250912 0)
(-0.0444394 0.00263513 0)
(-0.0488149 0.00275271 0)
(-0.0533491 0.00285976 0)
(-0.0580208 0.00295415 0)
(-0.0628057 0.00303374 0)
(-0.0676761 0.00309638 0)
(-0.0726015 0.00313998 0)
(-0.0775483 0.00316249 0)
(-0.0824802 0.00316192 0)
(-0.0873581 0.00313641 0)
(-0.0921407 0.00308419 0)
(-0.0967848 0.00300362 0)
(-0.101245 0.00289322 0)
(-0.105475 0.00275166 0)
(-0.109426 0.00257785 0)
(-0.113049 0.0023709 0)
(-0.116297 0.00213022 0)
(-0.119118 0.00185552 0)
(-0.121464 0.00154682 0)
(-0.123287 0.00120402 0)
(-0.124552 0.000823939 0)
(-0.125182 0.000426566 0)
(-0.12519 -6.64537e-06 0)
(-0.124507 -0.000462652 0)
(-0.123116 -0.000939472 0)
(-0.120997 -0.00143028 0)
(-0.118139 -0.0019285 0)
(-0.114542 -0.00242569 0)
(-0.110219 -0.00291277 0)
(-0.105198 -0.00337986 0)
(-0.0995194 -0.00381606 0)
(-0.0932395 -0.00420991 0)
(-0.0864309 -0.0045498 0)
(-0.0791816 -0.00482458 0)
(-0.071594 -0.00502407 0)
(-0.0637837 -0.00513982 0)
(-0.055876 -0.00516565 0)
(-0.0480033 -0.00509835 0)
(-0.0403 -0.00493814 0)
(-0.0328985 -0.00468891 0)
(-0.0259233 -0.00435836 0)
(-0.0194867 -0.00395767 0)
(-0.0136836 -0.00350104 0)
(-0.00858782 -0.00300485 0)
(-0.00424927 -0.00248664 0)
(-0.000692676 -0.0019641 0)
(0.0020824 -0.00145388 0)
(0.00410011 -0.000970816 0)
(0.00540554 -0.000527246 0)
(0.00606179 -0.000132957 0)
(0.00614555 0.00020452 0)
(0.00574816 0.000478384 0)
(0.00496761 0.000682856 0)
(0.00391904 0.000807041 0)
(0.00273265 0.000835649 0)
(0.00156113 0.000745963 0)
(0.000596267 0.000511155 0)
(4.31709e-05 0.000154062 0)
(-4.82645e-06 1.45732e-05 0)
(-2.97666e-06 -2.83372e-06 0)
(3.47145e-05 -4.11792e-05 0)
(0.000117208 -8.65721e-05 0)
(0.000247595 -0.000132342 0)
(0.000424447 -0.000175094 0)
(0.000643953 -0.000213167 0)
(0.000901011 -0.0002458 0)
(0.00118988 -0.000272712 0)
(0.00150456 -0.00029389 0)
(0.00183906 -0.000309482 0)
(0.00218756 -0.000319745 0)
(0.00254449 -0.000325011 0)
(0.00290467 -0.000325674 0)
(0.00326332 -0.000322169 0)
(0.00361616 -0.000314969 0)
(0.00395941 -0.000304566 0)
(0.00428982 -0.000291469 0)
(0.00460466 -0.000276187 0)
(0.00490179 -0.000259224 0)
(0.00517955 -0.000241068 0)
(0.00543683 -0.000222184 0)
(0.00567298 -0.000203006 0)
(0.00588782 -0.000183932 0)
(0.00608154 -0.000165317 0)
(0.00625473 -0.000147471 0)
(0.00640826 -0.000130652 0)
(0.00654326 -0.00011507 0)
(0.00666105 -0.000100878 0)
(0.00676308 -8.81754e-05 0)
(0.00685087 -7.70032e-05 0)
(0.00692594 -6.73441e-05 0)
(0.00698977 -5.91225e-05 0)
(0.00704368 -5.22047e-05 0)
(0.00708883 -4.63989e-05 0)
(0.00712611 -4.14569e-05 0)
(0.00715611 -3.70751e-05 0)
(0.00717902 -3.28971e-05 0)
(0.0071946 -2.8516e-05 0)
(0.00720216 -2.3493e-05 0)
(0.0072004 -1.7324e-05 0)
(0.00718754 -9.50325e-06 0)
(0.00716107 5.37629e-07 0)
(0.00711797 1.33586e-05 0)
(0.00705444 2.9545e-05 0)
(0.0069661 4.96836e-05 0)
(0.00684784 7.43705e-05 0)
(0.0066939 0.000104193 0)
(0.0064978 0.000139739 0)
(0.00625243 0.000181592 0)
(0.00595 0.000230328 0)
(0.00558206 0.000286525 0)
(0.00513949 0.00035076 0)
(0.00461254 0.000423614 0)
(0.00399081 0.000505676 0)
(0.00326326 0.000597566 0)
(0.00241827 0.000699742 0)
(0.00144373 0.000812761 0)
(0.000326569 0.000937377 0)
(-0.000946509 0.00107402 0)
(-0.00238912 0.00122309 0)
(-0.00401521 0.00138491 0)
(-0.00583891 0.00155971 0)
(-0.00787427 0.00174754 0)
(-0.0101351 0.00194827 0)
(-0.0126346 0.00216159 0)
(-0.0153853 0.00238689 0)
(-0.0183985 0.00262331 0)
(-0.0216839 0.00286967 0)
(-0.0252495 0.00312449 0)
(-0.0291011 0.00338594 0)
(-0.0332417 0.00365185 0)
(-0.0376717 0.00391975 0)
(-0.0423878 0.00418681 0)
(-0.0473836 0.00444993 0)
(-0.0526483 0.00470575 0)
(-0.0581675 0.00495064 0)
(-0.0639225 0.00518084 0)
(-0.0698902 0.00539243 0)
(-0.0760434 0.0055814 0)
(-0.0823504 0.00574374 0)
(-0.0887758 0.00587544 0)
(-0.0952798 0.00597258 0)
(-0.101819 0.00603138 0)
(-0.108348 0.00604819 0)
(-0.114815 0.00601958 0)
(-0.121168 0.00594234 0)
(-0.127353 0.00581355 0)
(-0.133312 0.00563056 0)
(-0.138987 0.00539105 0)
(-0.144317 0.00509307 0)
(-0.149243 0.00473507 0)
(-0.153703 0.00431599 0)
(-0.157637 0.00383528 0)
(-0.160986 0.00329301 0)
(-0.16369 0.00268988 0)
(-0.165694 0.00202709 0)
(-0.166952 0.00130388 0)
(-0.167403 0.000535553 0)
(-0.16702 -0.000278896 0)
(-0.165756 -0.00113719 0)
(-0.163589 -0.00202764 0)
(-0.1605 -0.00293925 0)
(-0.156483 -0.00385985 0)
(-0.151544 -0.00477427 0)
(-0.145704 -0.00566613 0)
(-0.139002 -0.00651781 0)
(-0.131492 -0.00731013 0)
(-0.123246 -0.00802296 0)
(-0.114356 -0.00863603 0)
(-0.10493 -0.00912985 0)
(-0.0950946 -0.00948674 0)
(-0.0849897 -0.00969185 0)
(-0.0747685 -0.00973437 0)
(-0.0645919 -0.00960849 0)
(-0.0546242 -0.0093143 0)
(-0.0450276 -0.00885831 0)
(-0.0359564 -0.00825363 0)
(-0.0275512 -0.00751957 0)
(-0.0199328 -0.00668088 0)
(-0.0131975 -0.00576642 0)
(-0.00741371 -0.00480746 0)
(-0.00261903 -0.0038359 0)
(0.00117973 -0.00288229 0)
(0.00400569 -0.00197435 0)
(0.00590937 -0.00113577 0)
(0.00696531 -0.000385913 0)
(0.00726818 0.000259414 0)
(0.00693068 0.000787021 0)
(0.00608046 0.00118321 0)
(0.00486376 0.00142889 0)
(0.0034467 0.00149763 0)
(0.00201881 0.00135341 0)
(0.000811911 0.000958195 0)
(7.24886e-05 0.000336141 0)
(-3.43534e-06 1.5014e-05 0)
(1.04924e-05 -1.66053e-05 0)
(6.94976e-05 -7.73324e-05 0)
(0.000182188 -0.000148344 0)
(0.000351554 -0.000220091 0)
(0.000576034 -0.000287427 0)
(0.000851339 -0.00034768 0)
(0.0011716 -0.000399539 0)
(0.00153011 -0.000442457 0)
(0.00191978 -0.000476334 0)
(0.00233344 -0.000501349 0)
(0.00276408 -0.000517873 0)
(0.00320499 -0.000526408 0)
(0.00364986 -0.000527561 0)
(0.00409289 -0.000522017 0)
(0.00452884 -0.000510518 0)
(0.00495305 -0.000493846 0)
(0.00536154 -0.000472805 0)
(0.00575094 -0.000448206 0)
(0.00611855 -0.00042085 0)
(0.00646231 -0.000391515 0)
(0.00678078 -0.000360942 0)
(0.00707308 -0.000329826 0)
(0.00733891 -0.000298801 0)
(0.00757842 -0.000268435 0)
(0.00779222 -0.000239221 0)
(0.00798128 -0.000211575 0)
(0.00814686 -0.000185827 0)
(0.00829048 -0.00016222 0)
(0.00841377 -0.000140908 0)
(0.00851847 -0.00012195 0)
(0.0086063 -0.000105313 0)
(0.00867891 -9.08667e-05 0)
(0.00873778 -7.83872e-05 0)
(0.00878414 -6.75561e-05 0)
(0.0088189 -5.79623e-05 0)
(0.00884257 -4.9105e-05 0)
(0.00885517 -4.03968e-05 0)
(0.00885618 -3.11679e-05 0)
(0.0088445 -2.07046e-05 0)
(0.00881824 -8.15988e-06 0)
(0.00877491 7.29814e-06 0)
(0.00871118 2.65836e-05 0)
(0.00862291 5.06323e-05 0)
(0.00850515 8.04082e-05 0)
(0.00835207 0.000116882 0)
(0.00815701 0.000161036 0)
(0.00791242 0.000213843 0)
(0.0076099 0.000276276 0)
(0.00724019 0.000349298 0)
(0.0067932 0.000433862 0)
(0.00625799 0.00053092 0)
(0.00562281 0.000641418 0)
(0.00487509 0.000766312 0)
(0.00400149 0.000906528 0)
(0.00298801 0.00106288 0)
(0.00181965 0.00123649 0)
(0.000480839 0.00142819 0)
(-0.0010445 0.00163876 0)
(-0.00277303 0.00186894 0)
(-0.00472174 0.00211934 0)
(-0.00690783 0.00239037 0)
(-0.0093485 0.00268223 0)
(-0.0120606 0.00299485 0)
(-0.0150606 0.00332782 0)
(-0.0183637 0.00368038 0)
(-0.021984 0.00405132 0)
(-0.0259338 0.00443896 0)
(-0.0302231 0.00484112 0)
(-0.0348595 0.00525509 0)
(-0.0398473 0.00567763 0)
(-0.0451871 0.00610494 0)
(-0.0508758 0.00653271 0)
(-0.0569058 0.00695617 0)
(-0.0632649 0.00737005 0)
(-0.0699359 0.00776874 0)
(-0.0768966 0.0081463 0)
(-0.0841194 0.00849657 0)
(-0.0915718 0.00881326 0)
(-0.099216 0.00909 0)
(-0.107009 0.0093205 0)
(-0.114905 0.00949859 0)
(-0.122851 0.00961831 0)
(-0.130792 0.00967399 0)
(-0.138669 0.00966031 0)
(-0.146419 0.00957235 0)
(-0.15398 0.00940564 0)
(-0.161284 0.00915619 0)
(-0.168263 0.00882056 0)
(-0.174848 0.00839585 0)
(-0.180971 0.00787981 0)
(-0.186562 0.00727084 0)
(-0.191552 0.0065681 0)
(-0.195876 0.00577159 0)
(-0.199467 0.00488225 0)
(-0.202265 0.00390206 0)
(-0.204208 0.00283393 0)
(-0.205249 0.00168059 0)
(-0.205334 0.00045842 0)
(-0.204424 -0.000829766 0)
(-0.202482 -0.00217721 0)
(-0.199489 -0.00356708 0)
(-0.19543 -0.00498318 0)
(-0.190305 -0.00640684 0)
(-0.184127 -0.00781531 0)
(-0.176925 -0.00918395 0)
(-0.168748 -0.0104865 0)
(-0.15966 -0.0116947 0)
(-0.149745 -0.0127788 0)
(-0.139107 -0.013709 0)
(-0.127868 -0.0144567 0)
(-0.116168 -0.0149957 0)
(-0.104166 -0.0153041 0)
(-0.0920309 -0.0153658 0)
(-0.0799427 -0.0151716 0)
(-0.068086 -0.0147211 0)
(-0.056644 -0.0140232 0)
(-0.045793 -0.0130966 0)
(-0.0356954 -0.0119692 0)
(-0.0264933 -0.0106772 0)
(-0.0183031 -0.00926343 0)
(-0.0112106 -0.00777477 0)
(-0.00526773 -0.0062596 0)
(-0.000491427 -0.00476506 0)
(0.00313623 -0.00333457 0)
(0.00566587 -0.00200615 0)
(0.00717778 -0.000811724 0)
(0.00777801 0.000222136 0)
(0.00759544 0.00107259 0)
(0.00677983 0.00171641 0)
(0.00550216 0.00212429 0)
(0.00395661 0.00225759 0)
(0.00236092 0.00206667 0)
(0.000978912 0.00150122 0)
(9.51454e-05 0.000572818 0)
(-1.86532e-06 1.15076e-05 0)
(2.60754e-05 -3.95412e-05 0)
(0.000108552 -0.000126943 0)
(0.000252911 -0.00022766 0)
(0.000461549 -0.00032938 0)
(0.000732637 -0.000425132 0)
(0.00106144 -0.00051112 0)
(0.00144145 -0.000585373 0)
(0.00186517 -0.000646999 0)
(0.00232457 -0.000695761 0)
(0.00281151 -0.000731849 0)
(0.00331796 -0.00075574 0)
(0.0038362 -0.000768123 0)
(0.00435895 -0.000769844 0)
(0.00487949 -0.000761869 0)
(0.00539173 -0.000745253 0)
(0.00589024 -0.000721111 0)
(0.00637035 -0.000690594 0)
(0.00682812 -0.000654863 0)
(0.00726034 -0.000615067 0)
(0.00766454 -0.000572324 0)
(0.00803898 -0.000527698 0)
(0.00838255 -0.000482187 0)
(0.00869479 -0.000436703 0)
(0.00897579 -0.000392064 0)
(0.00922613 -0.000348978 0)
(0.00944681 -0.000308042 0)
(0.0096392 -0.000269727 0)
(0.0098049 -0.00023438 0)
(0.00994567 -0.000202213 0)
(0.0100634 -0.000173306 0)
(0.0101599 -0.000147598 0)
(0.0102369 -0.000124889 0)
(0.0102959 -0.000104843 0)
(0.0103382 -8.69817e-05 0)
(0.0103646 -7.06932e-05 0)
(0.0103754 -5.52327e-05 0)
(0.0103705 -3.97287e-05 0)
(0.0103489 -2.31984e-05 0)
(0.0103089 -4.54423e-06 0)
(0.0102481 1.74371e-05 0)
(0.0101633 4.40082e-05 0)
(0.01005 7.65177e-05 0)
(0.00990314 0.000116355 0)
(0.00971641 0.000164949 0)
(0.00948254 0.000223745 0)
(0.00919322 0.0002942 0)
(0.0088391 0.000377766 0)
(0.00840979 0.000475888 0)
(0.00789387 0.000589997 0)
(0.0072789 0.000721509 0)
(0.00655147 0.00087183 0)
(0.00569717 0.00104235 0)
(0.00470068 0.00123443 0)
(0.00354574 0.00144944 0)
(0.00221514 0.00168876 0)
(0.000691011 0.00195363 0)
(-0.00104536 0.00224528 0)
(-0.00301324 0.00256483 0)
(-0.00523236 0.00291323 0)
(-0.0077227 0.00329116 0)
(-0.0105043 0.00369907 0)
(-0.0135968 0.00413701 0)
(-0.0170195 0.0046046 0)
(-0.0207904 0.00510096 0)
(-0.0249262 0.00562462 0)
(-0.0294415 0.00617344 0)
(-0.0343484 0.00674458 0)
(-0.0396563 0.00733445 0)
(-0.0453706 0.00793866 0)
(-0.0514929 0.00855205 0)
(-0.05802 0.00916868 0)
(-0.0649438 0.00978191 0)
(-0.0722508 0.0103844 0)
(-0.0799215 0.0109683 0)
(-0.0879309 0.0115251 0)
(-0.0962475 0.0120461 0)
(-0.104834 0.0125224 0)
(-0.113648 0.0129449 0)
(-0.12264 0.0133046 0)
(-0.131756 0.0135927 0)
(-0.140938 0.0138008 0)
(-0.150123 0.0139207 0)
(-0.159244 0.0139451 0)
(-0.16823 0.0138669 0)
(-0.177011 0.0136802 0)
(-0.185513 0.0133793 0)
(-0.193659 0.0129596 0)
(-0.201374 0.0124174 0)
(-0.208584 0.0117495 0)
(-0.215213 0.010954 0)
(-0.221188 0.0100297 0)
(-0.226437 0.0089767 0)
(-0.230891 0.00779604 0)
(-0.234486 0.00649019 0)
(-0.237159 0.00506301 0)
(-0.238852 0.00351996 0)
(-0.239518 0.00186778 0)
(-0.239109 0.00012333 0)
(-0.237587 -0.00170542 0)
(-0.234924 -0.00360571 0)
(-0.231103 -0.00555621 0)
(-0.226117 -0.00753485 0)
(-0.219972 -0.00951616 0)
(-0.212688 -0.0114697 0)
(-0.204301 -0.0133621 0)
(-0.194865 -0.0151584 0)
(-0.184452 -0.0168207 0)
(-0.173153 -0.0183097 0)
(-0.161079 -0.0195858 0)
(-0.148359 -0.0206107 0)
(-0.135141 -0.0213495 0)
(-0.121593 -0.0217727 0)
(-0.107894 -0.021858 0)
(-0.0942344 -0.0215924 0)
(-0.0808122 -0.0209744 0)
(-0.0678251 -0.0200146 0)
(-0.0554649 -0.0187365 0)
(-0.0439112 -0.0171767 0)
(-0.0333241 -0.0153829 0)
(-0.0238378 -0.0134123 0)
(-0.015555 -0.0113284 0)
(-0.00854289 -0.00919759 0)
(-0.00283072 -0.0070854 0)
(0.00159085 -0.00505332 0)
(0.0047684 -0.00315623 0)
(0.00678309 -0.00144123 0)
(0.0077471 5.17064e-05 0)
(0.00780028 0.00128752 0)
(0.00710851 0.00223133 0)
(0.00586155 0.00284229 0)
(0.0042753 0.00306866 0)
(0.00258964 0.00284673 0)
(0.00109506 0.00211136 0)
(0.000110853 0.00084896 0)
(-2.65751e-07 3.68358e-06 0)
(4.26362e-05 -7.23988e-05 0)
(0.000149807 -0.000190705 0)
(0.00032665 -0.000324843 0)
(0.00057453 -0.000460003 0)
(0.000891172 -0.00058743 0)
(0.00127136 -0.000702152 0)
(0.00170801 -0.00080147 0)
(0.00219294 -0.000884082 0)
(0.00271735 -0.000949574 0)
(0.00327224 -0.000998115 0)
(0.00384872 -0.00103029 0)
(0.00443819 -0.00104697 0)
(0.00503252 -0.00104927 0)
(0.00562418 -0.00103846 0)
(0.00620632 -0.00101595 0)
(0.00677284 -0.000983211 0)
(0.00731845 -0.000941789 0)
(0.00783865 -0.000893238 0)
(0.0083298 -0.000839098 0)
(0.00878905 -0.000780867 0)
(0.00921434 -0.000719973 0)
(0.00960435 -0.000657755 0)
(0.00995843 -0.000595438 0)
(0.0102766 -0.000534118 0)
(0.0105593 -0.000474747 0)
(0.0108077 -0.000418121 0)
(0.011023 -0.000364872 0)
(0.0112069 -0.000315456 0)
(0.0113612 -0.000270151 0)
(0.0114879 -0.000229048 0)
(0.0115889 -0.000192054 0)
(0.0116658 -0.00015888 0)
(0.0117201 -0.000129052 0)
(0.0117531 -0.000101902 0)
(0.0117653 -7.65779e-05 0)
(0.0117569 -5.20454e-05 0)
(0.0117272 -2.70975e-05 0)
(0.011675 -3.67674e-07 0)
(0.011598 2.96626e-05 0)
(0.011493 6.46535e-05 0)
(0.0113559 0.00010636 0)
(0.0111813 0.000156646 0)
(0.0109629 0.000217437 0)
(0.010693 0.000290713 0)
(0.0103629 0.000378481 0)
(0.00996263 0.000482762 0)
(0.00948092 0.00060557 0)
(0.00890537 0.00074891 0)
(0.00822237 0.000914764 0)
(0.00741716 0.00110509 0)
(0.0064738 0.00132183 0)
(0.00537528 0.00156687 0)
(0.00410348 0.0018421 0)
(0.00263931 0.00214935 0)
(0.000962684 0.00249039 0)
(-0.000947269 0.00286691 0)
(-0.00311218 0.00328047 0)
(-0.00555421 0.00373243 0)
(-0.00829587 0.00422387 0)
(-0.0113597 0.00475554 0)
(-0.0147681 0.00532773 0)
(-0.0185428 0.00594019 0)
(-0.0227045 0.00659203 0)
(-0.0272721 0.00728159 0)
(-0.0322628 0.0080064 0)
(-0.0376907 0.00876302 0)
(-0.0435667 0.00954701 0)
(-0.0498979 0.0103529 0)
(-0.0566867 0.0111742 0)
(-0.0639302 0.0120032 0)
(-0.0716201 0.0128314 0)
(-0.0797418 0.0136491 0)
(-0.0882743 0.0144461 0)
(-0.0971899 0.0152112 0)
(-0.106454 0.0159329 0)
(-0.116026 0.0165992 0)
(-0.125857 0.0171981 0)
(-0.135894 0.0177174 0)
(-0.146076 0.0181455 0)
(-0.15634 0.018471 0)
(-0.166615 0.0186832 0)
(-0.176828 0.0187722 0)
(-0.186903 0.018729 0)
(-0.196762 0.0185454 0)
(-0.206324 0.0182145 0)
(-0.215508 0.0177303 0)
(-0.224235 0.017088 0)
(-0.232425 0.016284 0)
(-0.239998 0.0153158 0)
(-0.246878 0.0141822 0)
(-0.252993 0.0128832 0)
(-0.258271 0.0114203 0)
(-0.262645 0.00979626 0)
(-0.266053 0.00801568 0)
(-0.268437 0.00608488 0)
(-0.269745 0.0040123 0)
(-0.269933 0.00180861 0)
(-0.268961 -0.000508096 0)
(-0.266795 -0.00292418 0)
(-0.263415 -0.0054211 0)
(-0.25881 -0.0079729 0)
(-0.252978 -0.0105515 0)
(-0.245931 -0.0131247 0)
(-0.237696 -0.0156547 0)
(-0.228311 -0.0180997 0)
(-0.217834 -0.0204158 0)
(-0.20634 -0.0225561 0)
(-0.193924 -0.0244715 0)
(-0.180696 -0.0261128 0)
(-0.166791 -0.027432 0)
(-0.152358 -0.0283853 0)
(-0.137567 -0.0289348 0)
(-0.122602 -0.0290518 0)
(-0.107659 -0.0287187 0)
(-0.092943 -0.0279316 0)
(-0.0786615 -0.0267021 0)
(-0.065018 -0.025058 0)
(-0.0522055 -0.0230432 0)
(-0.0403994 -0.0207166 0)
(-0.0297502 -0.0181499 0)
(-0.020377 -0.0154233 0)
(-0.0123629 -0.0126221 0)
(-0.00575093 -0.00983184 0)
(-0.000542861 -0.00713369 0)
(0.00330048 -0.00460161 0)
(0.00585726 -0.00230033 0)
(0.00724144 -0.000285717 0)
(0.00759949 0.00139258 0)
(0.00710761 0.00268646 0)
(0.00597012 0.00354162 0)
(0.00441928 0.00389254 0)
(0.00271268 0.00366049 0)
(0.00116327 0.00276244 0)
(0.000120326 0.00115045 0)
(1.27943e-06 -8.56709e-06 0)
(5.94262e-05 -0.000115514 0)
(0.000191785 -0.000268948 0)
(0.000401361 -0.000439983 0)
(0.000688135 -0.000611659 0)
(0.00104919 -0.000773566 0)
(0.00147875 -0.000919561 0)
(0.0019692 -0.00104618 0)
(0.00251172 -0.00115168 0)
(0.00309684 -0.00123543 0)
(0.00371483 -0.00129755 0)
(0.00435604 -0.00133873 0)
(0.00501112 -0.00136003 0)
(0.00567119 -0.00136285 0)
(0.00632801 -0.00134877 0)
(0.00697407 -0.00131958 0)
(0.00760266 -0.00127717 0)
(0.00820792 -0.00122349 0)
(0.00878489 -0.00116053 0)
(0.0093295 -0.00109026 0)
(0.00983855 -0.00101458 0)
(0.0103097 -0.000935333 0)
(0.0107413 -0.000854218 0)
(0.0111327 -0.000772805 0)
(0.0114837 -0.000692496 0)
(0.0117946 -0.000614504 0)
(0.0120666 -0.000539846 0)
(0.0123008 -0.000469319 0)
(0.012499 -0.000403501 0)
(0.0126629 -0.000342731 0)
(0.0127945 -0.000287112 0)
(0.0128957 -0.000236501 0)
(0.0129679 -0.000190505 0)
(0.0130127 -0.000148485 0)
(0.0130311 -0.000109552 0)
(0.0130233 -7.25741e-05 0)
(0.0129893 -3.6183e-05 0)
(0.0129279 1.21712e-06 0)
(0.0128374 4.14328e-05 0)
(0.0127148 8.64692e-05 0)
(0.0125562 0.000138511 0)
(0.0123564 0.000199881 0)
(0.0121091 0.000273033 0)
(0.0118067 0.000360513 0)
(0.0114401 0.000464933 0)
(0.0109991 0.000588945 0)
(0.0104718 0.000735218 0)
(0.00984531 0.000906414 0)
(0.00910501 0.00110518 0)
(0.00823514 0.00133412 0)
(0.00721857 0.00159582 0)
(0.00603689 0.0018928 0)
(0.00467047 0.00222754 0)
(0.00309854 0.00260246 0)
(0.00129921 0.0030199 0)
(-0.000750368 0.00348209 0)
(-0.00307386 0.00399111 0)
(-0.00569559 0.00454881 0)
(-0.00864034 0.00515674 0)
(-0.011933 0.00581606 0)
(-0.0155983 0.00652739 0)
(-0.0196604 0.00729073 0)
(-0.0241424 0.00810529 0)
(-0.0290655 0.00896937 0)
(-0.0344492 0.00988026 0)
(-0.0403095 0.010834 0)
(-0.0466594 0.0118256 0)
(-0.0535072 0.0128484 0)
(-0.0608564 0.0138946 0)
(-0.0687049 0.014955 0)
(-0.0770443 0.016019 0)
(-0.0858594 0.0170747 0)
(-0.095128 0.0181092 0)
(-0.10482 0.0191086 0)
(-0.114899 0.0200583 0)
(-0.12532 0.0209431 0)
(-0.136031 0.0217476 0)
(-0.146974 0.0224564 0)
(-0.158084 0.0230546 0)
(-0.16929 0.0235276 0)
(-0.180517 0.0238618 0)
(-0.191687 0.0240446 0)
(-0.202717 0.0240644 0)
(-0.213523 0.0239113 0)
(-0.224022 0.0235765 0)
(-0.234128 0.0230527 0)
(-0.243756 0.0223342 0)
(-0.252824 0.0214167 0)
(-0.261252 0.0202975 0)
(-0.268962 0.0189754 0)
(-0.275879 0.0174505 0)
(-0.281933 0.0157248 0)
(-0.287057 0.0138015 0)
(-0.29119 0.0116859 0)
(-0.294276 0.00938492 0)
(-0.296262 0.0069078 0)
(-0.297104 0.00426614 0)
(-0.296765 0.00147435 0)
(-0.295211 -0.00144737 0)
(-0.292416 -0.00448009 0)
(-0.288367 -0.00759998 0)
(-0.283057 -0.0107765 0)
(-0.276489 -0.0139758 0)
(-0.26868 -0.0171593 0)
(-0.259658 -0.0202824 0)
(-0.249464 -0.0232954 0)
(-0.238156 -0.026146 0)
(-0.22581 -0.0287785 0)
(-0.212517 -0.0311346 0)
(-0.198388 -0.0331552 0)
(-0.183553 -0.034783 0)
(-0.168162 -0.0359648 0)
(-0.152383 -0.0366544 0)
(-0.136399 -0.0368154 0)
(-0.120409 -0.036425 0)
(-0.104622 -0.035476 0)
(-0.0892503 -0.0339797 0)
(-0.0745067 -0.0319667 0)
(-0.0605955 -0.0294876 0)
(-0.0477052 -0.0266116 0)
(-0.0360015 -0.023424 0)
(-0.0256196 -0.0200221 0)
(-0.0166584 -0.0165103 0)
(-0.00917615 -0.0129948 0)
(-0.00318749 -0.00957822 0)
(0.0013369 -0.00635545 0)
(0.00446914 -0.00341095 0)
(0.00632146 -0.00081877 0)
(0.00704308 0.00135487 0)
(0.00681647 0.00304629 0)
(0.00585627 0.00418669 0)
(0.00440706 0.00469566 0)
(0.00274073 0.00447819 0)
(0.00118873 0.00343048 0)
(0.000124594 0.00146473 0)
(2.72673e-06 -2.52066e-05 0)
(7.59571e-05 -0.000168939 0)
(0.000233448 -0.000361717 0)
(0.000475542 -0.000572954 0)
(0.000800567 -0.00078393 0)
(0.00120479 -0.000982754 0)
(0.00168179 -0.00116218 0)
(0.00222337 -0.00131797 0)
(0.00282015 -0.00144792 0)
(0.00346204 -0.00155114 0)
(0.00413868 -0.00162773 0)
(0.00483975 -0.00167845 0)
(0.00555524 -0.00170456 0)
(0.00627563 -0.00170773 0)
(0.00699204 -0.00168991 0)
(0.00769639 -0.00165327 0)
(0.00838142 -0.00160013 0)
(0.00904078 -0.00153291 0)
(0.00966909 -0.00145403 0)