/*--------------------------------*- C++ -*----------------------------------*\
  =========                 |
  \\      /  F ield         | OpenFOAM: The Open Source CFD Toolbox
   \\    /   O peration     | Website:  https://openfoam.org
    \\  /    A nd           | Version:  12
     \\/     M anipulation  |
\*---------------------------------------------------------------------------*/
FoamFile
{
    format      ascii;
    class       volScalarField;
    location    "6";
    object      epsilon;
}
// * * * * * * * * * * * * * * * * * * * * * * * * * * * * * * * * * * * * * //

dimensions      [0 2 -3 0 0 0 0];

internalField   nonuniform List<scalar> 
18225
(
3.22695e-08
6.09577e-08
1.29361e-07
2.11284e-07
3.03992e-07
4.05489e-07
5.14399e-07
6.29732e-07
7.50735e-07
8.76807e-07
1.00745e-06
1.14223e-06
1.28077e-06
1.42274e-06
1.56781e-06
1.71572e-06
1.86619e-06
2.01898e-06
2.17384e-06
2.33054e-06
2.48887e-06
2.64862e-06
2.80957e-06
2.97152e-06
3.13429e-06
3.29766e-06
3.46146e-06
3.62548e-06
3.78955e-06
3.95349e-06
4.1171e-06
4.2802e-06
4.44263e-06
4.60419e-06
4.76472e-06
4.92404e-06
5.08198e-06
5.23835e-06
5.393e-06
5.54576e-06
5.69644e-06
5.8449e-06
5.99096e-06
6.13447e-06
6.27525e-06
6.41315e-06
6.54802e-06
6.67969e-06
6.80801e-06
6.93284e-06
7.05401e-06
7.17138e-06
7.2848e-06
7.39414e-06
7.49925e-06
7.59998e-06
7.69621e-06
7.7878e-06
7.87461e-06
7.95652e-06
8.03341e-06
8.10514e-06
8.17161e-06
8.23268e-06
8.28826e-06
8.33823e-06
8.38248e-06
8.42091e-06
8.45344e-06
8.47997e-06
8.5004e-06
8.51466e-06
8.52267e-06
8.52435e-06
8.51965e-06
8.5085e-06
8.49084e-06
8.46664e-06
8.43585e-06
8.39845e-06
8.35441e-06
8.30372e-06
8.24637e-06
8.18237e-06
8.11173e-06
8.03448e-06
7.95064e-06
7.86027e-06
7.76341e-06
7.66013e-06
7.55052e-06
7.43465e-06
7.31263e-06
7.18458e-06
7.05062e-06
6.91088e-06
6.76552e-06
6.61469e-06
6.45859e-06
6.29738e-06
6.13128e-06
5.96051e-06
5.78528e-06
5.60584e-06
5.42244e-06
5.23535e-06
5.04485e-06
4.85122e-06
4.65478e-06
4.45584e-06
4.25474e-06
4.05181e-06
3.84741e-06
3.64191e-06
3.4357e-06
3.22918e-06
3.02276e-06
2.81687e-06
2.61196e-06
2.4085e-06
2.20698e-06
2.00791e-06
1.81184e-06
1.61936e-06
1.43108e-06
1.2477e-06
1.06995e-06
8.98709e-07
7.34954e-07
5.79895e-07
4.35068e-07
3.02556e-07
1.85314e-07
8.73421e-08
4.62382e-08
2.18338e-07
1.18759e-07
1.15496e-07
1.37994e-07
1.72807e-07
2.15194e-07
2.62938e-07
3.14817e-07
3.70073e-07
4.2819e-07
4.88792e-07
5.51585e-07
6.1633e-07
6.82827e-07
7.50899e-07
8.20391e-07
8.91161e-07
9.63078e-07
1.03602e-06
1.10987e-06
1.18452e-06
1.25987e-06
1.3358e-06
1.41223e-06
1.48906e-06
1.56619e-06
1.64354e-06
1.721e-06
1.79849e-06
1.87592e-06
1.95321e-06
2.03027e-06
2.10702e-06
2.18336e-06
2.25921e-06
2.3345e-06
2.40914e-06
2.48305e-06
2.55614e-06
2.62834e-06
2.69956e-06
2.76974e-06
2.83878e-06
2.90662e-06
2.97318e-06
3.03837e-06
3.10213e-06
3.16438e-06
3.22506e-06
3.28407e-06
3.34137e-06
3.39687e-06
3.4505e-06
3.5022e-06
3.55191e-06
3.59954e-06
3.64505e-06
3.68836e-06
3.72942e-06
3.76815e-06
3.80451e-06
3.83844e-06
3.86987e-06
3.89876e-06
3.92504e-06
3.94867e-06
3.9696e-06
3.98778e-06
4.00316e-06
4.0157e-06
4.02537e-06
4.03211e-06
4.03589e-06
4.03669e-06
4.03446e-06
4.02918e-06
4.02083e-06
4.00938e-06
3.99481e-06
3.97712e-06
3.95629e-06
3.93231e-06
3.90519e-06
3.87492e-06
3.84151e-06
3.80497e-06
3.76533e-06
3.72259e-06
3.67679e-06
3.62796e-06
3.57613e-06
3.52136e-06
3.46367e-06
3.40314e-06
3.33982e-06
3.27377e-06
3.20507e-06
3.1338e-06
3.06003e-06
2.98387e-06
2.90539e-06
2.82472e-06
2.74195e-06
2.65721e-06
2.5706e-06
2.48227e-06
2.39234e-06
2.30095e-06
2.20824e-06
2.11438e-06
2.01952e-06
1.92382e-06
1.82746e-06
1.73061e-06
1.63347e-06
1.53622e-06
1.43907e-06
1.34223e-06
1.24593e-06
1.15039e-06
1.05587e-06
9.62628e-07
8.70959e-07
7.81177e-07
6.93634e-07
6.08738e-07
5.26972e-07
4.48938e-07
3.75436e-07
3.07608e-07
2.47258e-07
1.9761e-07
1.65499e-07
1.70227e-07
3.12938e-07
4.86258e-07
2.38199e-07
1.83237e-07
1.72558e-07
1.80656e-07
1.99249e-07
2.24656e-07
2.54914e-07
2.88855e-07
3.2572e-07
3.64989e-07
4.06282e-07
4.49313e-07
4.93856e-07
5.39725e-07
5.86765e-07
6.34842e-07
6.83838e-07
7.33646e-07
7.8417e-07
8.35321e-07
8.87013e-07
9.39167e-07
9.91708e-07
1.04456e-06
1.09766e-06
1.15094e-06
1.20432e-06
1.25775e-06
1.31116e-06
1.36448e-06
1.41767e-06
1.47064e-06
1.52336e-06
1.57575e-06
1.62776e-06
1.67934e-06
1.73041e-06
1.78093e-06
1.83085e-06
1.88009e-06
1.92862e-06
1.97637e-06
2.0233e-06
2.06934e-06
2.11445e-06
2.15858e-06
2.20166e-06
2.24366e-06
2.28452e-06
2.32419e-06
2.36262e-06
2.39976e-06
2.43558e-06
2.47001e-06
2.50302e-06
2.53455e-06
2.56457e-06
2.59303e-06
2.61988e-06
2.6451e-06
2.66863e-06
2.69043e-06
2.71047e-06
2.72872e-06
2.74512e-06
2.75966e-06
2.77229e-06
2.78299e-06
2.79172e-06
2.79845e-06
2.80316e-06
2.80583e-06
2.80642e-06
2.80492e-06
2.8013e-06
2.79556e-06
2.78767e-06
2.77763e-06
2.76541e-06
2.75103e-06
2.73447e-06
2.71572e-06
2.6948e-06
2.67171e-06
2.64646e-06
2.61905e-06
2.58951e-06
2.55785e-06
2.5241e-06
2.48827e-06
2.45041e-06
2.41055e-06
2.36872e-06
2.32496e-06
2.27933e-06
2.23188e-06
2.18265e-06
2.13172e-06
2.07914e-06
2.02498e-06
1.96932e-06
1.91223e-06
1.85379e-06
1.79409e-06
1.73323e-06
1.6713e-06
1.60839e-06
1.54462e-06
1.48009e-06
1.41492e-06
1.34923e-06
1.28315e-06
1.21681e-06
1.15035e-06
1.08391e-06
1.01766e-06
9.51756e-07
8.86379e-07
8.21721e-07
7.57992e-07
6.95427e-07
6.3429e-07
5.74891e-07
5.17594e-07
4.62854e-07
4.11252e-07
3.63577e-07
3.20949e-07
2.85082e-07
2.58819e-07
2.4747e-07
2.62934e-07
3.41825e-07
6.97669e-07
8.05843e-07
3.86277e-07
2.79157e-07
2.39591e-07
2.2691e-07
2.28514e-07
2.39032e-07
2.5569e-07
2.76863e-07
3.01515e-07
3.28942e-07
3.58639e-07
3.90234e-07
4.2344e-07
4.58028e-07
4.93815e-07
5.30645e-07
5.68388e-07
6.06929e-07
6.46167e-07
6.86012e-07
7.2638e-07
7.67196e-07
8.08389e-07
8.49891e-07
8.91639e-07
9.33573e-07
9.75635e-07
1.01777e-06
1.05992e-06
1.10203e-06
1.14406e-06
1.18595e-06
1.22765e-06
1.26911e-06
1.31029e-06
1.35114e-06
1.39161e-06
1.43165e-06
1.47123e-06
1.51029e-06
1.54878e-06
1.58668e-06
1.62393e-06
1.66049e-06
1.69631e-06
1.73136e-06
1.7656e-06
1.79898e-06
1.83146e-06
1.86301e-06
1.89358e-06
1.92314e-06
1.95164e-06
1.97905e-06
2.00533e-06
2.03046e-06
2.05438e-06
2.07706e-06
2.09848e-06
2.11859e-06
2.13737e-06
2.15478e-06
2.17079e-06
2.18538e-06
2.1985e-06
2.21014e-06
2.22027e-06
2.22886e-06
2.23589e-06
2.24133e-06
2.24516e-06
2.24737e-06
2.24793e-06
2.24682e-06
2.24404e-06
2.23956e-06
2.23337e-06
2.22547e-06
2.21585e-06
2.2045e-06
2.19141e-06
2.1766e-06
2.16006e-06
2.14179e-06
2.12181e-06
2.10011e-06
2.07673e-06
2.05166e-06
2.02494e-06
1.99657e-06
1.9666e-06
1.93504e-06
1.90192e-06
1.8673e-06
1.83119e-06
1.79365e-06
1.75472e-06
1.71445e-06
1.6729e-06
1.63011e-06
1.58616e-06
1.54111e-06
1.49502e-06
1.44797e-06
1.40004e-06
1.3513e-06
1.30184e-06
1.25176e-06
1.20115e-06
1.1501e-06
1.09873e-06
1.04714e-06
9.95457e-07
9.43805e-07
8.92319e-07
8.41146e-07
7.90444e-07
7.40389e-07
6.91174e-07
6.4302e-07
5.96178e-07
5.50947e-07
5.07682e-07
4.66826e-07
4.28944e-07
3.94784e-07
3.65385e-07
3.42259e-07
3.27762e-07
3.25899e-07
3.44402e-07
4.01395e-07
5.55349e-07
1.15827e-06
1.16319e-06
5.5348e-07
3.91122e-07
3.23147e-07
2.91481e-07
2.78473e-07
2.76791e-07
2.82743e-07
2.9421e-07
3.09862e-07
3.28804e-07
3.50402e-07
3.74191e-07
3.99814e-07
4.26993e-07
4.55504e-07
4.85164e-07
5.1582e-07
5.47341e-07
5.79614e-07
6.12538e-07
6.46026e-07
6.79996e-07
7.14375e-07
7.49095e-07
7.84092e-07
8.19307e-07
8.54684e-07
8.90169e-07
9.25711e-07
9.6126e-07
9.96769e-07
1.03219e-06
1.06748e-06
1.1026e-06
1.13749e-06
1.17213e-06
1.20646e-06
1.24045e-06
1.27406e-06
1.30724e-06
1.33997e-06
1.37219e-06
1.40388e-06
1.43499e-06
1.46549e-06
1.49535e-06
1.52452e-06
1.55297e-06
1.58067e-06
1.60758e-06
1.63366e-06
1.65889e-06
1.68323e-06
1.70665e-06
1.72912e-06
1.7506e-06
1.77107e-06
1.79049e-06
1.80883e-06
1.82607e-06
1.84217e-06
1.85711e-06
1.87087e-06
1.88341e-06
1.89471e-06
1.90475e-06
1.9135e-06
1.92094e-06
1.92705e-06
1.9318e-06
1.93519e-06
1.9372e-06
1.93779e-06
1.93698e-06
1.93473e-06
1.93103e-06
1.92588e-06
1.91927e-06
1.91119e-06
1.90164e-06
1.89062e-06
1.87812e-06
1.86415e-06
1.84871e-06
1.83181e-06
1.81346e-06
1.79367e-06
1.77245e-06
1.74983e-06
1.72582e-06
1.70044e-06
1.67373e-06
1.6457e-06
1.6164e-06
1.58586e-06
1.55411e-06
1.5212e-06
1.48718e-06
1.45209e-06
1.41598e-06
1.37891e-06
1.34095e-06
1.30214e-06
1.26257e-06
1.2223e-06
1.1814e-06
1.13996e-06
1.09807e-06
1.0558e-06
1.01326e-06
9.70555e-07
9.27786e-07
8.85072e-07
8.42541e-07
8.0033e-07
7.58589e-07
7.17486e-07
6.77207e-07
6.37966e-07
6.00006e-07
5.63616e-07
5.2914e-07
4.97001e-07
4.67731e-07
4.4202e-07
4.20799e-07
4.05372e-07
3.97672e-07
4.0076e-07
4.19969e-07
4.65875e-07
5.63918e-07
7.97804e-07
1.6762e-06
1.54961e-06
7.34944e-07
5.14158e-07
4.17228e-07
3.6707e-07
3.40443e-07
3.27815e-07
3.24463e-07
3.27721e-07
3.3594e-07
3.48024e-07
3.63205e-07
3.80922e-07
4.00749e-07
4.22356e-07
4.45478e-07
4.69901e-07
4.95445e-07
5.2196e-07
5.49316e-07
5.77402e-07
6.06119e-07
6.3538e-07
6.65105e-07
6.95222e-07
7.25663e-07
7.56368e-07
7.87279e-07
8.18342e-07
8.49505e-07
8.80719e-07
9.11937e-07
9.43116e-07
9.7421e-07
1.00518e-06
1.03598e-06
1.06658e-06
1.09693e-06
1.127e-06
1.15675e-06
1.18614e-06
1.21514e-06
1.24372e-06
1.27183e-06
1.29945e-06
1.32654e-06
1.35306e-06
1.37899e-06
1.4043e-06
1.42894e-06
1.4529e-06
1.47613e-06
1.49861e-06
1.52032e-06
1.54121e-06
1.56126e-06
1.58044e-06
1.59873e-06
1.61609e-06
1.63251e-06
1.64794e-06
1.66238e-06
1.67578e-06
1.68814e-06
1.69942e-06
1.7096e-06
1.71866e-06
1.72658e-06
1.73333e-06
1.73891e-06
1.74329e-06
1.74644e-06
1.74837e-06
1.74905e-06
1.74847e-06
1.74662e-06
1.74349e-06
1.73906e-06
1.73334e-06
1.72631e-06
1.71797e-06
1.70833e-06
1.69737e-06
1.68511e-06
1.67155e-06
1.65669e-06
1.64055e-06
1.62313e-06
1.60446e-06
1.58454e-06
1.5634e-06
1.54105e-06
1.51753e-06
1.49286e-06
1.46708e-06
1.44021e-06
1.41229e-06
1.38336e-06
1.35348e-06
1.32267e-06
1.29101e-06
1.25853e-06
1.22529e-06
1.19136e-06
1.15681e-06
1.1217e-06
1.0861e-06
1.0501e-06
1.01378e-06
9.77234e-07
9.40554e-07
9.03844e-07
8.67218e-07
8.30796e-07
7.94711e-07
7.59108e-07
7.2415e-07
6.90017e-07
6.56916e-07
6.25082e-07
5.94792e-07
5.66373e-07
5.40224e-07
5.16838e-07
4.96845e-07
4.81067e-07
4.70623e-07
4.67104e-07
4.72904e-07
4.9188e-07
5.3087e-07
6.0366e-07
7.4386e-07
1.06294e-06
2.24053e-06
1.95872e-06
9.27395e-07
6.45407e-07
5.18741e-07
4.50112e-07
4.10291e-07
3.87369e-07
3.75495e-07
3.71408e-07
3.73109e-07
3.79288e-07
3.89034e-07
4.01685e-07
4.16747e-07
4.33834e-07
4.52642e-07
4.72923e-07
4.94473e-07
5.17122e-07
5.40722e-07
5.65148e-07
5.9029e-07
6.16048e-07
6.42337e-07
6.69079e-07
6.96203e-07
7.23642e-07
7.51338e-07
7.79234e-07
8.07276e-07
8.35414e-07
8.63602e-07
8.91793e-07
9.19945e-07
9.48016e-07
9.75965e-07
1.00375e-06
1.03135e-06
1.0587e-06
1.08579e-06
1.11257e-06
1.13902e-06
1.16509e-06
1.19075e-06
1.21598e-06
1.24074e-06
1.265e-06
1.28872e-06
1.31189e-06
1.33447e-06
1.35642e-06
1.37773e-06
1.39836e-06
1.41828e-06
1.43747e-06
1.45591e-06
1.47355e-06
1.49039e-06
1.50638e-06
1.52151e-06
1.53576e-06
1.54909e-06
1.56149e-06
1.57293e-06
1.58339e-06
1.59285e-06
1.60129e-06
1.60869e-06
1.61502e-06
1.62028e-06
1.62445e-06
1.6275e-06
1.62942e-06
1.63021e-06
1.62985e-06
1.62833e-06
1.62563e-06
1.62175e-06
1.61668e-06
1.61042e-06
1.60297e-06
1.59433e-06
1.58449e-06
1.57346e-06
1.56124e-06
1.54784e-06
1.53327e-06
1.51755e-06
1.50068e-06
1.48268e-06
1.46358e-06
1.44339e-06
1.42214e-06
1.39985e-06
1.37657e-06
1.35231e-06
1.32713e-06
1.30105e-06
1.27412e-06
1.24639e-06
1.21791e-06
1.18874e-06
1.15892e-06
1.12853e-06
1.09763e-06
1.06628e-06
1.03458e-06
1.00259e-06
9.70397e-07
9.38105e-07
9.0581e-07
8.7362e-07
8.41652e-07
8.10037e-07
7.78915e-07
7.48442e-07
7.18795e-07
6.90171e-07
6.62796e-07
6.36934e-07
6.12897e-07
5.91058e-07
5.71869e-07
5.55897e-07
5.43868e-07
5.36747e-07
5.35858e-07
5.43108e-07
5.61398e-07
5.95468e-07
6.53812e-07
7.53724e-07
9.37647e-07
1.34685e-06
2.84378e-06
2.38542e-06
1.12831e-06
7.82862e-07
6.25716e-07
5.38478e-07
4.85644e-07
4.52791e-07
4.32874e-07
4.21991e-07
4.17771e-07
4.18671e-07
4.23629e-07
4.31881e-07
4.42855e-07
4.56113e-07
4.71307e-07
4.88157e-07
5.06434e-07
5.25946e-07
5.46528e-07
5.68041e-07
5.90364e-07
6.13388e-07
6.37019e-07
6.61172e-07
6.85768e-07
7.10738e-07
7.36015e-07
7.61541e-07
7.87259e-07
8.13119e-07
8.39071e-07
8.65069e-07
8.91068e-07
9.17028e-07
9.42906e-07
9.68666e-07
9.94268e-07
1.01968e-06
1.04486e-06
1.06977e-06
1.09439e-06
1.11868e-06
1.14261e-06
1.16615e-06
1.18926e-06
1.21192e-06
1.2341e-06
1.25576e-06
1.27689e-06
1.29744e-06
1.31741e-06
1.33675e-06
1.35543e-06
1.37345e-06
1.39076e-06
1.40735e-06
1.42318e-06
1.43824e-06
1.4525e-06
1.46593e-06
1.47852e-06
1.49024e-06
1.50107e-06
1.511e-06
1.51998e-06
1.52802e-06
1.53509e-06
1.54118e-06
1.54625e-06
1.55031e-06
1.55333e-06
1.5553e-06
1.55621e-06
1.55605e-06
1.55481e-06
1.55247e-06
1.54903e-06
1.54448e-06
1.53882e-06
1.53205e-06
1.52417e-06
1.51517e-06
1.50507e-06
1.49386e-06
1.48156e-06
1.46818e-06
1.45371e-06
1.4382e-06
1.42163e-06
1.40405e-06
1.38547e-06
1.36591e-06
1.34541e-06
1.324e-06
1.3017e-06
1.27856e-06
1.25463e-06
1.22993e-06
1.20452e-06
1.17846e-06
1.15179e-06
1.12459e-06
1.0969e-06
1.0688e-06
1.04036e-06
1.01167e-06
9.82798e-07
9.53844e-07
9.24903e-07
8.96082e-07
8.67494e-07
8.39265e-07
8.11532e-07
7.84445e-07
7.58177e-07
7.32919e-07
7.08889e-07
6.86338e-07
6.65555e-07
6.46884e-07
6.30741e-07
6.17639e-07
6.08224e-07
6.03328e-07
6.04068e-07
6.1199e-07
6.29345e-07
6.59587e-07
7.08408e-07
7.86085e-07
9.13662e-07
1.14295e-06
1.64671e-06
3.48036e-06
2.8254e-06
1.3356e-06
9.24947e-07
7.36706e-07
6.30703e-07
5.64935e-07
5.22377e-07
4.94735e-07
4.77434e-07
4.67712e-07
4.63781e-07
4.64419e-07
4.68749e-07
4.76125e-07
4.86049e-07
4.98132e-07
5.1206e-07
5.27577e-07
5.44469e-07
5.62556e-07
5.81683e-07
6.01717e-07
6.22539e-07
6.44047e-07
6.66147e-07
6.88756e-07
7.11799e-07
7.35205e-07
7.58913e-07
7.82862e-07
8.06997e-07
8.31267e-07
8.55624e-07
8.80021e-07
9.04416e-07
9.28765e-07
9.53029e-07
9.7717e-07
1.00115e-06
1.02494e-06
1.0485e-06
1.0718e-06
1.0948e-06
1.11747e-06
1.13979e-06
1.16173e-06
1.18324e-06
1.20431e-06
1.22491e-06
1.24501e-06
1.26457e-06
1.28358e-06
1.30201e-06
1.31983e-06
1.33702e-06
1.35355e-06
1.3694e-06
1.38454e-06
1.39895e-06
1.41261e-06
1.4255e-06
1.43758e-06
1.44885e-06
1.45927e-06
1.46884e-06
1.47753e-06
1.48531e-06
1.49218e-06
1.49812e-06
1.50311e-06
1.50713e-06
1.51017e-06
1.51222e-06
1.51326e-06
1.51329e-06
1.51229e-06
1.51025e-06
1.50718e-06
1.50305e-06
1.49788e-06
1.49165e-06
1.48437e-06
1.47604e-06
1.46666e-06
1.45624e-06
1.44479e-06
1.43232e-06
1.41883e-06
1.40436e-06
1.3889e-06
1.3725e-06
1.35515e-06
1.33691e-06
1.31778e-06
1.29782e-06
1.27704e-06
1.25549e-06
1.23322e-06
1.21026e-06
1.18668e-06
1.16251e-06
1.13782e-06
1.11268e-06
1.08714e-06
1.06127e-06
1.03517e-06
1.0089e-06
9.82552e-07
9.56225e-07
9.30022e-07
9.04056e-07
8.78449e-07
8.53335e-07
8.28864e-07
8.05198e-07
7.8252e-07
7.61035e-07
7.40979e-07
7.22626e-07
7.06298e-07
6.92375e-07
6.81321e-07
6.73711e-07
6.70273e-07
6.71955e-07
6.80033e-07
6.96299e-07
7.23365e-07
7.6528e-07
8.28749e-07
9.25938e-07
1.08183e-06
1.35806e-06
1.96033e-06
4.1458e-06
3.27488e-06
1.54744e-06
1.07034e-06
8.50556e-07
7.25666e-07
6.47021e-07
5.94919e-07
5.59785e-07
5.3635e-07
5.21443e-07
5.13021e-07
5.09695e-07
5.10473e-07
5.14626e-07
5.216e-07
5.30959e-07
5.42354e-07
5.55504e-07
5.70172e-07
5.8616e-07
6.03299e-07
6.21444e-07
6.40466e-07
6.60253e-07
6.80705e-07
7.01732e-07
7.23252e-07
7.45191e-07
7.67482e-07
7.90062e-07
8.12872e-07
8.35859e-07
8.58971e-07
8.82161e-07
9.05384e-07
9.28595e-07
9.51756e-07
9.74825e-07
9.97766e-07
1.02054e-06
1.04312e-06
1.06546e-06
1.08754e-06
1.10932e-06
1.13077e-06
1.15186e-06
1.17257e-06
1.19286e-06
1.2127e-06
1.23207e-06
1.25094e-06
1.26929e-06
1.28708e-06
1.3043e-06
1.32091e-06
1.3369e-06
1.35224e-06
1.36691e-06
1.38088e-06
1.39413e-06
1.40664e-06
1.41839e-06
1.42936e-06
1.43953e-06
1.44887e-06
1.45737e-06
1.46501e-06
1.47177e-06
1.47764e-06
1.4826e-06
1.48663e-06
1.48972e-06
1.49186e-06
1.49304e-06
1.49325e-06
1.49247e-06
1.4907e-06
1.48793e-06
1.48416e-06
1.47938e-06
1.47359e-06
1.4668e-06
1.459e-06
1.4502e-06
1.44041e-06
1.42964e-06
1.41789e-06
1.40518e-06
1.39152e-06
1.37694e-06
1.36146e-06
1.3451e-06
1.32789e-06
1.30985e-06
1.29103e-06
1.27146e-06
1.25118e-06
1.23023e-06
1.20867e-06
1.18654e-06
1.16389e-06
1.1408e-06
1.11732e-06
1.09352e-06
1.06949e-06
1.04529e-06
1.02103e-06
9.96781e-07
9.7266e-07
9.4877e-07
9.25231e-07
9.02171e-07
8.79733e-07
8.58075e-07
8.37373e-07
8.17824e-07
7.99652e-07
7.83114e-07
7.68507e-07
7.56184e-07
7.46565e-07
7.40163e-07
7.37619e-07
7.39747e-07
7.4762e-07
7.62688e-07
7.86993e-07
8.2354e-07
8.77001e-07
9.55146e-07
1.07211e-06
1.25699e-06
1.58162e-06
2.28591e-06
4.83638e-06
3.73048e-06
1.76223e-06
1.21788e-06
9.66288e-07
8.22458e-07
7.30999e-07
6.69495e-07
6.27062e-07
5.97721e-07
5.77885e-07
5.65247e-07
5.58246e-07
5.55771e-07
5.57009e-07
5.61341e-07
5.68288e-07
5.77467e-07
5.88566e-07
6.01328e-07
6.15537e-07
6.31008e-07
6.47583e-07
6.65124e-07
6.8351e-07
7.02633e-07
7.22396e-07
7.42712e-07
7.63501e-07
7.84693e-07
8.06219e-07
8.28018e-07
8.50034e-07
8.72212e-07
8.94502e-07
9.16857e-07
9.39233e-07
9.61586e-07
9.83876e-07
1.00606e-06
1.02811e-06
1.04999e-06
1.07165e-06
1.09308e-06
1.11423e-06
1.13507e-06
1.15557e-06
1.17571e-06
1.19546e-06
1.21478e-06
1.23366e-06
1.25206e-06
1.26995e-06
1.28732e-06
1.30413e-06
1.32036e-06
1.336e-06
1.351e-06
1.36536e-06
1.37905e-06
1.39204e-06
1.40432e-06
1.41586e-06
1.42665e-06
1.43666e-06
1.44587e-06
1.45427e-06
1.46184e-06
1.46856e-06
1.47442e-06
1.47939e-06
1.48347e-06
1.48664e-06
1.48889e-06
1.4902e-06
1.49058e-06
1.49e-06
1.48846e-06
1.48596e-06
1.48248e-06
1.47803e-06
1.47261e-06
1.46622e-06
1.45885e-06
1.45052e-06
1.44124e-06
1.431e-06
1.41983e-06
1.40773e-06
1.39474e-06
1.38085e-06
1.36611e-06
1.35052e-06
1.33413e-06
1.31697e-06
1.29906e-06
1.28046e-06
1.26119e-06
1.24132e-06
1.22088e-06
1.19994e-06
1.17855e-06
1.15677e-06
1.13468e-06
1.11234e-06
1.08984e-06
1.06726e-06
1.04469e-06
1.02222e-06
9.99979e-07
9.78066e-07
9.56612e-07
9.35756e-07
9.15649e-07
8.9646e-07
8.78377e-07
8.61613e-07
8.46409e-07
8.33043e-07
8.21839e-07
8.13181e-07
8.0753e-07
8.05454e-07
8.07659e-07
8.15056e-07
8.28847e-07
8.50663e-07
8.82814e-07
9.28712e-07
9.9368e-07
1.0866e-06
1.22364e-06
1.43815e-06
1.81249e-06
2.62189e-06
5.54888e-06
4.18913e-06
1.9785e-06
1.36653e-06
1.08305e-06
9.20303e-07
8.16126e-07
7.45361e-07
6.95804e-07
6.60759e-07
6.36214e-07
6.19596e-07
6.09164e-07
6.03689e-07
6.02269e-07
6.04223e-07
6.09024e-07
6.16253e-07
6.25569e-07
6.36692e-07
6.49388e-07
6.63458e-07
6.78731e-07
6.95057e-07
7.12307e-07
7.30365e-07
7.49127e-07
7.685e-07
7.884e-07
8.0875e-07
8.2948e-07
8.50523e-07
8.71821e-07
8.93315e-07
9.14954e-07
9.36688e-07
9.5847e-07
9.80256e-07
1.002e-06
1.02367e-06
1.04522e-06
1.06662e-06
1.08783e-06
1.10881e-06
1.12954e-06
1.14998e-06
1.1701e-06
1.18988e-06
1.20927e-06
1.22826e-06
1.24682e-06
1.26491e-06
1.28252e-06
1.29962e-06
1.31618e-06
1.33218e-06
1.3476e-06
1.3624e-06
1.37658e-06
1.3901e-06
1.40295e-06
1.41509e-06
1.42653e-06
1.43722e-06
1.44716e-06
1.45632e-06
1.46469e-06
1.47224e-06
1.47897e-06
1.48485e-06
1.48987e-06
1.49402e-06
1.49728e-06
1.49964e-06
1.50109e-06
1.50161e-06
1.50122e-06
1.49988e-06
1.4976e-06
1.49438e-06
1.49021e-06
1.48508e-06
1.47901e-06
1.472e-06
1.46405e-06
1.45517e-06
1.44538e-06
1.43467e-06
1.42307e-06
1.4106e-06
1.39728e-06
1.38313e-06
1.36818e-06
1.35246e-06
1.336e-06
1.31884e-06
1.30103e-06
1.2826e-06
1.2636e-06
1.24409e-06
1.22413e-06
1.20377e-06
1.18308e-06
1.16214e-06
1.14102e-06
1.11981e-06
1.09859e-06
1.07746e-06
1.05652e-06
1.0359e-06
1.0157e-06
9.96069e-07
9.77151e-07
9.59106e-07
9.42116e-07
9.26381e-07
9.1213e-07
8.99621e-07
8.89156e-07
8.81085e-07
8.75827e-07
8.73885e-07
8.75881e-07
8.82598e-07
8.95045e-07
9.14555e-07
9.42951e-07
9.82821e-07
1.038e-06
1.11449e-06
1.22231e-06
1.37973e-06
1.62446e-06
2.04971e-06
2.96693e-06
6.28045e-06
4.64805e-06
2.19494e-06
1.51538e-06
1.20007e-06
1.01852e-06
9.01764e-07
8.21896e-07
7.6539e-07
7.2483e-07
6.95776e-07
6.75387e-07
6.61742e-07
6.53489e-07
6.49639e-07
6.49445e-07
6.52329e-07
6.5784e-07
6.65606e-07
6.75323e-07
6.86739e-07
6.99639e-07
7.13839e-07
7.2918e-07
7.45522e-07
7.6274e-07
7.80726e-07
7.9938e-07
8.18611e-07
8.3834e-07
8.5849e-07
8.78992e-07
8.99784e-07
9.20805e-07
9.42001e-07
9.63318e-07
9.84709e-07
1.00613e-06
1.02753e-06
1.04887e-06
1.07011e-06
1.09121e-06
1.11215e-06
1.13287e-06
1.15335e-06
1.17356e-06
1.19346e-06
1.21302e-06
1.23222e-06
1.25103e-06
1.26941e-06
1.28735e-06
1.30481e-06
1.32177e-06
1.3382e-06
1.35408e-06
1.36939e-06
1.3841e-06
1.39819e-06
1.41164e-06
1.42443e-06
1.43653e-06
1.44793e-06
1.4586e-06
1.46853e-06
1.47769e-06
1.48607e-06
1.49366e-06
1.50043e-06
1.50637e-06
1.51146e-06
1.5157e-06
1.51906e-06
1.52154e-06
1.52312e-06
1.52379e-06
1.52356e-06
1.52241e-06
1.52033e-06
1.51732e-06
1.51338e-06
1.50851e-06
1.50271e-06
1.49598e-06
1.48834e-06
1.47979e-06
1.47035e-06
1.46001e-06
1.44882e-06
1.43677e-06
1.42389e-06
1.41022e-06
1.39577e-06
1.38058e-06
1.36469e-06
1.34813e-06
1.33095e-06
1.31319e-06
1.29491e-06
1.27616e-06
1.257e-06
1.2375e-06
1.21772e-06
1.19775e-06
1.17766e-06
1.15754e-06
1.13748e-06
1.11759e-06
1.09797e-06
1.07876e-06
1.06007e-06
1.04205e-06
1.02485e-06
1.00865e-06
9.93635e-07
9.80026e-07
9.68066e-07
9.58032e-07
9.50248e-07
9.45094e-07
9.43023e-07
9.44584e-07
9.50457e-07
9.61504e-07
9.78831e-07
1.00391e-06
1.03877e-06
1.08628e-06
1.15071e-06
1.23876e-06
1.36161e-06
1.5397e-06
1.8152e-06
2.29239e-06
3.31978e-06
7.02851e-06
5.10471e-06
2.41034e-06
1.66359e-06
1.31669e-06
1.11653e-06
9.87362e-07
8.98568e-07
8.35293e-07
7.89404e-07
7.56033e-07
7.32068e-07
7.1541e-07
7.04582e-07
6.98506e-07
6.96371e-07
6.97549e-07
7.01548e-07
7.07971e-07
7.1649e-07
7.26832e-07
7.38768e-07
7.521e-07
7.66657e-07
7.82292e-07
7.98871e-07
8.16278e-07
8.34407e-07
8.53164e-07
8.72461e-07
8.92221e-07
9.12369e-07
9.32839e-07
9.53568e-07
9.74499e-07
9.95575e-07
1.01675e-06
1.03797e-06
1.05918e-06
1.08036e-06
1.10145e-06
1.12242e-06
1.14323e-06
1.16384e-06
1.18422e-06
1.20434e-06
1.22416e-06
1.24365e-06
1.26278e-06
1.28153e-06
1.29986e-06
1.31774e-06
1.33516e-06
1.35209e-06
1.3685e-06
1.38436e-06
1.39965e-06
1.41436e-06
1.42845e-06
1.4419e-06
1.4547e-06
1.46682e-06
1.47824e-06
1.48895e-06
1.49891e-06
1.50813e-06
1.51656e-06
1.52421e-06
1.53106e-06
1.53708e-06
1.54226e-06
1.54659e-06
1.55006e-06
1.55266e-06
1.55437e-06
1.55518e-06
1.55509e-06
1.5541e-06
1.55219e-06
1.54936e-06
1.54562e-06
1.54095e-06
1.53537e-06
1.52888e-06
1.52149e-06
1.5132e-06
1.50404e-06
1.494e-06
1.48311e-06
1.4714e-06
1.45888e-06
1.44558e-06
1.43153e-06
1.41676e-06
1.40132e-06
1.38524e-06
1.36857e-06
1.35136e-06
1.33366e-06
1.31553e-06
1.29703e-06
1.27824e-06
1.25922e-06
1.24005e-06
1.22083e-06
1.20164e-06
1.18258e-06
1.16376e-06
1.14529e-06
1.12731e-06
1.10995e-06
1.09335e-06
1.07769e-06
1.06315e-06
1.04994e-06
1.03827e-06
1.02842e-06
1.02067e-06
1.01539e-06
1.01298e-06
1.01392e-06
1.01882e-06
1.02841e-06
1.04364e-06
1.06572e-06
1.09626e-06
1.13749e-06
1.19259e-06
1.26627e-06
1.36593e-06
1.50395e-06
1.70296e-06
2.0097e-06
2.53972e-06
3.67932e-06
7.79069e-06
5.55682e-06
2.62362e-06
1.81039e-06
1.43228e-06
1.21378e-06
1.07243e-06
9.74915e-07
9.05066e-07
8.54037e-07
8.16536e-07
7.89184e-07
7.69702e-07
7.56488e-07
7.48376e-07
7.4449e-07
7.44153e-07
7.4683e-07
7.52101e-07
7.5961e-07
7.69067e-07
7.80224e-07
7.92873e-07
8.0683e-07
8.21939e-07
8.38058e-07
8.55063e-07
8.72843e-07
8.91297e-07
9.10334e-07
9.29871e-07
9.4983e-07
9.70141e-07
9.90739e-07
1.01156e-06
1.03255e-06
1.05366e-06
1.07482e-06
1.09601e-06
1.11716e-06
1.13824e-06
1.15921e-06
1.18003e-06
1.20066e-06
1.22106e-06
1.2412e-06
1.26106e-06
1.28059e-06
1.29976e-06
1.31855e-06
1.33693e-06
1.35487e-06
1.37234e-06
1.38933e-06
1.40579e-06
1.42171e-06
1.43707e-06
1.45184e-06
1.46599e-06
1.47952e-06
1.49238e-06
1.50458e-06
1.51607e-06
1.52686e-06
1.5369e-06
1.5462e-06
1.55473e-06
1.56247e-06
1.5694e-06
1.57552e-06
1.58081e-06
1.58525e-06
1.58883e-06
1.59154e-06
1.59337e-06
1.59431e-06
1.59436e-06
1.59351e-06
1.59174e-06
1.58906e-06
1.58548e-06
1.58098e-06
1.57557e-06
1.56927e-06
1.56207e-06
1.55399e-06
1.54503e-06
1.53523e-06
1.52458e-06
1.51312e-06
1.50087e-06
1.48786e-06
1.47412e-06
1.45968e-06
1.44459e-06
1.42889e-06
1.41262e-06
1.39584e-06
1.37861e-06
1.36098e-06
1.34302e-06
1.32481e-06
1.30641e-06
1.28793e-06
1.26943e-06
1.25103e-06
1.23282e-06
1.21493e-06
1.19746e-06
1.18056e-06
1.16438e-06
1.14906e-06
1.13478e-06
1.12175e-06
1.11017e-06
1.10028e-06
1.09238e-06
1.08678e-06
1.08384e-06
1.08402e-06
1.08783e-06
1.09593e-06
1.10912e-06
1.12841e-06
1.15513e-06
1.19105e-06
1.2386e-06
1.30125e-06
1.38417e-06
1.49549e-06
1.6488e-06
1.86898e-06
2.20736e-06
2.79098e-06
4.04449e-06
8.56475e-06
6.0023e-06
2.8338e-06
1.95511e-06
1.54631e-06
1.30981e-06
1.15655e-06
1.05054e-06
9.74323e-07
9.18349e-07
8.76908e-07
8.46354e-07
8.2423e-07
8.08812e-07
7.98844e-07
7.93386e-07
7.91711e-07
7.93248e-07
7.9754e-07
8.04214e-07
8.12958e-07
8.2351e-07
8.35645e-07
8.49171e-07
8.63919e-07
8.79742e-07
8.96508e-07
9.14098e-07
9.32407e-07
9.51338e-07
9.70804e-07
9.90723e-07
1.01102e-06
1.03163e-06
1.05249e-06
1.07353e-06
1.0947e-06
1.11595e-06
1.13723e-06
1.15848e-06
1.17968e-06
1.20076e-06
1.22171e-06
1.24246e-06
1.263e-06
1.28327e-06
1.30326e-06
1.32293e-06
1.34224e-06
1.36117e-06
1.37968e-06
1.39776e-06
1.41537e-06
1.43248e-06
1.44907e-06
1.46512e-06
1.48061e-06
1.4955e-06
1.50978e-06
1.52342e-06
1.53641e-06
1.54872e-06
1.56033e-06
1.57123e-06
1.58139e-06
1.5908e-06
1.59944e-06
1.60729e-06
1.61434e-06
1.62057e-06
1.62597e-06
1.63052e-06
1.63421e-06
1.63704e-06
1.63898e-06
1.64004e-06
1.6402e-06
1.63947e-06
1.63782e-06
1.63527e-06
1.63181e-06
1.62744e-06
1.62218e-06
1.61601e-06
1.60896e-06
1.60103e-06
1.59223e-06
1.58259e-06
1.57212e-06
1.56085e-06
1.5488e-06
1.536e-06
1.52249e-06
1.5083e-06
1.49347e-06
1.47806e-06
1.4621e-06
1.44565e-06
1.42878e-06
1.41155e-06
1.39402e-06
1.37628e-06
1.3584e-06
1.34047e-06
1.32259e-06
1.30485e-06
1.28737e-06
1.27027e-06
1.25368e-06
1.23773e-06
1.22259e-06
1.20841e-06
1.19538e-06
1.18371e-06
1.17363e-06
1.1654e-06
1.15932e-06
1.15571e-06
1.155e-06
1.15763e-06
1.1642e-06
1.17539e-06
1.19206e-06
1.21532e-06
1.2466e-06
1.28782e-06
1.34163e-06
1.41181e-06
1.50398e-06
1.627e-06
1.79571e-06
2.03724e-06
2.4076e-06
3.04545e-06
4.41428e-06
9.34858e-06
6.43934e-06
3.04002e-06
2.09715e-06
1.65831e-06
1.40421e-06
1.23935e-06
1.1251e-06
1.04273e-06
9.82019e-07
9.36831e-07
9.03259e-07
8.78673e-07
8.61227e-07
8.49577e-07
8.42718e-07
8.39875e-07
8.40438e-07
8.43918e-07
8.49922e-07
8.58116e-07
8.68222e-07
8.80003e-07
8.93253e-07
9.07796e-07
9.23475e-07
9.4015e-07
9.57698e-07
9.76006e-07
9.94973e-07
1.01451e-06
1.03452e-06
1.05494e-06
1.07569e-06
1.09671e-06
1.11793e-06
1.13929e-06
1.16074e-06
1.18222e-06
1.2037e-06
1.22511e-06
1.24642e-06
1.26759e-06
1.28857e-06
1.30934e-06
1.32984e-06
1.35006e-06
1.36994e-06
1.38948e-06
1.40862e-06
1.42735e-06
1.44563e-06
1.46344e-06
1.48075e-06
1.49754e-06
1.51377e-06
1.52944e-06
1.54451e-06
1.55896e-06
1.57277e-06
1.58591e-06
1.59838e-06
1.61014e-06
1.62119e-06
1.63149e-06
1.64104e-06
1.64981e-06
1.65779e-06
1.66496e-06
1.67131e-06
1.67682e-06
1.68149e-06
1.68529e-06
1.68822e-06
1.69027e-06
1.69143e-06
1.6917e-06
1.69106e-06
1.68952e-06
1.68707e-06
1.6837e-06
1.67943e-06
1.67426e-06
1.6682e-06
1.66125e-06
1.65342e-06
1.64473e-06
1.63521e-06
1.62486e-06
1.61371e-06
1.6018e-06
1.58915e-06
1.57579e-06
1.56177e-06
1.54713e-06
1.53192e-06
1.51618e-06
1.49999e-06
1.48339e-06
1.46646e-06
1.44926e-06
1.43189e-06
1.41442e-06
1.39695e-06
1.37957e-06
1.36239e-06
1.34553e-06
1.32911e-06
1.31328e-06
1.29817e-06
1.28394e-06
1.27078e-06
1.25889e-06
1.24847e-06
1.23977e-06
1.23307e-06
1.22868e-06
1.22697e-06
1.22835e-06
1.23334e-06
1.24256e-06
1.25673e-06
1.27679e-06
1.30394e-06
1.33971e-06
1.38617e-06
1.4462e-06
1.52387e-06
1.6253e-06
1.76007e-06
1.94425e-06
2.20728e-06
2.6099e-06
3.30248e-06
4.78774e-06
1.01402e-05
6.86635e-06
3.24154e-06
2.23601e-06
1.76785e-06
1.49664e-06
1.32051e-06
1.19829e-06
1.11002e-06
1.04478e-06
9.9604e-07
9.59637e-07
9.32768e-07
9.13466e-07
9.00304e-07
8.92209e-07
8.88361e-07
8.88111e-07
8.90937e-07
8.96427e-07
9.04225e-07
9.14037e-07
9.25612e-07
9.38735e-07
9.53217e-07
9.68893e-07
9.85618e-07
1.00326e-06
1.0217e-06
1.04084e-06
1.06057e-06
1.08081e-06
1.10147e-06
1.12248e-06
1.14378e-06
1.16528e-06
1.18694e-06
1.2087e-06
1.2305e-06
1.25229e-06
1.27402e-06
1.29566e-06
1.31714e-06
1.33844e-06
1.35952e-06
1.38033e-06
1.40085e-06
1.42104e-06
1.44086e-06
1.46029e-06
1.4793e-06
1.49785e-06
1.51592e-06
1.53348e-06
1.55052e-06
1.56699e-06
1.58288e-06
1.59817e-06
1.61283e-06
1.62685e-06
1.64019e-06
1.65284e-06
1.66478e-06
1.676e-06
1.68646e-06
1.69616e-06
1.70508e-06
1.7132e-06
1.72051e-06
1.72698e-06
1.73262e-06
1.7374e-06
1.74131e-06
1.74434e-06
1.74649e-06
1.74774e-06
1.74809e-06
1.74753e-06
1.74607e-06
1.74369e-06
1.74039e-06
1.73619e-06
1.73108e-06
1.72508e-06
1.71819e-06
1.71043e-06
1.7018e-06
1.69234e-06
1.68206e-06
1.67098e-06
1.65914e-06
1.64657e-06
1.63331e-06
1.61939e-06
1.60487e-06
1.58979e-06
1.5742e-06
1.55817e-06
1.54176e-06
1.52505e-06
1.5081e-06
1.49101e-06
1.47386e-06
1.45675e-06
1.43978e-06
1.42306e-06
1.40672e-06
1.39088e-06
1.37569e-06
1.36131e-06
1.34791e-06
1.33566e-06
1.32479e-06
1.31551e-06
1.30809e-06
1.30281e-06
1.30001e-06
1.30009e-06
1.30347e-06
1.31073e-06
1.32249e-06
1.33956e-06
1.36294e-06
1.39389e-06
1.43408e-06
1.48574e-06
1.55194e-06
1.63709e-06
1.74777e-06
1.8943e-06
2.09402e-06
2.37866e-06
2.81373e-06
3.56142e-06
5.16394e-06
1.09376e-05
7.28203e-06
3.43774e-06
2.37124e-06
1.87461e-06
1.5868e-06
1.39978e-06
1.26989e-06
1.17596e-06
1.10641e-06
1.05432e-06
1.01528e-06
9.86301e-07
9.65317e-07
9.50807e-07
9.41639e-07
9.36943e-07
9.36035e-07
9.38361e-07
9.43485e-07
9.51034e-07
9.60697e-07
9.72209e-07
9.85343e-07
9.99901e-07
1.01571e-06
1.03261e-06
1.05048e-06
1.06918e-06
1.08861e-06
1.10865e-06
1.12923e-06
1.15025e-06
1.17164e-06
1.19332e-06
1.21522e-06
1.23728e-06