/*--------------------------------*- C++ -*----------------------------------*\
  =========                 |
  \\      /  F ield         | OpenFOAM: The Open Source CFD Toolbox
   \\    /   O peration     | Website:  https://openfoam.org
    \\  /    A nd           | Version:  12
     \\/     M anipulation  |
\*---------------------------------------------------------------------------*/
FoamFile
{
    format      ascii;
    class       volScalarField;
    location    "6";
    object      k;
}
// * * * * * * * * * * * * * * * * * * * * * * * * * * * * * * * * * * * * * //

dimensions      [0 2 -2 0 0 0 0];

internalField   nonuniform List<scalar> 
18225
(
8.80952e-12
6.65654e-11
1.41261e-10
2.30721e-10
3.31957e-10
4.42792e-10
5.61721e-10
6.87663e-10
8.19798e-10
9.57468e-10
1.10013e-09
1.24731e-09
1.39859e-09
1.55362e-09
1.71204e-09
1.87356e-09
2.03787e-09
2.20471e-09
2.37382e-09
2.54494e-09
2.71784e-09
2.89228e-09
3.06804e-09
3.24489e-09
3.42263e-09
3.60103e-09
3.7799e-09
3.95901e-09
4.13818e-09
4.31719e-09
4.49586e-09
4.67397e-09
4.85134e-09
5.02777e-09
5.20307e-09
5.37705e-09
5.54951e-09
5.72028e-09
5.88915e-09
6.05596e-09
6.22052e-09
6.38263e-09
6.54213e-09
6.69884e-09
6.85258e-09
7.00317e-09
7.15045e-09
7.29424e-09
7.43437e-09
7.57067e-09
7.703e-09
7.83117e-09
7.95503e-09
8.07443e-09
8.18921e-09
8.29922e-09
8.4043e-09
8.50432e-09
8.59912e-09
8.68857e-09
8.77254e-09
8.85087e-09
8.92345e-09
8.99015e-09
9.05085e-09
9.10541e-09
9.15374e-09
9.19572e-09
9.23124e-09
9.26021e-09
9.28253e-09
9.29811e-09
9.30685e-09
9.3087e-09
9.30357e-09
9.29139e-09
9.27211e-09
9.24569e-09
9.21207e-09
9.17123e-09
9.12314e-09
9.06779e-09
9.00517e-09
8.93528e-09
8.85815e-09
8.77379e-09
8.68224e-09
8.58355e-09
8.47778e-09
8.36501e-09
8.24531e-09
8.11878e-09
7.98554e-09
7.84571e-09
7.69942e-09
7.54682e-09
7.38809e-09
7.22339e-09
7.05292e-09
6.87688e-09
6.6955e-09
6.50901e-09
6.31766e-09
6.12171e-09
5.92143e-09
5.71713e-09
5.5091e-09
5.29765e-09
5.08314e-09
4.86589e-09
4.64628e-09
4.42467e-09
4.20147e-09
3.97706e-09
3.75188e-09
3.52635e-09
3.30093e-09
3.0761e-09
2.85233e-09
2.63015e-09
2.41008e-09
2.19269e-09
1.97858e-09
1.76838e-09
1.56278e-09
1.36252e-09
1.16842e-09
9.81414e-10
8.0259e-10
6.33261e-10
4.75106e-10
3.30399e-10
2.02368e-10
9.53799e-11
1.26233e-11
5.96058e-11
5.30724e-10
1.21103e-09
2.02731e-09
2.94625e-09
3.9488e-09
5.02243e-09
6.15808e-09
7.34875e-09
8.58874e-09
9.87327e-09
1.11982e-08
1.25599e-08
1.3955e-08
1.53807e-08
1.6834e-08
1.83124e-08
1.98134e-08
2.13348e-08
2.28743e-08
2.44297e-08
2.59989e-08
2.758e-08
2.91709e-08
3.07698e-08
3.23746e-08
3.39835e-08
3.55947e-08
3.72063e-08
3.88166e-08
4.04237e-08
4.20259e-08
4.36213e-08
4.52083e-08
4.67852e-08
4.83501e-08
4.99015e-08
5.14376e-08
5.29567e-08
5.44572e-08
5.59374e-08
5.73958e-08
5.88306e-08
6.02403e-08
6.16233e-08
6.2978e-08
6.43029e-08
6.55964e-08
6.68571e-08
6.80834e-08
6.92738e-08
7.0427e-08
7.15414e-08
7.26156e-08
7.36483e-08
7.46381e-08
7.55837e-08
7.64836e-08
7.73367e-08
7.81417e-08
7.88973e-08
7.96023e-08
8.02555e-08
8.08559e-08
8.14022e-08
8.18935e-08
8.23286e-08
8.27066e-08
8.30264e-08
8.32873e-08
8.34883e-08
8.36287e-08
8.37076e-08
8.37244e-08
8.36785e-08
8.35693e-08
8.33962e-08
8.31587e-08
8.28566e-08
8.24895e-08
8.20571e-08
8.15595e-08
8.09964e-08
8.0368e-08
7.96743e-08
7.89156e-08
7.80923e-08
7.72047e-08
7.62535e-08
7.52391e-08
7.41625e-08
7.30244e-08
7.18259e-08
7.05681e-08
6.92522e-08
6.78795e-08
6.64516e-08
6.497e-08
6.34364e-08
6.18528e-08
6.0221e-08
5.85433e-08
5.68217e-08
5.50588e-08
5.3257e-08
5.14188e-08
4.95471e-08
4.76446e-08
4.57145e-08
4.37598e-08
4.17837e-08
3.97897e-08
3.77811e-08
3.57618e-08
3.37354e-08
3.17058e-08
2.96772e-08
2.76537e-08
2.56397e-08
2.36399e-08
2.16589e-08
1.9702e-08
1.77743e-08
1.58817e-08
1.40301e-08
1.22262e-08
1.04772e-08
8.79148e-09
7.17835e-09
5.64915e-09
4.21803e-09
2.90402e-09
1.73537e-09
7.60667e-10
8.54341e-11
1.32747e-10
1.19089e-09
2.73516e-09
4.60096e-09
6.70985e-09
9.0157e-09
1.14879e-08
1.41046e-08
1.68487e-08
1.97069e-08
2.26679e-08
2.5722e-08
2.88608e-08
3.20766e-08
3.53625e-08
3.87121e-08
4.21195e-08
4.55789e-08
4.90851e-08
5.2633e-08
5.62175e-08
5.98338e-08
6.34774e-08
6.71436e-08
7.08281e-08
7.45263e-08
7.8234e-08
8.1947e-08
8.56609e-08
8.93718e-08
9.30753e-08
9.67676e-08
1.00444e-07
1.04102e-07
1.07736e-07
1.11343e-07
1.14918e-07
1.18458e-07
1.2196e-07
1.25418e-07
1.2883e-07
1.32191e-07
1.35499e-07
1.38748e-07
1.41936e-07
1.45059e-07
1.48113e-07
1.51096e-07
1.54002e-07
1.5683e-07
1.59575e-07
1.62234e-07
1.64803e-07
1.67281e-07
1.69663e-07
1.71946e-07
1.74127e-07
1.76203e-07
1.78171e-07
1.80029e-07
1.81772e-07
1.834e-07
1.84908e-07
1.86294e-07
1.87555e-07
1.8869e-07
1.89696e-07
1.9057e-07
1.9131e-07
1.91914e-07
1.92381e-07
1.92707e-07
1.92892e-07
1.92934e-07
1.92831e-07
1.92583e-07
1.92187e-07
1.91642e-07
1.90949e-07
1.90105e-07
1.89112e-07
1.87967e-07
1.86672e-07
1.85226e-07
1.83629e-07
1.81883e-07
1.79987e-07
1.77943e-07
1.75752e-07
1.73415e-07
1.70935e-07
1.68313e-07
1.65551e-07
1.62653e-07
1.5962e-07
1.56456e-07
1.53165e-07
1.49749e-07
1.46214e-07
1.42563e-07
1.38801e-07
1.34933e-07
1.30963e-07
1.26898e-07
1.22743e-07
1.18503e-07
1.14187e-07
1.09799e-07
1.05347e-07
1.00839e-07
9.62805e-08
9.16808e-08
8.70476e-08
8.23892e-08
7.77143e-08
7.3032e-08
6.83516e-08
6.36829e-08
5.90361e-08
5.44217e-08
4.98507e-08
4.53349e-08
4.08865e-08
3.65188e-08
3.22457e-08
2.80827e-08
2.40468e-08
2.01572e-08
1.64363e-08
1.29112e-08
9.61613e-09
6.59742e-09
3.92346e-09
1.70863e-09
1.90468e-10
2.19994e-10
1.97685e-09
4.54986e-09
7.6693e-09
1.12049e-08
1.50786e-08
1.92377e-08
2.3644e-08
2.8268e-08
3.30863e-08
3.80792e-08
4.32301e-08
4.85245e-08
5.39492e-08
5.94924e-08
6.51434e-08
7.08919e-08
7.67284e-08
8.26438e-08
8.86295e-08
9.46771e-08
1.00778e-07
1.06926e-07
1.13112e-07
1.19328e-07
1.25568e-07
1.31824e-07
1.38089e-07
1.44355e-07
1.50617e-07
1.56866e-07
1.63097e-07
1.69301e-07
1.75474e-07
1.81606e-07
1.87693e-07
1.93728e-07
1.99703e-07
2.05612e-07
2.1145e-07
2.17209e-07
2.22883e-07
2.28467e-07
2.33953e-07
2.39335e-07
2.44609e-07
2.49766e-07
2.54802e-07
2.59711e-07
2.64486e-07
2.69123e-07
2.73614e-07
2.77956e-07
2.82142e-07
2.86167e-07
2.90025e-07
2.93712e-07
2.97222e-07
3.00549e-07
3.03691e-07
3.0664e-07
3.09393e-07
3.11945e-07
3.14292e-07
3.16429e-07
3.18352e-07
3.20057e-07
3.2154e-07
3.22797e-07
3.23825e-07
3.2462e-07
3.25179e-07
3.255e-07
3.25578e-07
3.25413e-07
3.25002e-07
3.24341e-07
3.2343e-07
3.22267e-07
3.20851e-07
3.19181e-07
3.17256e-07
3.15076e-07
3.12642e-07
3.09953e-07
3.0701e-07
3.03816e-07
3.0037e-07
2.96676e-07
2.92736e-07
2.88553e-07
2.84129e-07
2.7947e-07
2.74579e-07
2.69461e-07
2.64121e-07
2.58565e-07
2.52799e-07
2.46831e-07
2.40666e-07
2.34313e-07
2.2778e-07
2.21076e-07
2.14209e-07
2.07191e-07
2.0003e-07
1.92737e-07
1.85324e-07
1.77803e-07
1.70185e-07
1.62483e-07
1.54711e-07
1.46881e-07
1.39009e-07
1.31108e-07
1.23195e-07
1.15285e-07
1.07394e-07
9.95407e-08
9.17417e-08
8.40163e-08
7.63842e-08
6.88664e-08
6.14854e-08
5.42653e-08
4.72325e-08
4.04164e-08
3.38503e-08
2.75732e-08
2.16321e-08
1.60867e-08
1.10167e-08
6.53819e-09
2.84136e-09
3.16217e-10
3.1755e-10
2.85523e-09
6.57759e-09
1.10987e-08
1.62319e-08
2.18642e-08
2.79188e-08
3.43391e-08
4.10815e-08
4.81108e-08
5.5398e-08
6.29179e-08
7.0649e-08
7.85718e-08
8.66688e-08
9.49239e-08
1.03322e-07
1.1185e-07
1.20493e-07
1.29239e-07
1.38076e-07
1.46992e-07
1.55976e-07
1.65015e-07
1.74101e-07
1.8322e-07
1.92363e-07
2.0152e-07
2.1068e-07
2.19833e-07
2.28968e-07
2.38076e-07
2.47147e-07
2.56171e-07
2.65137e-07
2.74037e-07
2.82861e-07
2.91598e-07
3.00241e-07
3.08778e-07
3.17201e-07
3.25501e-07
3.33669e-07
3.41694e-07
3.4957e-07
3.57285e-07
3.64832e-07
3.72203e-07
3.79387e-07
3.86378e-07
3.93165e-07
3.99742e-07
4.061e-07
4.12231e-07
4.18127e-07
4.2378e-07
4.29183e-07
4.34327e-07
4.39206e-07
4.43813e-07
4.4814e-07
4.5218e-07
4.55927e-07
4.59373e-07
4.62514e-07
4.65341e-07
4.6785e-07
4.70035e-07
4.7189e-07
4.7341e-07
4.7459e-07
4.75424e-07
4.7591e-07
4.76042e-07
4.75817e-07
4.75232e-07
4.74282e-07
4.72966e-07
4.71281e-07
4.69225e-07
4.66797e-07
4.63997e-07
4.60823e-07
4.57275e-07
4.53355e-07
4.49063e-07
4.44401e-07
4.39372e-07
4.33979e-07
4.28224e-07
4.22112e-07
4.15649e-07
4.08839e-07
4.01689e-07
3.94206e-07
3.86398e-07
3.78272e-07
3.69838e-07
3.61106e-07
3.52086e-07
3.4279e-07
3.3323e-07
3.23417e-07
3.13367e-07
3.03092e-07
2.92609e-07
2.81932e-07
2.71078e-07
2.60064e-07
2.48909e-07
2.3763e-07
2.26247e-07
2.1478e-07
2.0325e-07
1.91679e-07
1.80088e-07
1.68502e-07
1.56945e-07
1.45442e-07
1.34019e-07
1.22705e-07
1.11528e-07
1.0052e-07
8.97145e-08
7.91465e-08
6.88558e-08
5.88861e-08
4.92873e-08
4.01176e-08
3.14469e-08
2.33632e-08
1.59837e-08
9.47623e-09
4.11437e-09
4.57614e-10
4.23041e-10
3.80484e-09
8.76945e-09
1.48057e-08
2.16667e-08
2.92027e-08
3.7311e-08
4.59158e-08
5.49581e-08
6.43903e-08
7.41725e-08
8.42708e-08
9.46554e-08
1.053e-07
1.16181e-07
1.27275e-07
1.38564e-07
1.50027e-07
1.61647e-07
1.73406e-07
1.85289e-07
1.97278e-07
2.09359e-07
2.21517e-07
2.33736e-07
2.46002e-07
2.58301e-07
2.70618e-07
2.82941e-07
2.95254e-07
3.07545e-07
3.198e-07
3.32006e-07
3.44149e-07
3.56216e-07
3.68194e-07
3.80071e-07
3.91833e-07
4.03467e-07
4.14962e-07
4.26304e-07
4.37481e-07
4.4848e-07
4.5929e-07
4.69898e-07
4.80293e-07
4.90462e-07
5.00394e-07
5.10077e-07
5.195e-07
5.28652e-07
5.3752e-07
5.46095e-07
5.54366e-07
5.62321e-07
5.6995e-07
5.77244e-07
5.8419e-07
5.90781e-07
5.97006e-07
6.02855e-07
6.08318e-07
6.13388e-07
6.18055e-07
6.22309e-07
6.26144e-07
6.2955e-07
6.3252e-07
6.35046e-07
6.37122e-07
6.3874e-07
6.39893e-07
6.40577e-07
6.40784e-07
6.40511e-07
6.39752e-07
6.38502e-07
6.36759e-07
6.34518e-07
6.31777e-07
6.28534e-07
6.24789e-07
6.20539e-07
6.15786e-07
6.1053e-07
6.04772e-07
5.98514e-07
5.9176e-07
5.84514e-07
5.7678e-07
5.68564e-07
5.59872e-07
5.50712e-07
5.41092e-07
5.31021e-07
5.2051e-07
5.0957e-07
4.98213e-07
4.86453e-07
4.74303e-07
4.61779e-07
4.48897e-07
4.35674e-07
4.22128e-07
4.0828e-07
3.94148e-07
3.79754e-07
3.6512e-07
3.5027e-07
3.35228e-07
3.20018e-07
3.04667e-07
2.89203e-07
2.73653e-07
2.58046e-07
2.42415e-07
2.26789e-07
2.11202e-07
1.9569e-07
1.80286e-07
1.65031e-07
1.49962e-07
1.35124e-07
1.20561e-07
1.06322e-07
9.24616e-08
7.90393e-08
6.61233e-08
5.37925e-08
4.21419e-08
3.12901e-08
2.13936e-08
1.26763e-08
5.50113e-09
6.1168e-10
5.34729e-10
4.81012e-09
1.10896e-08
1.87295e-08
2.74195e-08
3.69714e-08
4.72557e-08
5.81766e-08
6.9659e-08
8.16422e-08
9.4075e-08
1.06914e-07
1.20121e-07
1.33662e-07
1.47506e-07
1.61625e-07
1.75992e-07
1.90585e-07
2.05378e-07
2.20351e-07
2.35482e-07
2.5075e-07
2.66136e-07
2.81621e-07
2.97186e-07
3.12812e-07
3.28481e-07
3.44175e-07
3.59877e-07
3.75568e-07
3.91232e-07
4.06852e-07
4.2241e-07
4.3789e-07
4.53274e-07
4.68547e-07
4.83692e-07
4.98691e-07
5.13531e-07
5.28193e-07
5.42662e-07
5.56923e-07
5.70959e-07
5.84755e-07
5.98296e-07
6.11566e-07
6.2455e-07
6.37234e-07
6.49602e-07
6.6164e-07
6.73334e-07
6.84669e-07
6.95631e-07
7.06207e-07
7.16382e-07
7.26143e-07
7.35478e-07
7.44372e-07
7.52814e-07
7.6079e-07
7.68288e-07
7.75297e-07
7.81804e-07
7.87798e-07
7.93268e-07
7.98203e-07
8.02592e-07
8.06426e-07
8.09695e-07
8.12389e-07
8.145e-07
8.16018e-07
8.16937e-07
8.17249e-07
8.16948e-07
8.16026e-07
8.14478e-07
8.12298e-07
8.09483e-07
8.0603e-07
8.01935e-07
7.97197e-07
7.91815e-07
7.85788e-07
7.79117e-07
7.71805e-07
7.63852e-07
7.55265e-07
7.46046e-07
7.36202e-07
7.25741e-07
7.1467e-07
7.02998e-07
6.90737e-07
6.77898e-07
6.64494e-07
6.5054e-07
6.36051e-07
6.21043e-07
6.05536e-07
5.89549e-07
5.73101e-07
5.56216e-07
5.38917e-07
5.21228e-07
5.03176e-07
4.84787e-07
4.66089e-07
4.47114e-07
4.27891e-07
4.08454e-07
3.88836e-07
3.69071e-07
3.49197e-07
3.2925e-07
3.09272e-07
2.89301e-07
2.69381e-07
2.49557e-07
2.29874e-07
2.10382e-07
1.91133e-07
1.7218e-07
1.53583e-07
1.35406e-07
1.17717e-07
1.00595e-07
8.41257e-08
6.84115e-08
5.35732e-08
3.97617e-08
2.71753e-08
1.60964e-08
6.98339e-09
7.76373e-10
6.5122e-10
5.85856e-09
1.35091e-08
2.28212e-08
3.34186e-08
4.50729e-08
5.76274e-08
7.09655e-08
8.49956e-08
9.96435e-08
1.14847e-07
1.30551e-07
1.46711e-07
1.63283e-07
1.80229e-07
1.97516e-07
2.1511e-07
2.32982e-07
2.51103e-07
2.69446e-07
2.87985e-07
3.06695e-07
3.25551e-07
3.4453e-07
3.63609e-07
3.82765e-07
4.01976e-07
4.21219e-07
4.40473e-07
4.59718e-07
4.7893e-07
4.9809e-07
5.17177e-07
5.36169e-07
5.55048e-07
5.73791e-07
5.92379e-07
6.10792e-07
6.29011e-07
6.47014e-07
6.64784e-07
6.82299e-07
6.99542e-07
7.16493e-07
7.33133e-07
7.49444e-07
7.65407e-07
7.81003e-07
7.96215e-07
8.11024e-07
8.25413e-07
8.39364e-07
8.52861e-07
8.65885e-07
8.78421e-07
8.90451e-07
9.01959e-07
9.12929e-07
9.23346e-07
9.33193e-07
9.42456e-07
9.5112e-07
9.5917e-07
9.66592e-07
9.73371e-07
9.79496e-07
9.84952e-07
9.89727e-07
9.93808e-07
9.97185e-07
9.99846e-07
1.00178e-06
1.00298e-06
1.00343e-06
1.00313e-06
1.00207e-06
1.00023e-06
9.97622e-07
9.9423e-07
9.90053e-07
9.85086e-07
9.79327e-07
9.72774e-07
9.65427e-07
9.57286e-07
9.48354e-07
9.38633e-07
9.28128e-07
9.16845e-07
9.0479e-07
8.91972e-07
8.78402e-07
8.6409e-07
8.4905e-07
8.33295e-07
8.16842e-07
7.99709e-07
7.81914e-07
7.63478e-07
7.44425e-07
7.24776e-07
7.04559e-07
6.83801e-07
6.6253e-07
6.40776e-07
6.18572e-07
5.95952e-07
5.7295e-07
5.49604e-07
5.25952e-07
5.02035e-07
4.77893e-07
4.5357e-07
4.29112e-07
4.04566e-07
3.79979e-07
3.55403e-07
3.30892e-07
3.06499e-07
2.82283e-07
2.58305e-07
2.34628e-07
2.11321e-07
1.88456e-07
1.66113e-07
1.44378e-07
1.23345e-07
1.03123e-07
8.38366e-08
6.5634e-08
4.86995e-08
3.32751e-08
1.9705e-08
8.54744e-09
9.50164e-10
7.71336e-10
6.93958e-09
1.60038e-08
2.70397e-08
3.96033e-08
5.34252e-08
6.83206e-08
8.41515e-08
1.0081e-07
1.18208e-07
1.36271e-07
1.54935e-07
1.74145e-07
1.93849e-07
2.14004e-07
2.34567e-07
2.555e-07
2.76767e-07
2.98333e-07
3.20167e-07
3.42237e-07
3.64513e-07
3.86966e-07
4.09569e-07
4.32293e-07
4.55111e-07
4.77998e-07
5.00926e-07
5.2387e-07
5.46805e-07
5.69705e-07
5.92546e-07
6.15302e-07
6.37949e-07
6.60462e-07
6.82819e-07
7.04993e-07
7.26962e-07
7.48703e-07
7.7019e-07
7.91402e-07
8.12315e-07
8.32906e-07
8.53153e-07
8.73032e-07
8.92522e-07
9.11601e-07
9.30246e-07
9.48437e-07
9.66151e-07
9.83368e-07
1.00007e-06
1.01622e-06
1.03182e-06
1.04684e-06
1.06126e-06
1.07506e-06
1.08823e-06
1.10073e-06
1.11256e-06
1.12369e-06
1.13411e-06
1.14381e-06
1.15275e-06
1.16093e-06
1.16833e-06
1.17494e-06
1.18073e-06
1.1857e-06
1.18982e-06
1.19309e-06
1.1955e-06
1.19703e-06
1.19766e-06
1.1974e-06
1.19623e-06
1.19413e-06
1.19111e-06
1.18715e-06
1.18225e-06
1.17641e-06
1.16962e-06
1.16187e-06
1.15318e-06
1.14353e-06
1.13294e-06
1.1214e-06
1.10891e-06
1.0955e-06
1.08115e-06
1.0659e-06
1.04973e-06
1.03268e-06
1.01475e-06
9.95958e-07
9.76329e-07
9.55882e-07
9.34639e-07
9.12625e-07
8.89867e-07
8.66393e-07
8.42235e-07
8.17425e-07
7.91997e-07
7.65988e-07
7.39437e-07
7.12385e-07
6.84873e-07
6.56946e-07
6.28652e-07
6.00037e-07
5.71152e-07
5.4205e-07
5.12786e-07
4.83415e-07
4.53997e-07
4.24593e-07
3.95267e-07
3.66085e-07
3.37118e-07
3.08438e-07
2.80124e-07
2.52256e-07
2.24923e-07
1.9822e-07
1.7225e-07
1.47127e-07
1.2298e-07
9.99589e-08
7.82395e-08
5.80411e-08
3.96507e-08
2.34768e-08
1.01823e-08
1.13184e-09
8.94045e-10
8.04391e-09
1.85521e-08
3.13488e-08
4.59207e-08
6.19566e-08
7.9243e-08
9.76208e-08
1.16965e-07
1.37173e-07
1.5816e-07
1.7985e-07
2.0218e-07
2.2509e-07
2.48529e-07
2.72446e-07
2.96799e-07
3.21543e-07
3.46641e-07
3.72053e-07
3.97744e-07
4.23679e-07
4.49824e-07
4.76146e-07
5.02614e-07
5.29195e-07
5.55859e-07
5.82575e-07
6.09314e-07
6.36045e-07
6.6274e-07
6.8937e-07
7.15905e-07
7.42317e-07
7.68578e-07
7.94659e-07
8.20534e-07
8.46173e-07
8.7155e-07
8.96636e-07
9.21406e-07
9.45832e-07
9.69888e-07
9.93546e-07
1.01678e-06
1.03957e-06
1.06188e-06
1.08369e-06
1.10497e-06
1.12571e-06
1.14587e-06
1.16542e-06
1.18436e-06
1.20264e-06
1.22026e-06
1.23718e-06
1.25338e-06
1.26884e-06
1.28353e-06
1.29744e-06
1.31055e-06
1.32283e-06
1.33425e-06
1.34481e-06
1.35448e-06
1.36324e-06
1.37108e-06
1.37797e-06
1.38389e-06
1.38884e-06
1.39279e-06
1.39573e-06
1.39764e-06
1.39851e-06
1.39833e-06
1.3971e-06
1.39477e-06
1.39137e-06
1.38687e-06
1.38126e-06
1.37455e-06
1.36673e-06
1.3578e-06
1.34774e-06
1.33657e-06
1.32429e-06
1.3109e-06
1.2964e-06
1.2808e-06
1.26412e-06
1.24635e-06
1.22753e-06
1.20765e-06
1.18674e-06
1.16483e-06
1.14192e-06
1.11805e-06
1.09324e-06
1.06753e-06
1.04094e-06
1.0135e-06
9.85257e-07
9.56245e-07
9.26506e-07
8.96081e-07
8.65016e-07
8.3336e-07
8.01163e-07
7.68477e-07
7.35356e-07
7.01858e-07
6.68042e-07
6.3397e-07
5.99707e-07
5.6532e-07
5.30878e-07
4.96453e-07
4.62121e-07
4.2796e-07
3.94054e-07
3.60488e-07
3.27353e-07
2.94747e-07
2.62773e-07
2.31542e-07
2.01174e-07
1.71805e-07
1.43585e-07
1.16688e-07
9.13193e-08
6.77342e-08
4.62664e-08
2.73908e-08
1.18789e-08
1.32037e-09
1.01842e-09
9.16325e-09
2.11349e-08
3.57162e-08
5.23233e-08
7.0603e-08
9.03127e-08
1.11272e-07
1.33338e-07
1.56396e-07
1.80347e-07
2.05107e-07
2.30601e-07
2.56764e-07
2.83535e-07
3.10859e-07
3.38684e-07
3.66962e-07
3.95648e-07
4.24698e-07
4.54071e-07
4.83728e-07
5.1363e-07
5.43738e-07
5.74017e-07
6.04431e-07
6.34944e-07
6.65522e-07
6.96131e-07
7.26736e-07
7.57304e-07
7.87802e-07
8.18198e-07
8.48458e-07
8.7855e-07
9.08443e-07
9.38103e-07
9.67501e-07
9.96604e-07
1.02538e-06
1.0538e-06
1.08183e-06
1.10945e-06
1.13661e-06
1.1633e-06
1.18948e-06
1.21512e-06
1.24019e-06
1.26467e-06
1.28852e-06
1.31172e-06
1.33423e-06
1.35604e-06
1.37711e-06
1.39742e-06
1.41693e-06
1.43563e-06
1.45349e-06
1.47047e-06
1.48656e-06
1.50173e-06
1.51595e-06
1.52921e-06
1.54147e-06
1.55272e-06
1.56293e-06
1.57207e-06
1.58014e-06
1.5871e-06
1.59295e-06
1.59764e-06
1.60118e-06
1.60355e-06
1.60471e-06
1.60467e-06
1.60342e-06
1.60092e-06
1.59717e-06
1.59216e-06
1.58588e-06
1.57833e-06
1.5695e-06
1.55938e-06
1.54798e-06
1.53529e-06
1.52131e-06
1.50605e-06
1.48951e-06
1.47171e-06
1.45264e-06
1.43233e-06
1.41079e-06
1.38804e-06
1.3641e-06
1.33898e-06
1.31272e-06
1.28534e-06
1.25688e-06
1.22736e-06
1.19683e-06
1.16532e-06
1.13287e-06
1.09954e-06
1.06535e-06
1.03038e-06
9.94659e-07
9.58255e-07
9.21223e-07
8.83623e-07
8.4552e-07
8.0698e-07
7.68072e-07
7.28867e-07
6.89441e-07
6.49871e-07
6.10239e-07
5.70627e-07
5.31124e-07
4.9182e-07
4.52812e-07
4.142e-07
3.76089e-07
3.38591e-07
3.01825e-07
2.6592e-07
2.31015e-07
1.97265e-07
1.64842e-07
1.33946e-07
1.04813e-07
7.77341e-08
5.30916e-08
3.14289e-08
1.36294e-08
1.51489e-09
1.14364e-09
1.02901e-08
2.3735e-08
4.01126e-08
5.87683e-08
7.93064e-08
1.01455e-07
1.25012e-07
1.49819e-07
1.75745e-07
2.02681e-07
2.30532e-07
2.59214e-07
2.88654e-07
3.18783e-07
3.4954e-07
3.80866e-07
4.12707e-07
4.45013e-07
4.77734e-07
5.10825e-07
5.4424e-07
5.77935e-07
6.1187e-07
6.46002e-07
6.80292e-07
7.14699e-07
7.49185e-07
7.83712e-07
8.1824e-07
8.52734e-07
8.87154e-07
9.21466e-07
9.55631e-07
9.89614e-07
1.02338e-06
1.05689e-06
1.09011e-06
1.123e-06
1.15554e-06
1.18768e-06
1.21939e-06
1.25063e-06
1.28138e-06
1.31159e-06
1.34124e-06
1.37029e-06
1.39871e-06
1.42646e-06
1.45351e-06
1.47983e-06
1.5054e-06
1.53016e-06
1.55411e-06
1.5772e-06
1.5994e-06
1.62068e-06
1.64102e-06
1.66038e-06
1.67874e-06
1.69606e-06
1.71232e-06
1.7275e-06
1.74155e-06
1.75446e-06
1.7662e-06
1.77675e-06
1.78607e-06
1.79415e-06
1.80097e-06
1.80649e-06
1.8107e-06
1.81359e-06
1.81512e-06
1.81528e-06
1.81407e-06
1.81144e-06
1.8074e-06
1.80193e-06
1.79503e-06
1.78667e-06
1.77686e-06
1.76559e-06
1.75286e-06
1.73866e-06
1.723e-06
1.70587e-06
1.6873e-06
1.66727e-06
1.64582e-06
1.62294e-06
1.59866e-06
1.57299e-06
1.54596e-06
1.5176e-06
1.48792e-06
1.45697e-06
1.42478e-06
1.39139e-06
1.35683e-06
1.32116e-06
1.28441e-06
1.24665e-06
1.20792e-06
1.16828e-06
1.12779e-06
1.08652e-06
1.04452e-06
1.00188e-06
9.58666e-07
9.14949e-07
8.70811e-07
8.26334e-07
7.81604e-07
7.36709e-07
6.91744e-07
6.46803e-07
6.01986e-07
5.57399e-07
5.1315e-07
4.69354e-07
4.26131e-07
3.83608e-07
3.41921e-07
3.01216e-07
2.61652e-07
2.23403e-07
1.86665e-07
1.51664e-07
1.18666e-07
8.80009e-08
6.00992e-08
3.5575e-08
1.54266e-08
1.71461e-09
1.26893e-09
1.14176e-08
2.63366e-08
4.45114e-08
6.52166e-08
8.8014e-08
1.12603e-07
1.38759e-07
1.66307e-07
1.95103e-07
2.25025e-07
2.55969e-07
2.87843e-07
3.20563e-07
3.54054e-07
3.88249e-07
4.23081e-07
4.58493e-07
4.94427e-07
5.30828e-07
5.67647e-07
6.04832e-07
6.42335e-07
6.80111e-07
7.18113e-07
7.56297e-07
7.94618e-07
8.33034e-07
8.71502e-07
9.0998e-07
9.48425e-07
9.86798e-07
1.02506e-06
1.06316e-06
1.10107e-06
1.13874e-06
1.17614e-06
1.21323e-06
1.24996e-06
1.2863e-06
1.32221e-06
1.35765e-06
1.39258e-06
1.42696e-06
1.46076e-06
1.49394e-06
1.52646e-06
1.55829e-06
1.58938e-06
1.6197e-06
1.64922e-06
1.6779e-06
1.70571e-06
1.7326e-06
1.75855e-06
1.78352e-06
1.80747e-06
1.83038e-06
1.8522e-06
1.87291e-06
1.89247e-06
1.91086e-06
1.92803e-06
1.94396e-06
1.95862e-06
1.97198e-06
1.98401e-06
1.99468e-06
2.00397e-06
2.01184e-06
2.01827e-06
2.02323e-06
2.02671e-06
2.02868e-06
2.02912e-06
2.02801e-06
2.02534e-06
2.02107e-06
2.0152e-06
2.00772e-06
1.99861e-06
1.98787e-06
1.97548e-06
1.96145e-06
1.94578e-06
1.92845e-06
1.90949e-06
1.88888e-06
1.86665e-06
1.8428e-06
1.81734e-06
1.79031e-06
1.76171e-06
1.73157e-06
1.69993e-06
1.6668e-06
1.63224e-06
1.59627e-06
1.55894e-06
1.5203e-06
1.48039e-06
1.43927e-06
1.397e-06
1.35364e-06
1.30924e-06
1.26389e-06
1.21765e-06
1.17059e-06
1.1228e-06
1.07436e-06
1.02535e-06
9.7587e-07
9.26003e-07
8.7585e-07
8.25511e-07
7.75091e-07
7.247e-07
6.74449e-07
6.24458e-07
5.74848e-07
5.2575e-07
4.77298e-07
4.29636e-07
3.82917e-07
3.37304e-07
2.92976e-07
2.50128e-07
2.08978e-07
1.6978e-07
1.32831e-07
9.84985e-08
6.72644e-08
3.98144e-08
1.72644e-08
1.91884e-09
1.3936e-09
1.25395e-08
2.89253e-08
4.88882e-08
7.16326e-08
9.66777e-08
1.23694e-07
1.52436e-07
1.82711e-07
2.14362e-07
2.47256e-07
2.81278e-07
3.16326e-07
3.52311e-07
3.8915e-07
4.26767e-07
4.65092e-07
5.0406e-07
5.43608e-07
5.83678e-07
6.24213e-07
6.65158e-07
7.0646e-07
7.48069e-07
7.89935e-07
8.32008e-07
8.7424e-07
9.16585e-07
9.58995e-07
1.00142e-06
1.04383e-06
1.08616e-06
1.12837e-06
1.17043e-06
1.21228e-06
1.25388e-06
1.29519e-06
1.33616e-06
1.37675e-06
1.41693e-06
1.45663e-06
1.49583e-06
1.53449e-06
1.57255e-06
1.60997e-06
1.64673e-06
1.68277e-06
1.71805e-06
1.75254e-06
1.7862e-06
1.81897e-06
1.85083e-06
1.88174e-06
1.91165e-06
1.94052e-06
1.96833e-06
1.99503e-06
2.02058e-06
2.04494e-06
2.06808e-06
2.08997e-06
2.11056e-06
2.12982e-06
2.14772e-06
2.16421e-06
2.17928e-06
2.19288e-06
2.20498e-06
2.21555e-06
2.22456e-06
2.23198e-06
2.23779e-06
2.24195e-06
2.24444e-06
2.24523e-06
2.24431e-06
2.24166e-06
2.23723e-06
2.23103e-06
2.22304e-06
2.21324e-06
2.20162e-06
2.18818e-06
2.1729e-06
2.15579e-06
2.13685e-06
2.11607e-06
2.09347e-06
2.06904e-06
2.04282e-06
2.0148e-06
1.98501e-06
1.95348e-06
1.92023e-06
1.88529e-06
1.8487e-06
1.81049e-06
1.77071e-06
1.72941e-06
1.68664e-06
1.64245e-06
1.5969e-06
1.55006e-06
1.502e-06
1.45278e-06
1.40249e-06
1.3512e-06
1.299e-06
1.24597e-06
1.19221e-06
1.13782e-06
1.0829e-06
1.02754e-06
9.71865e-07
9.15981e-07
8.60005e-07
8.04061e-07
7.48274e-07
6.92776e-07
6.37705e-07
5.83205e-07
5.29426e-07
4.76529e-07
4.24683e-07
3.7407e-07
3.24888e-07
2.77354e-07
2.3171e-07
1.88236e-07
1.47262e-07
1.09194e-07
7.45645e-08
4.41337e-08
1.91368e-08
2.12693e-09
1.51703e-09
1.36503e-08
3.1488e-08
5.32211e-08
7.79839e-08
1.05254e-07
1.34673e-07
1.65974e-07
1.98949e-07
2.33426e-07
2.6926e-07
3.06329e-07
3.4452e-07
3.83737e-07
4.2389e-07
4.64897e-07
5.06681e-07
5.49173e-07
5.92303e-07
6.36009e-07
6.80229e-07
7.24903e-07
7.69975e-07
8.15389e-07
8.61091e-07
9.07028e-07
9.53147e-07
9.99398e-07
1.04573e-06
1.09209e-06
1.13844e-06
1.18471e-06
1.23087e-06
1.27687e-06
1.32266e-06
1.36818e-06
1.4134e-06
1.45826e-06
1.50272e-06
1.54673e-06
1.59025e-06
1.63323e-06
1.67562e-06
1.71738e-06
1.75847e-06
1.79883e-06
1.83842e-06
1.8772e-06
1.91513e-06
1.95215e-06
1.98823e-06
2.02332e-06
2.05738e-06
2.09037e-06
2.12224e-06
2.15294e-06
2.18245e-06
2.21071e-06
2.23769e-06
2.26334e-06
2.28763e-06
2.31051e-06
2.33194e-06
2.35188e-06
2.3703e-06
2.38716e-06
2.40242e-06
2.41604e-06
2.42799e-06
2.43823e-06
2.44674e-06
2.45347e-06
2.4584e-06
2.46149e-06
2.46273e-06
2.46208e-06
2.45953e-06
2.45503e-06
2.44857e-06
2.44014e-06
2.42972e-06
2.4173e-06
2.40286e-06
2.3864e-06
2.36792e-06
2.34741e-06
2.32487e-06
2.3003e-06
2.27373e-06
2.24516e-06
2.21461e-06
2.18209e-06
2.14764e-06
2.11128e-06
2.07305e-06
2.03299e-06
1.99113e-06
1.94753e-06
1.90223e-06
1.8553e-06
1.8068e-06
1.75679e-06
1.70534e-06
1.65252e-06
1.59843e-06
1.54314e-06
1.48674e-06
1.42933e-06
1.371e-06
1.31185e-06
1.252e-06
1.19156e-06
1.13064e-06
1.06936e-06
1.00784e-06
9.4623e-07
8.84648e-07
8.23241e-07
7.62152e-07
7.01535e-07
6.41549e-07
5.82361e-07
5.24148e-07
4.67095e-07
4.11405e-07
3.57295e-07
3.05002e-07
2.54795e-07
2.06979e-07
1.61917e-07
1.20055e-07
8.19783e-08
4.85203e-08
2.10385e-08
2.33825e-09
1.63866e-09
1.47447e-08
3.40132e-08
5.74904e-08
8.42418e-08
1.13704e-07
1.45489e-07
1.79312e-07
2.14945e-07
2.52205e-07
2.90937e-07
3.31006e-07
3.72294e-07
4.14695e-07
4.58113e-07
5.02461e-07
5.47655e-07
5.9362e-07
6.40283e-07
6.87574e-07
7.35429e-07
7.83784e-07
8.32577e-07
8.81749e-07
9.31241e-07
9.80997e-07
1.03096e-06
1.08108e-06
1.13129e-06
1.18155e-06
1.2318e-06
1.28199e-06
1.33206e-06
1.38197e-06
1.43167e-06
1.48109e-06
1.5302e-06
1.57894e-06
1.62725e-06
1.6751e-06
1.72242e-06
1.76918e-06
1.81532e-06
1.86078e-06
1.90553e-06
1.94951e-06
1.99268e-06
2.03498e-06
2.07637e-06
2.1168e-06
2.15622e-06
2.19458e-06
2.23184e-06
2.26795e-06
2.30287e-06
2.33654e-06
2.36891e-06
2.39996e-06
2.42961e-06
2.45785e-06
2.4846e-06
2.50985e-06
2.53353e-06
2.5556e-06
2.57603e-06
2.59477e-06
2.61177e-06
2.62701e-06
2.64043e-06
2.652e-06
2.66167e-06
2.66943e-06
2.67522e-06
2.67901e-06
2.68078e-06
2.6805e-06
2.67814e-06
2.67366e-06
2.66703e-06
2.65825e-06
2.64729e-06
2.63414e-06
2.61879e-06
2.60122e-06
2.58142e-06
2.5594e-06
2.53516e-06
2.5087e-06
2.48002e-06
2.44915e-06
2.4161e-06
2.38089e-06
2.34355e-06
2.30411e-06
2.26261e-06
2.21908e-06
2.17358e-06
2.12616e-06
2.07687e-06
2.02577e-06
1.97294e-06
1.91844e-06
1.86235e-06
1.80476e-06
1.74576e-06
1.68543e-06
1.62388e-06
1.56121e-06
1.49752e-06
1.43294e-06
1.36757e-06
1.30155e-06
1.235e-06
1.16805e-06
1.10084e-06
1.03352e-06
9.66237e-07
8.9914e-07
8.32393e-07
7.66162e-07
7.00623e-07
6.35959e-07
5.72362e-07
5.10039e-07
4.49209e-07
3.90108e-07
3.32997e-07
2.78169e-07
2.25957e-07
1.76756e-07
1.31053e-07
8.94855e-08
5.29623e-08
2.29641e-08
2.55225e-09
1.75798e-09
1.58184e-08
3.64905e-08
6.16785e-08
9.03805e-08
1.21992e-07
1.56099e-07
1.92393e-07
2.30634e-07
2.70624e-07
3.12197e-07
3.55208e-07
3.99532e-07
4.45056e-07
4.91677e-07
5.39301e-07
5.87841e-07
6.37214e-07
6.87343e-07
7.38155e-07
7.8958e-07
8.4155e-07
8.93999e-07
9.46864e-07
1.00008e-06
1.0536e-06
1.10734e-06
1.16126e-06
1.2153e-06
1.2694e-06
1.3235e-06
1.37755e-06
1.4315e-06
1.48528e-06
1.53884e-06
1.59212e-06
1.64508e-06
1.69766e-06
1.74981e-06
1.80146e-06
1.85258e-06
1.90309e-06
1.95296e-06
2.00213e-06
2.05054e-06
2.09814e-06
2.14489e-06
2.19072e-06
2.23559e-06
2.27944e-06
2.32223e-06
2.3639e-06
2.40439e-06
2.44367e-06
2.48167e-06
2.51834e-06
2.55365e-06
2.58752e-06
2.61993e-06
2.6508e-06
2.68011e-06
2.70779e-06
2.7338e-06
2.75808e-06
2.7806e-06
2.8013e-06
2.82015e-06
2.83708e-06
2.85206e-06
2.86505e-06
2.876e-06
2.88487e-06
2.89162e-06
2.89622e-06
2.89862e-06
2.89879e-06
2.89673e-06
2.89235e-06
2.88566e-06
2.87662e-06
2.86521e-06
2.85142e-06
2.83523e-06
2.81663e-06
2.79561e-06
2.77216e-06
2.74628e-06
2.71799e-06
2.68727e-06
2.65416e-06
2.61867e-06
2.58081e-06
2.54063e-06
2.49814e-06
2.4534e-06
2.40644e-06
2.35732e-06
2.30609e-06
2.25281e-06
2.19755e-06
2.14039e-06
2.0814e-06
2.02067e-06
1.95829e-06
1.89436e-06
1.82897e-06
1.76224e-06
1.69427e-06
1.6252e-06
1.55513e-06
1.48421e-06
1.41257e-06
1.34034e-06
1.26768e-06
1.19473e-06
1.12165e-06
1.04861e-06
9.75774e-07
9.03315e-07
8.31418e-07
7.60272e-07
6.90079e-07
6.21049e-07
5.53404e-07
4.87382e-07
4.23243e-07
3.61268e-07
3.01774e-07
2.45123e-07
1.91742e-07
1.4216e-07
9.70668e-08
5.74481e-08
2.49088e-08
2.76837e-09
1.87457e-09
1.68675e-08
3.89109e-08
6.57704e-08
9.63778e-08
1.30089e-07
1.66463e-07
2.05172e-07
2.4596e-07
2.88615e-07
3.32961e-07
3.78846e-07
4.26135e-07
4.74709e-07
5.24458e-07
5.75282e-07
6.27088e-07
6.79791e-07
7.33308e-07
7.8756e-07
8.42475e-07
8.9798e-07
9.54005e-07
1.01048e-06
1.06735e-06
1.12454e-06
1.182e-06
1.23965e-06
1.29744e-06
1.35531e-06
1.41319e-06
1.47104e-06
1.52878e-06
1.58637e-06
1.64374e-06
1.70083e-06
1.7576e-06
1.81397e-06
1.8699e-06
1.92532e-06
1.98018e-06
2.03443e-06
2.088e-06
2.14085e-06
2.19291e-06
2.24412e-06
2.29444e-06
2.3438e-06
2.39216e-06
2.43944e-06
2.48561e-06
2.5306e-06
2.57435e-06
2.61682e-06
2.65795e-06
2.69767e-06
2.73595e-06
2.77271e-06
2.80791e-06
2.8415e-06
2.87341e-06
2.9036e-06
2.93201e-06
2.95858e-06
2.98327e-06
3.00603e-06
3.02679e-06
3.04552e-06
3.06216e-06
3.07666e-06
3.08898e-06
3.09907e-06
3.10688e-06
3.11237e-06
3.11551e-06
3.11624e-06
3.11456e-06
3.11041e-06
3.10374e-06
3.09454e-06
3.08278e-06
3.06845e-06
3.05152e-06
3.03198e-06
3.00982e-06
2.98502e-06
2.9576e-06
2.92754e-06
2.89487e-06
2.85958e-06
2.82171e-06
2.78127e-06
2.7383e-06
2.69282e-06
2.64488e-06
2.59453e-06
2.54182e-06
2.48682e-06
2.42958e-06
2.37018e-06
2.30871e-06
2.24524e-06
2.17987e-06
2.1127e-06
2.04383e-06
1.97338e-06
1.90145e-06
1.82818e-06
1.7537e-06
1.67813e-06
1.60163e-06
1.52434e-06
1.44641e-06
1.368e-06
1.28927e-06
1.2104e-06
1.13157e-06
1.05295e-06
9.74743e-07
8.9714e-07
8.2035e-07
7.4459e-07
6.70087e-07
5.97082e-07
5.25833e-07
4.56618e-07
3.89744e-07
3.2555e-07
2.64428e-07
2.06837e-07
1.53348e-07
1.04704e-07
6.19668e-08
2.68677e-08
2.98606e-09
1.98806e-09
1.78888e-08
4.12669e-08
6.97533e-08
1.02215e-07
1.3797e-07
1.7655e-07
2.17609e-07
2.60873e-07
3.06121e-07
3.53166e-07
4.01845e-07
4.52019e-07
5.03558e-07
5.56349e-07
6.10286e-07
6.65272e-07
7.21214e-07
7.78027e-07
8.35628e-07
8.9394e-07
9.52887e-07
1.0124e-06
1.0724e-06
1.13282e-06
1.1936e-06
1.25467e-06
1.31596e-06
1.37742e-06
1.43897e-06
1.50055e-06
1.56211e-06
1.62358e-06
1.6849e-06
1.746e-06
1.80683e-06
1.86733e-06
1.92744e-06
1.98709e-06
2.04623e-06
2.10479e-06