/*--------------------------------*- C++ -*----------------------------------*\
  =========                 |
  \\      /  F ield         | OpenFOAM: The Open Source CFD Toolbox
   \\    /   O peration     | Website:  https://openfoam.org
    \\  /    A nd           | Version:  12
     \\/     M anipulation  |
\*---------------------------------------------------------------------------*/
FoamFile
{
    format      ascii;
    class       volScalarField;
    location    "10";
    object      epsilon;
}
// * * * * * * * * * * * * * * * * * * * * * * * * * * * * * * * * * * * * * //

dimensions      [0 2 -3 0 0 0 0];

internalField   nonuniform List<scalar> 
18225
(
1.45739e-09
7.28311e-09
1.59389e-08
2.63331e-08
3.79789e-08
5.05891e-08
6.39605e-08
7.79357e-08
9.23861e-08
1.07204e-07
1.22301e-07
1.37598e-07
1.53033e-07
1.68551e-07
1.84108e-07
1.9967e-07
2.15209e-07
2.30708e-07
2.46153e-07
2.61537e-07
2.76861e-07
2.92127e-07
3.07343e-07
3.22521e-07
3.37673e-07
3.52815e-07
3.67962e-07
3.83132e-07
3.98341e-07
4.13605e-07
4.28938e-07
4.44354e-07
4.59864e-07
4.75477e-07
4.91199e-07
5.07033e-07
5.22982e-07
5.39043e-07
5.55211e-07
5.7148e-07
5.87839e-07
6.04276e-07
6.20773e-07
6.37313e-07
6.53875e-07
6.70435e-07
6.86966e-07
7.0344e-07
7.19824e-07
7.36085e-07
7.52187e-07
7.68089e-07
7.83751e-07
7.99128e-07
8.14175e-07
8.28842e-07
8.43079e-07
8.56834e-07
8.70051e-07
8.82675e-07
8.94648e-07
9.0591e-07
9.16403e-07
9.26066e-07
9.34838e-07
9.42659e-07
9.4947e-07
9.55211e-07
9.59832e-07
9.63277e-07
9.6548e-07
9.66402e-07
9.66044e-07
9.64342e-07
9.61259e-07
9.5677e-07
9.50854e-07
9.43502e-07
9.34712e-07
9.24488e-07
9.12847e-07
8.99812e-07
8.85414e-07
8.69696e-07
8.52708e-07
8.34509e-07
8.15166e-07
7.94755e-07
7.73357e-07
7.51063e-07
7.27966e-07
7.04166e-07
6.79766e-07
6.54873e-07
6.29593e-07
6.04035e-07
5.78307e-07
5.52513e-07
5.26759e-07
5.01142e-07
4.75757e-07
4.50694e-07
4.26036e-07
4.01858e-07
3.7823e-07
3.55212e-07
3.32859e-07
3.11214e-07
2.90316e-07
2.70194e-07
2.50868e-07
2.32354e-07
2.14657e-07
1.9778e-07
1.81717e-07
1.66455e-07
1.51979e-07
1.38269e-07
1.253e-07
1.13047e-07
1.01481e-07
9.0571e-08
8.02873e-08
7.05996e-08
6.14795e-08
5.29012e-08
4.4843e-08
3.72887e-08
3.02306e-08
2.36716e-08
1.76312e-08
1.21537e-08
7.32779e-09
3.34116e-09
6.68234e-10
7.28749e-09
5.9483e-09
8.94299e-09
1.33944e-08
1.86526e-08
2.44596e-08
3.06744e-08
3.72031e-08
4.39755e-08
5.09357e-08
5.8038e-08
6.52445e-08
7.25234e-08
7.98482e-08
8.71977e-08
9.45548e-08
1.01906e-07
1.09243e-07
1.16558e-07
1.23849e-07
1.31114e-07
1.38356e-07
1.45577e-07
1.52782e-07
1.59977e-07
1.6717e-07
1.74368e-07
1.81578e-07
1.88808e-07
1.96066e-07
2.03358e-07
2.10691e-07
2.18068e-07
2.25496e-07
2.32976e-07
2.40509e-07
2.48098e-07
2.55739e-07
2.63432e-07
2.71173e-07
2.78955e-07
2.86774e-07
2.94621e-07
3.02488e-07
3.10363e-07
3.18236e-07
3.26093e-07
3.33921e-07
3.41704e-07
3.49426e-07
3.57069e-07
3.64614e-07
3.72042e-07
3.7933e-07
3.86457e-07
3.93399e-07
4.00133e-07
4.06633e-07
4.12872e-07
4.18825e-07
4.24464e-07
4.2976e-07
4.34687e-07
4.39214e-07
4.43315e-07
4.4696e-07
4.50122e-07
4.52775e-07
4.54894e-07
4.56454e-07
4.57423e-07
4.57787e-07
4.57543e-07
4.56662e-07
4.55128e-07
4.52931e-07
4.50061e-07
4.46515e-07
4.42293e-07
4.37397e-07
4.31836e-07
4.25622e-07
4.1877e-07
4.113e-07
4.03236e-07
3.94607e-07
3.85445e-07
3.75784e-07
3.65664e-07
3.55125e-07
3.44214e-07
3.32975e-07
3.21458e-07
3.09711e-07
2.97785e-07
2.85729e-07
2.73595e-07
2.61431e-07
2.49285e-07
2.37203e-07
2.2523e-07
2.13407e-07
2.01773e-07
1.90364e-07
1.79211e-07
1.68344e-07
1.57787e-07
1.47562e-07
1.37686e-07
1.28174e-07
1.19035e-07
1.10277e-07
1.01903e-07
9.39141e-08
8.63078e-08
7.90788e-08
7.222e-08
6.57222e-08
5.95746e-08
5.3765e-08
4.82803e-08
4.31068e-08
3.82306e-08
3.36382e-08
2.93169e-08
2.52553e-08
2.14445e-08
1.78788e-08
1.45573e-08
1.14865e-08
8.68495e-09
6.19505e-09
4.11539e-09
2.72791e-09
3.33975e-09
1.59879e-08
8.97563e-09
9.185e-09
1.13724e-08
1.45012e-08
1.81963e-08
2.22774e-08
2.66393e-08
3.12129e-08
3.59475e-08
4.08045e-08
4.57532e-08
5.07684e-08
5.58297e-08
6.09209e-08
6.60287e-08
7.11432e-08
7.62568e-08
8.13645e-08
8.64633e-08
9.15521e-08
9.66313e-08
1.01703e-07
1.0677e-07
1.11835e-07
1.16905e-07
1.21982e-07
1.27073e-07
1.32182e-07
1.37315e-07
1.42475e-07
1.47666e-07
1.52892e-07
1.58156e-07
1.63458e-07
1.68801e-07
1.74183e-07
1.79604e-07
1.85062e-07
1.90553e-07
1.96075e-07
2.01621e-07
2.07185e-07
2.12762e-07
2.18343e-07
2.2392e-07
2.29482e-07
2.35019e-07
2.40521e-07
2.45974e-07
2.51366e-07
2.56682e-07
2.61909e-07
2.6703e-07
2.72029e-07
2.7689e-07
2.81596e-07
2.86127e-07
2.90466e-07
2.94594e-07
2.98491e-07
3.02138e-07
3.05516e-07
3.08604e-07
3.11383e-07
3.13835e-07
3.15941e-07
3.17682e-07
3.19042e-07
3.20005e-07
3.20547e-07
3.2067e-07
3.20362e-07
3.19607e-07
3.18398e-07
3.16726e-07
3.14589e-07
3.11985e-07
3.08914e-07
3.0538e-07
3.01391e-07
2.96955e-07
2.92085e-07
2.86795e-07
2.81102e-07
2.75027e-07
2.68591e-07
2.6182e-07
2.5474e-07
2.4738e-07
2.3977e-07
2.31942e-07
2.23928e-07
2.15762e-07
2.07478e-07
1.99109e-07
1.9069e-07
1.82253e-07
1.7383e-07
1.65454e-07
1.57152e-07
1.48955e-07
1.40886e-07
1.32972e-07
1.25233e-07
1.17689e-07
1.10357e-07
1.03253e-07
9.63868e-08
8.97698e-08
8.34088e-08
7.7309e-08
7.14732e-08
6.59022e-08
6.0595e-08
5.55484e-08
5.0758e-08
4.62179e-08
4.19212e-08
3.78603e-08
3.40268e-08
3.0412e-08
2.70072e-08
2.38043e-08
2.07959e-08
1.79762e-08
1.53418e-08
1.28925e-08
1.06341e-08
8.58154e-09
6.76705e-09
5.25904e-09
4.21663e-09
4.1041e-09
7.31206e-09
2.65294e-08
1.35156e-08
1.14525e-08
1.2079e-08
1.38989e-08
1.63991e-08
1.93415e-08
2.25947e-08
2.6077e-08
2.97324e-08
3.35203e-08
3.74096e-08
4.13761e-08
4.54003e-08
4.94669e-08
5.35635e-08
5.76806e-08
6.18111e-08
6.59498e-08
7.00934e-08
7.42401e-08
7.83897e-08
8.25429e-08
8.67016e-08
9.08681e-08
9.50456e-08
9.92374e-08
1.03447e-07
1.07678e-07
1.11935e-07
1.16219e-07
1.20534e-07
1.24882e-07
1.29265e-07
1.33684e-07
1.38138e-07
1.42628e-07
1.47151e-07
1.51705e-07
1.56288e-07
1.60896e-07
1.65523e-07
1.70164e-07
1.74813e-07
1.79463e-07
1.84105e-07
1.88731e-07
1.93332e-07
1.97896e-07
2.02414e-07
2.06874e-07
2.11263e-07
2.1557e-07
2.1978e-07
2.23879e-07
2.27854e-07
2.3169e-07
2.35371e-07
2.38883e-07
2.42209e-07
2.45334e-07
2.48242e-07
2.50918e-07
2.53346e-07
2.5551e-07
2.57397e-07
2.58991e-07
2.60279e-07
2.61248e-07
2.61884e-07
2.62169e-07
2.62118e-07
2.61708e-07
2.60933e-07
2.59789e-07
2.58269e-07
2.56375e-07
2.54104e-07
2.51461e-07
2.48448e-07
2.45074e-07
2.41346e-07
2.37275e-07
2.32874e-07
2.28158e-07
2.23143e-07
2.17847e-07
2.12292e-07
2.06498e-07
2.00488e-07
1.94287e-07
1.8792e-07
1.81412e-07
1.74789e-07
1.68079e-07
1.61308e-07
1.54501e-07
1.47685e-07
1.40885e-07
1.34126e-07
1.27429e-07
1.20817e-07
1.1431e-07
1.07928e-07
1.01686e-07
9.56001e-08
8.9684e-08
8.3949e-08
7.84046e-08
7.30587e-08
6.79173e-08
6.29844e-08
5.82625e-08
5.37527e-08
4.94542e-08
4.53652e-08
4.14826e-08
3.78022e-08
3.43192e-08
3.10282e-08
2.79233e-08
2.49986e-08
2.22485e-08
1.96679e-08
1.72531e-08
1.5002e-08
1.29157e-08
1.09994e-08
9.26603e-09
7.74082e-09
6.47257e-09
5.55972e-09
5.22795e-09
6.15189e-09
1.20889e-08
3.85067e-08
1.89543e-08
1.47326e-08
1.40421e-08
1.48466e-08
1.64789e-08
1.86387e-08
2.11641e-08
2.39568e-08
2.69517e-08
3.01028e-08
3.33763e-08
3.6746e-08
4.01915e-08
4.36967e-08
4.72487e-08
5.08376e-08
5.44557e-08
5.80971e-08
6.1758e-08
6.54359e-08
6.91295e-08
7.28387e-08
7.65644e-08
8.0308e-08
8.40716e-08
8.78574e-08
9.16681e-08
9.55062e-08
9.93741e-08
1.03274e-07
1.07208e-07
1.11177e-07
1.15182e-07
1.19224e-07
1.23301e-07
1.27412e-07
1.31556e-07
1.3573e-07
1.3993e-07
1.44151e-07
1.4839e-07
1.52639e-07
1.56893e-07
1.61143e-07
1.65382e-07
1.69602e-07
1.73792e-07
1.77943e-07
1.82044e-07
1.86084e-07
1.90052e-07
1.93935e-07
1.97721e-07
2.01397e-07
2.0495e-07
2.08366e-07
2.11632e-07
2.14734e-07
2.17659e-07
2.20391e-07
2.22918e-07
2.25227e-07
2.27303e-07
2.29135e-07
2.30709e-07
2.32015e-07
2.3304e-07
2.33774e-07
2.34197e-07
2.34317e-07
2.3413e-07
2.33622e-07
2.32788e-07
2.31625e-07
2.3013e-07
2.28304e-07
2.26148e-07
2.23664e-07
2.20859e-07
2.17738e-07
2.1431e-07
2.10585e-07
2.06575e-07
2.02294e-07
1.97757e-07
1.92981e-07
1.87983e-07
1.82782e-07
1.774e-07
1.71858e-07
1.66177e-07
1.6038e-07
1.5449e-07
1.4853e-07
1.42523e-07
1.36491e-07
1.30458e-07
1.24444e-07
1.18471e-07
1.12557e-07
1.06722e-07
1.00984e-07
9.53564e-08
8.98555e-08
8.44938e-08
7.92827e-08
7.42317e-08
6.93492e-08
6.46416e-08
6.0114e-08
5.577e-08
5.16116e-08
4.76398e-08
4.38541e-08
4.02532e-08
3.68346e-08
3.35953e-08
3.05317e-08
2.76395e-08
2.49147e-08
2.23531e-08
1.99513e-08
1.77066e-08
1.56181e-08
1.3687e-08
1.19184e-08
1.03229e-08
8.92056e-09
7.74689e-09
6.8671e-09
6.41101e-09
6.67473e-09
8.57503e-09
1.74516e-08
5.1727e-08
2.50762e-08
1.86769e-08
1.67681e-08
1.66958e-08
1.76184e-08
1.91681e-08
2.11504e-08
2.34491e-08
2.59884e-08
2.87158e-08
3.15931e-08
3.45913e-08
3.76879e-08
4.08651e-08
4.41091e-08
4.74085e-08
5.07548e-08
5.41414e-08
5.75632e-08
6.10169e-08
6.45004e-08
6.80127e-08
7.15535e-08
7.51236e-08
7.8724e-08
8.23561e-08
8.60216e-08
8.97222e-08
9.34595e-08
9.72348e-08
1.01049e-07
1.04903e-07
1.08796e-07
1.12729e-07
1.16698e-07
1.20704e-07
1.24742e-07
1.2881e-07
1.32903e-07
1.37016e-07
1.41144e-07
1.45279e-07
1.49415e-07
1.53544e-07
1.57657e-07
1.61745e-07
1.65798e-07
1.69807e-07
1.7376e-07
1.77646e-07
1.81454e-07
1.85171e-07
1.88786e-07
1.92287e-07
1.95659e-07
1.98891e-07
2.01971e-07
2.04884e-07
2.07619e-07
2.10162e-07
2.12502e-07
2.14626e-07
2.16522e-07
2.18179e-07
2.19587e-07
2.20735e-07
2.21613e-07
2.22213e-07
2.22508e-07
2.22528e-07
2.2225e-07
2.21667e-07
2.20776e-07
2.19574e-07
2.18059e-07
2.16232e-07
2.14094e-07
2.11649e-07
2.08903e-07
2.05861e-07
2.02531e-07
1.98925e-07
1.95052e-07
1.90927e-07
1.86564e-07
1.81978e-07
1.77188e-07
1.72212e-07
1.67068e-07
1.61778e-07
1.56363e-07
1.50843e-07
1.45242e-07
1.3958e-07
1.3388e-07
1.28163e-07
1.22451e-07
1.16763e-07
1.11119e-07
1.05538e-07
1.00036e-07
9.46303e-08
8.93348e-08
8.41629e-08
7.91263e-08
7.42353e-08
6.94985e-08
6.49231e-08
6.05149e-08
5.62783e-08
5.22162e-08
4.83304e-08
4.46214e-08
4.10889e-08
3.77314e-08
3.4547e-08
3.15328e-08
2.86859e-08
2.60031e-08
2.34811e-08
2.11173e-08
1.89097e-08
1.68576e-08
1.49625e-08
1.32286e-08
1.16647e-08
1.02865e-08
9.12019e-09
8.21217e-09
7.64466e-09
7.57792e-09
8.38576e-09
1.12572e-08
2.32731e-08
6.60902e-08
3.17875e-08
2.31345e-08
2.00399e-08
1.91624e-08
1.94648e-08
2.05043e-08
2.20512e-08
2.39704e-08
2.61749e-08
2.86048e-08
3.12167e-08
3.39783e-08
3.68644e-08
3.98552e-08
4.2935e-08
4.60913e-08
4.93139e-08
5.25952e-08
5.5929e-08
5.93109e-08
6.27379e-08
6.62079e-08
6.97197e-08
7.32732e-08
7.68685e-08
8.05062e-08
8.4187e-08
8.79118e-08
9.16813e-08
9.5496e-08
9.93561e-08
1.03261e-07
1.0721e-07
1.11202e-07
1.15235e-07
1.19305e-07
1.23408e-07
1.27542e-07
1.317e-07
1.35876e-07
1.40064e-07
1.44256e-07
1.48446e-07
1.52623e-07
1.56778e-07
1.60903e-07
1.64986e-07
1.69017e-07
1.72986e-07
1.76879e-07
1.80686e-07
1.84396e-07
1.87995e-07
1.91471e-07
1.94813e-07
1.98008e-07
2.01045e-07
2.03909e-07
2.06591e-07
2.09077e-07
2.11357e-07
2.13418e-07
2.15251e-07
2.16844e-07
2.18188e-07
2.19273e-07
2.20092e-07
2.20631e-07
2.20867e-07
2.20838e-07
2.20512e-07
2.19884e-07
2.18952e-07
2.17713e-07
2.16164e-07
2.14306e-07
2.12141e-07
2.09672e-07
2.06903e-07
2.0384e-07
2.00493e-07
1.96869e-07
1.92981e-07
1.88842e-07
1.84465e-07
1.79868e-07
1.75066e-07
1.7008e-07
1.64928e-07
1.59631e-07
1.54211e-07
1.48691e-07
1.43091e-07
1.37435e-07
1.31744e-07
1.26042e-07
1.20348e-07
1.14685e-07
1.09072e-07
1.03526e-07
9.80662e-08
9.27079e-08
8.74655e-08
8.23522e-08
7.73793e-08
7.25566e-08
6.78923e-08
6.33932e-08
5.90644e-08
5.49098e-08
5.09319e-08
4.71319e-08
4.35101e-08
4.00657e-08
3.67973e-08
3.37026e-08
3.07788e-08
2.80232e-08
2.54328e-08
2.30051e-08
2.07384e-08
1.86319e-08
1.66864e-08
1.49053e-08
1.32955e-08
1.18689e-08
1.06464e-08
9.66124e-09
8.96882e-09
8.66764e-09
8.95153e-09
1.02795e-08
1.41355e-08
2.94642e-08
8.15471e-08
3.90438e-08
2.80324e-08
2.37487e-08
2.21012e-08
2.18371e-08
2.24301e-08
2.36124e-08
2.52281e-08
2.71782e-08
2.93951e-08
3.18303e-08
3.44474e-08
3.72182e-08
4.01204e-08
4.31361e-08
4.62511e-08
4.94537e-08
5.27347e-08
5.60869e-08
5.95045e-08
6.29833e-08
6.65202e-08
7.01133e-08
7.37611e-08
7.74629e-08
8.12184e-08
8.50275e-08
8.889e-08
9.2806e-08
9.67748e-08
1.00796e-07
1.04868e-07
1.08989e-07
1.13156e-07
1.17367e-07
1.21617e-07
1.25902e-07
1.30217e-07
1.34555e-07
1.38909e-07
1.43272e-07
1.47635e-07
1.51991e-07
1.56328e-07
1.60638e-07
1.6491e-07
1.69133e-07
1.73296e-07
1.77388e-07
1.81397e-07
1.85311e-07
1.89119e-07
1.92808e-07
1.96367e-07
1.99783e-07
2.03046e-07
2.06142e-07
2.09062e-07
2.11792e-07
2.14321e-07
2.1664e-07
2.18736e-07
2.206e-07
2.22221e-07
2.23589e-07
2.24695e-07
2.25529e-07
2.26077e-07
2.26317e-07
2.26289e-07
2.25961e-07
2.25326e-07
2.2438e-07
2.2312e-07
2.21543e-07
2.19648e-07
2.17437e-07
2.14911e-07
2.12074e-07
2.08933e-07
2.05493e-07
2.01766e-07
1.97761e-07
1.93492e-07
1.88973e-07
1.8422e-07
1.79253e-07
1.7409e-07
1.68752e-07
1.63262e-07
1.57641e-07
1.51915e-07
1.46106e-07
1.40239e-07
1.34338e-07
1.28427e-07
1.2253e-07
1.16667e-07
1.10861e-07
1.05131e-07
9.94962e-08
9.39732e-08
8.85774e-08
8.33222e-08
7.82194e-08
7.32791e-08
6.85093e-08
6.39167e-08
5.95062e-08
5.52811e-08
5.12434e-08
4.7394e-08
4.37324e-08
4.02574e-08
3.6967e-08
3.38586e-08
3.09293e-08
2.81759e-08
2.55957e-08
2.31864e-08
2.09468e-08
1.88768e-08
1.69786e-08
1.52573e-08
1.37223e-08
1.23888e-08
1.12812e-08
1.04389e-08
9.92736e-09
9.86228e-09
1.04727e-08
1.23091e-08
1.71689e-08
3.59565e-08
9.80794e-08
4.68256e-08
3.33339e-08
2.78359e-08
2.54314e-08
2.46326e-08
2.4822e-08
2.56894e-08
2.70568e-08
2.88122e-08
3.08795e-08
3.32041e-08
3.57454e-08
3.84719e-08
4.13586e-08
4.43855e-08
4.75363e-08
5.07975e-08
5.41585e-08
5.76104e-08
6.11464e-08
6.47608e-08
6.84497e-08
7.22096e-08
7.60385e-08
7.99344e-08
8.38961e-08
8.79225e-08
9.20126e-08
9.61651e-08
1.00379e-07
1.04652e-07
1.08982e-07
1.13365e-07
1.178e-07
1.2228e-07
1.26801e-07
1.31358e-07
1.35943e-07
1.40549e-07
1.45169e-07
1.49794e-07
1.54413e-07
1.59018e-07
1.63599e-07
1.68144e-07
1.72643e-07
1.77085e-07
1.81458e-07
1.85751e-07
1.89951e-07
1.94048e-07
1.9803e-07
2.01884e-07
2.05601e-07
2.09166e-07
2.12571e-07
2.15803e-07
2.18851e-07
2.21704e-07
2.24351e-07
2.26781e-07
2.28985e-07
2.3095e-07
2.32668e-07
2.34127e-07
2.35318e-07
2.36231e-07
2.36855e-07
2.37155e-07
2.37178e-07
2.36894e-07
2.36292e-07
2.35366e-07
2.3411e-07
2.32521e-07
2.30596e-07
2.28336e-07
2.2574e-07
2.22811e-07
2.19555e-07
2.15978e-07
2.12088e-07
2.07897e-07
2.03417e-07
1.98663e-07
1.93653e-07
1.88406e-07
1.82943e-07
1.77286e-07
1.7146e-07
1.65489e-07
1.594e-07
1.53219e-07
1.46974e-07
1.4069e-07
1.34396e-07
1.28116e-07
1.21876e-07
1.157e-07
1.09609e-07
1.03625e-07
9.77666e-08
9.20501e-08
8.64906e-08
8.1101e-08
7.58919e-08
7.0872e-08
6.60481e-08
6.14249e-08
5.70057e-08
5.27919e-08
4.87839e-08
4.49807e-08
4.13802e-08
3.79796e-08
3.47758e-08
3.17653e-08
2.89447e-08
2.6311e-08
2.38617e-08
2.15958e-08
1.95138e-08
1.76187e-08
1.59167e-08
1.44191e-08
1.31438e-08
1.21196e-08
1.13917e-08
1.10356e-08
1.11844e-08
1.21052e-08
1.44442e-08
2.0327e-08
4.26947e-08
1.1569e-07
5.51279e-08
3.9022e-08
3.22698e-08
2.91063e-08
2.77902e-08
2.76049e-08
2.8194e-08
2.93553e-08
3.09625e-08
3.29304e-08
3.51983e-08
3.77207e-08
4.04625e-08
4.33956e-08
4.64974e-08
4.97493e-08
5.3136e-08
5.66449e-08
6.02656e-08
6.39896e-08
6.78101e-08
7.17216e-08
7.57198e-08
7.98011e-08
8.39627e-08
8.82022e-08
9.25175e-08
9.69064e-08
1.01367e-07
1.05896e-07
1.10491e-07
1.15148e-07
1.19863e-07
1.24632e-07
1.29448e-07
1.34306e-07
1.39199e-07
1.44118e-07
1.49055e-07
1.54001e-07
1.58946e-07
1.63881e-07
1.68794e-07
1.73674e-07
1.78512e-07
1.83294e-07
1.8801e-07
1.92648e-07
1.97197e-07
2.01644e-07
2.0598e-07
2.10192e-07
2.14269e-07
2.182e-07
2.21974e-07
2.25581e-07
2.29009e-07
2.32247e-07
2.35286e-07
2.38114e-07
2.40721e-07
2.43095e-07
2.45227e-07
2.47105e-07
2.48717e-07
2.50055e-07
2.51105e-07
2.51859e-07
2.5228e-07
2.52395e-07
2.52201e-07
2.51671e-07
2.50797e-07
2.49572e-07
2.47991e-07
2.4605e-07
2.43745e-07
2.41076e-07
2.38044e-07
2.34653e-07
2.30908e-07
2.26817e-07
2.2239e-07
2.17642e-07
2.12587e-07
2.07244e-07
2.01632e-07
1.95775e-07
1.89698e-07
1.83426e-07
1.76988e-07
1.70414e-07
1.63732e-07
1.56974e-07
1.5017e-07
1.43351e-07
1.36546e-07
1.29784e-07
1.23091e-07
1.16494e-07
1.10016e-07
1.03679e-07
9.7502e-08
9.15017e-08
8.56928e-08
8.00872e-08
7.46945e-08
6.9522e-08
6.45748e-08
5.98561e-08
5.53671e-08
5.11076e-08
4.70759e-08
4.32692e-08
3.96839e-08
3.6316e-08
3.31612e-08
3.02154e-08
2.74749e-08
2.49369e-08
2.26002e-08
2.04654e-08
1.85362e-08
1.68197e-08
1.53288e-08
1.40841e-08
1.31178e-08
1.24815e-08
1.22605e-08
1.26058e-08
1.38251e-08
1.66634e-08
2.35861e-08
4.96336e-08
1.34396e-07
6.3955e-08
4.50906e-08
3.70338e-08
3.30984e-08
3.12722e-08
3.07318e-08
3.107e-08
3.20587e-08
3.3556e-08
3.54668e-08
3.77235e-08
4.02753e-08
4.3083e-08
4.61153e-08
4.93465e-08
5.27556e-08
5.6325e-08
6.004e-08
6.38884e-08
6.78601e-08
7.19468e-08
7.61414e-08
8.04383e-08
8.48327e-08
8.93206e-08
9.38982e-08
9.85623e-08
1.0331e-07
1.08136e-07
1.13039e-07
1.18013e-07
1.23054e-07
1.28156e-07
1.33313e-07
1.38518e-07
1.43763e-07
1.49041e-07
1.54341e-07
1.59656e-07
1.64973e-07
1.70283e-07
1.75575e-07
1.80837e-07
1.86059e-07
1.91228e-07
1.96332e-07
2.01362e-07
2.06304e-07
2.11148e-07
2.15883e-07
2.20498e-07
2.24982e-07
2.29325e-07
2.33515e-07
2.37544e-07
2.414e-07
2.45073e-07
2.48552e-07
2.51828e-07
2.5489e-07
2.57726e-07
2.60325e-07
2.62677e-07
2.64768e-07
2.66588e-07
2.68124e-07
2.69363e-07
2.70293e-07
2.70888e-07
2.71133e-07
2.71067e-07
2.70645e-07
2.69856e-07
2.6869e-07
2.67138e-07
2.65195e-07
2.62856e-07
2.60118e-07
2.56979e-07
2.53443e-07
2.49513e-07
2.45197e-07
2.40504e-07
2.35448e-07
2.30045e-07
2.24314e-07
2.18277e-07
2.11958e-07
2.05384e-07
1.98584e-07
1.91591e-07
1.84435e-07
1.77152e-07
1.69776e-07
1.62342e-07
1.54883e-07
1.47436e-07
1.40031e-07
1.32701e-07
1.25476e-07
1.18382e-07
1.11445e-07
1.04688e-07
9.81288e-08
9.17857e-08
8.5672e-08
7.97989e-08
7.41747e-08
6.88052e-08
6.36936e-08
5.88413e-08
5.42475e-08
4.991e-08
4.58252e-08
4.19886e-08
3.83951e-08
3.50395e-08
3.19167e-08
2.90221e-08
2.63524e-08
2.39058e-08
2.16828e-08
1.96871e-08
1.79269e-08
1.64162e-08
1.51778e-08
1.42478e-08
1.36834e-08
1.35801e-08
1.41079e-08
1.56157e-08
1.89509e-08
2.69279e-08
5.67366e-08
1.54223e-07
7.33164e-08
5.15407e-08
4.21206e-08
3.73926e-08
3.50555e-08
3.41725e-08
3.4281e-08
3.51247e-08
3.6545e-08
3.84356e-08
4.07213e-08
4.33458e-08
4.62651e-08
4.94442e-08
5.28542e-08
5.64711e-08
6.02748e-08
6.42483e-08
6.83775e-08
7.26503e-08
7.70565e-08
8.15877e-08
8.62367e-08
9.09972e-08
9.58638e-08
1.00831e-07
1.05895e-07
1.11051e-07
1.16294e-07
1.21617e-07
1.27017e-07
1.32487e-07
1.38019e-07
1.43605e-07
1.49239e-07
1.5491e-07
1.6061e-07
1.66327e-07
1.72051e-07
1.77772e-07
1.83476e-07
1.89154e-07
1.94793e-07
2.00382e-07
2.05909e-07
2.11362e-07
2.16731e-07
2.22004e-07
2.2717e-07
2.32221e-07
2.37144e-07
2.4193e-07
2.4657e-07
2.51053e-07
2.5537e-07
2.59512e-07
2.63468e-07
2.67228e-07
2.70782e-07
2.74119e-07
2.77227e-07
2.80095e-07
2.8271e-07
2.8506e-07
2.8713e-07
2.88906e-07
2.90375e-07
2.91521e-07
2.92329e-07
2.92751e-07
2.92834e-07
2.92553e-07
2.91877e-07
2.90794e-07
2.89293e-07
2.87367e-07
2.85006e-07
2.82207e-07
2.78966e-07
2.75285e-07
2.71164e-07
2.66612e-07
2.61637e-07
2.56252e-07
2.50473e-07
2.44321e-07
2.37818e-07
2.3099e-07
2.23868e-07
2.16483e-07
2.08869e-07
2.01063e-07
1.93103e-07
1.85028e-07
1.76877e-07
1.68689e-07
1.60505e-07
1.5236e-07
1.44293e-07
1.36337e-07
1.28524e-07
1.20884e-07
1.13442e-07
1.06222e-07
9.92429e-08
9.25221e-08
8.60724e-08
7.99035e-08
7.40224e-08
6.84329e-08
6.31365e-08
5.81324e-08
5.34178e-08
4.89884e-08
4.48387e-08
4.09627e-08
3.7354e-08
3.40062e-08
3.09138e-08
2.80725e-08
2.54798e-08
2.31358e-08
2.10441e-08
1.92133e-08
1.76586e-08
1.64046e-08
1.5491e-08
1.49808e-08
1.49799e-08
1.56775e-08
1.74652e-08
2.12951e-08
3.03378e-08
6.39743e-08
1.75204e-07
8.32254e-08
5.83772e-08
4.75286e-08
4.19809e-08
3.91266e-08
3.7908e-08
3.78033e-08
3.85255e-08
3.98976e-08
4.18014e-08
4.41532e-08
4.68903e-08
4.99637e-08
5.33339e-08
5.69684e-08
6.08401e-08
6.4926e-08
6.92065e-08
7.36651e-08
7.82876e-08
8.30619e-08
8.79779e-08
9.30265e-08
9.81999e-08
1.03491e-07
1.08894e-07
1.14401e-07
1.20008e-07
1.25707e-07
1.31491e-07
1.37354e-07
1.43287e-07
1.49282e-07
1.55331e-07
1.61422e-07
1.67546e-07
1.73692e-07
1.79849e-07
1.86005e-07
1.92147e-07
1.98265e-07
2.04345e-07
2.10377e-07
2.16348e-07
2.22247e-07
2.28063e-07
2.33786e-07
2.39405e-07
2.4491e-07
2.50292e-07
2.55541e-07
2.6065e-07
2.65608e-07
2.70406e-07
2.75037e-07
2.7949e-07
2.83756e-07
2.87825e-07
2.91687e-07
2.9533e-07
2.98742e-07
3.01911e-07
3.04822e-07
3.07462e-07
3.09814e-07
3.11864e-07
3.13595e-07
3.14988e-07
3.16028e-07
3.16675e-07
3.16923e-07
3.16807e-07
3.16268e-07
3.15291e-07
3.13863e-07
3.11971e-07
3.09606e-07
3.0676e-07
3.03429e-07
2.9961e-07
2.95305e-07
2.9052e-07
2.85261e-07
2.79542e-07
2.73379e-07
2.66792e-07
2.59805e-07
2.52446e-07
2.44747e-07
2.36741e-07
2.28467e-07
2.19965e-07
2.11277e-07
2.02445e-07
1.93515e-07
1.84531e-07
1.75536e-07
1.66576e-07
1.5769e-07
1.48919e-07
1.403e-07
1.31867e-07
1.23651e-07
1.15679e-07
1.07975e-07
1.00558e-07
9.34442e-08
8.66455e-08
8.01703e-08
7.40237e-08
6.82077e-08
6.27216e-08
5.75623e-08
5.27251e-08
4.82036e-08
4.39906e-08
4.00785e-08
3.64597e-08
3.31275e-08
3.00764e-08
2.73029e-08
2.48065e-08
2.25905e-08
2.06635e-08
1.90416e-08
1.77513e-08
1.68354e-08
1.63629e-08
1.64498e-08
1.73061e-08
1.93655e-08
2.36875e-08
3.3805e-08
7.13249e-08
1.97376e-07
9.3698e-08
6.5608e-08
5.32596e-08
4.68603e-08
4.3478e-08
4.19265e-08
4.16221e-08
4.2243e-08
4.35931e-08
4.55411e-08
4.79937e-08
5.08813e-08
5.41489e-08
5.77524e-08
6.1655e-08
6.5826e-08
7.0239e-08
7.48717e-08
7.97049e-08
8.47221e-08
8.9909e-08
9.52533e-08
1.00744e-07
1.06372e-07
1.12128e-07
1.18004e-07
1.23992e-07
1.30085e-07
1.36273e-07
1.42549e-07
1.48903e-07
1.55327e-07
1.6181e-07
1.68341e-07
1.74909e-07
1.81503e-07
1.8811e-07
1.94718e-07
2.01316e-07
2.07889e-07
2.14426e-07
2.20915e-07
2.27344e-07
2.33702e-07
2.39977e-07
2.4616e-07
2.52242e-07
2.58211e-07
2.64061e-07
2.69781e-07
2.75365e-07
2.80805e-07
2.86092e-07
2.91218e-07
2.96175e-07
3.00954e-07
3.05546e-07
3.09942e-07
3.14129e-07
3.18096e-07
3.21831e-07
3.2532e-07
3.28548e-07
3.31498e-07
3.34153e-07
3.36496e-07
3.38508e-07
3.40169e-07
3.41458e-07
3.42354e-07
3.42795e-07
3.42852e-07
3.42472e-07
3.41622e-07
3.40285e-07
3.38448e-07
3.36099e-07
3.33226e-07
3.29824e-07
3.25887e-07
3.21416e-07
3.16414e-07
3.10887e-07
3.04847e-07
2.9831e-07
2.91296e-07
2.83829e-07
2.75938e-07
2.67657e-07
2.59022e-07
2.50073e-07
2.40853e-07
2.31409e-07
2.21788e-07
2.12039e-07
2.02212e-07
1.92356e-07
1.82522e-07
1.72755e-07
1.63102e-07
1.53606e-07
1.44306e-07
1.35238e-07
1.26436e-07
1.17926e-07
1.09732e-07
1.01874e-07
9.43664e-08
8.72198e-08
8.04411e-08
7.40333e-08
6.79963e-08
6.23272e-08
5.70207e-08
5.20698e-08
4.74663e-08
4.32014e-08
3.92663e-08
3.56527e-08
3.2354e-08
2.93655e-08
2.66856e-08
2.43173e-08
2.22689e-08
2.0557e-08
1.921e-08
1.82737e-08
1.78229e-08
1.79841e-08
1.89878e-08
2.13111e-08
2.61226e-08
3.73224e-08
7.87734e-08
2.20777e-07
1.04751e-07
7.32423e-08
5.93179e-08
5.20308e-08
4.81063e-08
4.62217e-08
4.57281e-08
4.62659e-08
4.76184e-08
4.96398e-08
5.22266e-08
5.5301e-08
5.88016e-08
6.26789e-08
6.68914e-08
7.14042e-08
7.61872e-08
8.12149e-08
8.6465e-08
9.19184e-08
9.75585e-08
1.03371e-07
1.09342e-07
1.1546e-07
1.21716e-07
1.28098e-07
1.34597e-07
1.41204e-07
1.47907e-07
1.54697e-07
1.61564e-07
1.68495e-07
1.7548e-07
1.82506e-07
1.89561e-07
1.96631e-07
2.03704e-07
2.10766e-07
2.17805e-07
2.24808e-07
2.31761e-07
2.38654e-07
2.45475e-07
2.52214e-07
2.5886e-07
2.65404e-07
2.71838e-07
2.78153e-07
2.84343e-07
2.90399e-07
2.96315e-07
3.02084e-07
3.07699e-07
3.13154e-07
3.18439e-07
3.23547e-07
3.28469e-07
3.33194e-07
3.37711e-07
3.42009e-07
3.46072e-07
3.49887e-07
3.53436e-07
3.56703e-07
3.59669e-07
3.62313e-07
3.64614e-07
3.66551e-07
3.68102e-07
3.69245e-07
3.69919e-07
3.70144e-07
3.69941e-07
3.69236e-07
3.68012e-07
3.66253e-07
3.63943e-07
3.6107e-07
3.57625e-07
3.53601e-07
3.48995e-07
3.43808e-07
3.38045e-07
3.31716e-07
3.24836e-07
3.17424e-07
3.09505e-07
3.01106e-07
2.92263e-07
2.83013e-07
2.73399e-07
2.63466e-07
2.53264e-07
2.42844e-07
2.3226e-07
2.21567e-07
2.1082e-07
2.00073e-07
1.89382e-07
1.78796e-07
1.68367e-07
1.58139e-07
1.48155e-07
1.38452e-07
1.29065e-07
1.20022e-07
1.11345e-07
1.03054e-07
9.5163e-08
8.76801e-08
8.06105e-08
7.39553e-08
6.77119e-08
6.18751e-08
5.64374e-08
5.13898e-08
4.67224e-08
4.24251e-08
3.84881e-08
3.49035e-08
3.16651e-08
2.87704e-08
2.62212e-08
2.40259e-08
2.22013e-08
2.07772e-08
1.98023e-08
1.93574e-08
1.95793e-08
2.07197e-08
2.32992e-08
2.85971e-08
4.08859e-08
8.63116e-08
2.45446e-07
1.16401e-07
8.12902e-08
6.57089e-08
5.74945e-08
5.30105e-08
5.07906e-08
5.01164e-08
5.05876e-08
5.19656e-08
5.40887e-08
5.6842e-08
6.01387e-08
6.39102e-08
6.81007e-08
7.26635e-08
7.75588e-08
8.27527e-08
8.82157e-08
9.39223e-08
9.98504e-08
1.05981e-07
1.12296e-07
1.18781e-07
1.25422e-07
1.32206e-07
1.39121e-07
1.46155e-07
1.53296e-07
1.60533e-07
1.67853e-07
1.75243e-07
1.82692e-07
1.90185e-07
1.97709e-07
2.0525e-07
2.12794e-07
2.20327e-07
2.27835e-07
2.35306e-07
2.42725e-07
2.50083e-07
2.57365e-07
2.64564e-07
2.71667e-07
2.78668e-07
2.85557e-07
2.92328e-07
2.98974e-07
3.05489e-07
3.11866e-07
3.18101e-07
3.24187e-07
3.30119e-07
3.3589e-07
3.41492e-07
3.46918e-07
3.52159e-07
3.57204e-07
3.62042e-07
3.6666e-07
3.71043e-07
3.75175e-07
3.79038e-07
3.82614e-07
3.85883e-07
3.88823e-07
3.9141e-07
3.93622e-07
3.95434e-07
3.96824e-07
3.97745e-07
3.98147e-07
3.98129e-07
3.97587e-07
3.96497e-07
3.94841e-07
3.92601e-07
3.89762e-07
3.86313e-07
3.82243e-07
3.77547e-07
3.72223e-07
3.66275e-07
3.59709e-07
3.52538e-07
3.44781e-07
3.36459e-07
3.27602e-07
3.18242e-07
3.08419e-07
2.98175e-07
2.87559e-07
2.76622e-07
2.6542e-07
2.54009e-07
2.42449e-07
2.30802e-07
2.19127e-07
2.07484e-07
1.95933e-07
1.84529e-07
1.73326e-07
1.62371e-07
1.5171e-07
1.41383e-07
1.31423e-07
1.2186e-07
1.12716e-07
1.04009e-07
9.57521e-08
8.7952e-08
8.06115e-08
7.37292e-08
6.73005e-08
6.13178e-08
5.57715e-08
5.06506e-08
4.59438e-08
4.16402e-08
3.77299e-08
3.42056e-08
3.10634e-08
2.83041e-08
2.59355e-08
2.39746e-08
2.24524e-08
2.14206e-08
2.09655e-08
2.12346e-08
2.25007e-08
2.53289e-08
3.11104e-08
4.44946e-08
9.39379e-08
2.71419e-07
1.28666e-07
8.97616e-08
7.24388e-08
6.32545e-08
5.81918e-08
5.56324e-08
5.47848e-08
5.52051e-08
5.66307e-08
5.88832e-08
6.18346e-08
6.53884e-08
6.94678e-08
7.40099e-08
7.89621e-08
8.42794e-08
8.9923e-08
9.58594e-08
1.02059e-07
1.08497e-07
1.15151e-07
1.22001e-07
1.29028e-07
1.36217e-07
1.43553e-07
1.51021e-07
1.58607e-07
1.66297e-07
1.74078e-07
1.81935e-07
1.89853e-07
1.97819e-07
2.05817e-07
2.13833e-07
2.2185e-07
2.29855e-07
2.37833e-07
2.45771e-07
2.53653e-07
2.61469e-07
2.69207e-07
2.76856e-07
2.84406e-07
2.9185e-07
2.9918e-07
3.06388e-07
3.13471e-07
3.20421e-07
3.27235e-07
3.33909e-07
3.40437e-07
3.46816e-07
3.53039e-07
3.59102e-07
3.64997e-07
3.70717e-07
3.76252e-07
3.81593e-07
3.86726e-07
3.9164e-07
3.96317e-07
4.00743e-07
4.04898e-07
4.08762e-07
4.12314e-07
4.15531e-07
4.18389e-07
4.20863e-07
4.22929e-07
4.24558e-07
4.25723e-07
4.26339e-07
4.26487e-07
4.26128e-07
4.25196e-07
4.23673e-07
4.21539e-07
4.18776e-07
4.15371e-07
4.11309e-07
4.06583e-07
4.01187e-07
3.95122e-07
3.88391e-07
3.81004e-07
3.72976e-07
3.64327e-07
3.55084e-07
3.4528e-07
3.34951e-07
3.24141e-07
3.12898e-07
3.01276e-07
2.89332e-07
2.77128e-07
2.64725e-07
2.52191e-07
2.39591e-07
2.26992e-07
2.14459e-07
2.02056e-07
1.89843e-07
1.77876e-07
1.66208e-07
1.54886e-07
1.4395e-07
1.33436e-07
1.23373e-07
1.13783e-07
1.04683e-07
9.60836e-08
8.79905e-08
8.04039e-08
7.33203e-08
6.67325e-08
6.06307e-08
5.50032e-08
4.98377e-08
4.51218e-08
4.08443e-08
3.69962e-08
3.35721e-08
3.05718e-08
2.80021e-08
2.58803e-08
2.42381e-08
2.31302e-08
2.26484e-08
2.2951e-08
2.43319e-08
2.74012e-08
3.36638e-08
4.81508e-08
1.01657e-07
2.98732e-07
1.41561e-07
9.8666e-08
7.95136e-08
6.93145e-08
6.36521e-08
6.07479e-08
5.97332e-08
6.01173e-08
6.16125e-08
6.40214e-08
6.72023e-08
7.10475e-08
7.54711e-08
8.04025e-08
8.5782e-08
9.15589e-08
9.76892e-08
1.04135e-07
1.10862e-07
1.17842e-07
1.25048e-07
1.32459e-07
1.40052e-07
1.47811e-07
1.55715e-07
1.6375e-07
1.71898e-07
1.80144e-07
1.88471e-07
1.96864e-07
2.05305e-07
2.1378e-07
2.22271e-07
2.30762e-07
2.39238e-07
2.47682e-07
2.56081e-07
2.6442e-07
2.72686e-07
2.80867e-07
2.88953e-07
2.96934e-07
3.04802e-07
3.12551e-07
3.20173e-07
3.27666e-07
3.35023e-07
3.42242e-07
3.49319e-07
3.56252e-07
3.63037e-07
3.6967e-07
3.76147e-07
3.82464e-07
3.88613e-07
3.94587e-07
4.00377e-07
4.05973e-07
4.11363e-07
4.16532e-07
4.21466e-07
4.26147e-07
4.30556e-07
4.34673e-07
4.38476e-07
4.41942e-07
4.45045e-07
4.4776e-07
4.50062e-07
4.51923e-07
4.53315e-07
4.54166e-07
4.54482e-07
4.54321e-07
4.53573e-07
4.52216e-07
4.5023e-07
4.47594e-07
4.44291e-07
4.40304e-07
4.35621e-07
4.30233e-07
4.24137e-07
4.17331e-07
4.09823e-07
4.01621e-07
3.92745e-07
3.83216e-07
3.73063e-07
3.62322e-07
3.51036e-07
3.3925e-07
3.2702e-07
3.14403e-07
3.01463e-07
2.88266e-07
2.74882e-07
2.61383e-07
2.47842e-07
2.3433e-07
2.20919e-07
2.07678e-07
1.9467e-07
1.81956e-07
1.69593e-07
1.57628e-07
1.46105e-07
1.3506e-07
1.24521e-07
1.1451e-07
1.05043e-07
9.61291e-08
8.77712e-08
7.99675e-08
7.27119e-08
6.59951e-08
5.98051e-08
5.41287e-08
4.89522e-08
4.42631e-08
4.00507e-08
3.63082e-08
3.30338e-08
3.02336e-08
2.79246e-08
2.61394e-08
2.49353e-08
2.44095e-08
2.47313e-08
2.62159e-08
2.95191e-08
3.62609e-08
5.18595e-08
1.0948e-07
3.27415e-07
1.55099e-07
1.08012e-07
8.69389e-08
7.56783e-08
6.93937e-08
6.61386e-08
6.49625e-08
6.53249e-08
6.69111e-08
6.95035e-08
7.29449e-08
7.71154e-08
8.19189e-08
8.7276e-08
9.31196e-08
9.93922e-08
1.06044e-07
1.13031e-07
1.20316e-07
1.27866e-07
1.3565e-07
1.43644e-07
1.51822e-07
1.60164e-07
1.68649e-07
1.77257e-07
1.85971e-07
1.94771e-07
2.03639e-07
2.12558e-07
2.21509e-07
2.30475e-07
2.39437e-07