/*--------------------------------*- C++ -*----------------------------------*\
  =========                 |
  \\      /  F ield         | OpenFOAM: The Open Source CFD Toolbox
   \\    /   O peration     | Website:  https://openfoam.org
    \\  /    A nd           | Version:  12
     \\/     M anipulation  |
\*---------------------------------------------------------------------------*/
FoamFile
{
    format      ascii;
    class       volScalarField;
    location    "10";
    object      nut;
}
// * * * * * * * * * * * * * * * * * * * * * * * * * * * * * * * * * * * * * //

dimensions      [0 2 -1 0 0 0 0];

internalField   nonuniform List<scalar> 
18225
(
9.77956e-18
4.88722e-17
1.06956e-16
1.76704e-16
2.54852e-16
3.3947e-16
4.29197e-16
5.22975e-16
6.19943e-16
7.19379e-16
8.2068e-16
9.23334e-16
1.0269e-15
1.13103e-15
1.23543e-15
1.33985e-15
1.44413e-15
1.54813e-15
1.65177e-15
1.75501e-15
1.85783e-15
1.96027e-15
2.06238e-15
2.16423e-15
2.2659e-15
2.36751e-15
2.46915e-15
2.57095e-15
2.67301e-15
2.77543e-15
2.87832e-15
2.98177e-15
3.08585e-15
3.19062e-15
3.29611e-15
3.40237e-15
3.50939e-15
3.61717e-15
3.72566e-15
3.83483e-15
3.94461e-15
4.0549e-15
4.16561e-15
4.2766e-15
4.38773e-15
4.49885e-15
4.60978e-15
4.72033e-15
4.83027e-15
4.93939e-15
5.04744e-15
5.15415e-15
5.25924e-15
5.36243e-15
5.4634e-15
5.56182e-15
5.65736e-15
5.74966e-15
5.83835e-15
5.92306e-15
6.0034e-15
6.07898e-15
6.14939e-15
6.21423e-15
6.27309e-15
6.32557e-15
6.37128e-15
6.4098e-15
6.44081e-15
6.46393e-15
6.47871e-15
6.4849e-15
6.48249e-15
6.47107e-15
6.45039e-15
6.42026e-15
6.38057e-15
6.33123e-15
6.27225e-15
6.20364e-15
6.12553e-15
6.03805e-15
5.94144e-15
5.83597e-15
5.72197e-15
5.59985e-15
5.47005e-15
5.33308e-15
5.1895e-15
5.0399e-15
4.88491e-15
4.7252e-15
4.56147e-15
4.39443e-15
4.22479e-15
4.05329e-15
3.88064e-15
3.70756e-15
3.53474e-15
3.36284e-15
3.1925e-15
3.02432e-15
2.85885e-15
2.69661e-15
2.53805e-15
2.3836e-15
2.2336e-15
2.08836e-15
1.94812e-15
1.81309e-15
1.68341e-15
1.55917e-15
1.44042e-15
1.32717e-15
1.21938e-15
1.11697e-15
1.01983e-15
9.27829e-16
8.40808e-16
7.58586e-16
6.80971e-16
6.07763e-16
5.38755e-16
4.73748e-16
4.12549e-16
3.54986e-16
3.00912e-16
2.5022e-16
2.02857e-16
1.58844e-16
1.18311e-16
8.15552e-17
4.9172e-17
2.24203e-17
4.48408e-18
4.89016e-17
4.43503e-15
1.50604e-14
2.78271e-14
4.17718e-14
5.6651e-14
7.23001e-14
8.85755e-14
1.0535e-13
1.22512e-13
1.39964e-13
1.57621e-13
1.75415e-13
1.93285e-13
2.11185e-13
2.29074e-13
2.46924e-13
2.64713e-13
2.8243e-13
3.00066e-13
3.17623e-13
3.35105e-13
3.52522e-13
3.69887e-13
3.87216e-13
4.04527e-13
4.2184e-13
4.39174e-13
4.56549e-13
4.73984e-13
4.91496e-13
5.091e-13
5.2681e-13
5.44636e-13
5.62586e-13
5.80665e-13
5.98874e-13
6.17212e-13
6.35674e-13
6.54252e-13
6.72934e-13
6.91706e-13
7.10552e-13
7.29449e-13
7.48375e-13
7.67303e-13
7.86203e-13
8.05044e-13
8.23789e-13
8.424e-13
8.60837e-13
8.79055e-13
8.97007e-13
9.14644e-13
9.31914e-13
9.48762e-13
9.65129e-13
9.80957e-13
9.96183e-13
1.01074e-12
1.02457e-12
1.0376e-12
1.04976e-12
1.06098e-12
1.07119e-12
1.08032e-12
1.08831e-12
1.09507e-12
1.10053e-12
1.10463e-12
1.1073e-12
1.10849e-12
1.10823e-12
1.10643e-12
1.10303e-12
1.09802e-12
1.09136e-12
1.08305e-12
1.07307e-12
1.06144e-12
1.04816e-12
1.03328e-12
1.01681e-12
9.98816e-13
9.79346e-13
9.58469e-13
9.36264e-13
9.12817e-13
8.88223e-13
8.62586e-13
8.36015e-13
8.08625e-13
7.80538e-13
7.51876e-13
7.22764e-13
6.93329e-13
6.63697e-13
6.33989e-13
6.04327e-13
5.74826e-13
5.45597e-13
5.16743e-13
4.88359e-13
4.60536e-13
4.33352e-13
4.06879e-13
3.81176e-13
3.56297e-13
3.32285e-13
3.09171e-13
2.86981e-13
2.65729e-13
2.45424e-13
2.26061e-13
2.07635e-13
1.90136e-13
1.73544e-13
1.57835e-13
1.42981e-13
1.2895e-13
1.15708e-13
1.03218e-13
9.14442e-14
8.03504e-14
6.99017e-14
6.00658e-14
5.08144e-14
4.21244e-14
3.39798e-14
2.63731e-14
1.93073e-14
1.27996e-14
6.90925e-15
2.03321e-15
2.24109e-17
1.07284e-16
1.50779e-14
7.65092e-14
1.72452e-13
2.84014e-13
4.03609e-13
5.28529e-13
6.57451e-13
7.8946e-13
9.23804e-13
1.05982e-12
1.19695e-12
1.3347e-12
1.47265e-12
1.61048e-12
1.74792e-12
1.88477e-12
2.02088e-12
2.1562e-12
2.29067e-12
2.42433e-12
2.55722e-12
2.68945e-12
2.82112e-12
2.95237e-12
3.08336e-12
3.21425e-12
3.3452e-12
3.47637e-12
3.60792e-12
3.73998e-12
3.87268e-12
4.00614e-12
4.14044e-12
4.27564e-12
4.41179e-12
4.54891e-12
4.68699e-12
4.82601e-12
4.96591e-12
5.10661e-12
5.24801e-12
5.38999e-12
5.5324e-12
5.67508e-12
5.81782e-12
5.96043e-12
6.10266e-12
6.24425e-12
6.38494e-12
6.52442e-12
6.66236e-12
6.79843e-12
6.93225e-12
7.06345e-12
7.19162e-12
7.31632e-12
7.43711e-12
7.55352e-12
7.66506e-12
7.77124e-12
7.87155e-12
7.96544e-12
8.0524e-12
8.13187e-12
8.20332e-12
8.2662e-12
8.31997e-12
8.36406e-12
8.39797e-12
8.42115e-12
8.4329e-12
8.43387e-12
8.42304e-12
8.40007e-12
8.36467e-12
8.31664e-12
8.25585e-12
8.18223e-12
8.09579e-12
7.99664e-12
7.88493e-12
7.76093e-12
7.62497e-12
7.47749e-12
7.319e-12
7.15008e-12
6.97139e-12
6.78368e-12
6.58775e-12
6.38446e-12
6.17469e-12
5.95941e-12
5.73959e-12
5.51619e-12
5.29023e-12
5.0627e-12
4.83455e-12
4.60675e-12
4.3802e-12
4.15577e-12
3.93427e-12
3.71647e-12
3.50306e-12
3.29464e-12
3.09179e-12
2.89496e-12
2.70455e-12
2.5209e-12
2.34425e-12
2.17478e-12
2.0126e-12
1.85775e-12
1.71021e-12
1.56992e-12
1.43677e-12
1.31058e-12
1.19116e-12
1.07828e-12
9.71672e-13
8.71049e-13
7.76116e-13
6.86568e-13
6.02098e-13
5.22404e-13
4.47196e-13
3.76203e-13
3.09183e-13
2.45934e-13
1.86332e-13
1.3045e-13
7.90154e-14
3.50438e-14
6.90514e-15
4.90665e-17
1.78021e-16
2.79505e-14
1.72723e-13
4.59614e-13
8.41935e-13
1.2756e-12
1.73686e-12
2.21418e-12
2.7015e-12
3.1951e-12
3.69231e-12
4.19108e-12
4.68976e-12
5.18701e-12
5.68177e-12
6.17322e-12
6.6608e-12
7.14414e-12
7.62308e-12
8.09763e-12
8.56798e-12
9.03441e-12
9.49737e-12
9.95735e-12
1.04149e-11
1.08707e-11
1.13254e-11
1.17797e-11
1.2234e-11
1.26892e-11
1.31456e-11
1.36039e-11
1.40644e-11
1.45275e-11
1.49936e-11
1.54627e-11
1.5935e-11
1.64105e-11
1.68892e-11
1.73709e-11
1.78554e-11
1.83425e-11
1.88316e-11
1.93225e-11
1.98145e-11
2.0307e-11
2.07994e-11
2.12908e-11
2.17806e-11
2.22677e-11
2.27513e-11
2.32302e-11
2.37032e-11
2.41693e-11
2.4627e-11
2.50751e-11
2.5512e-11
2.59363e-11
2.63463e-11
2.67403e-11
2.71167e-11
2.74735e-11
2.7809e-11
2.81212e-11
2.84082e-11
2.8668e-11
2.88988e-11
2.90984e-11
2.9265e-11
2.9397e-11
2.94915e-11
2.95456e-11
2.95631e-11
2.95392e-11
2.94725e-11
2.9362e-11
2.92067e-11
2.90061e-11
2.87598e-11
2.84676e-11
2.81298e-11
2.77469e-11
2.73196e-11
2.68491e-11
2.63369e-11
2.57845e-11
2.51942e-11
2.45683e-11
2.39093e-11
2.32202e-11
2.25039e-11
2.17639e-11
2.10035e-11
2.02262e-11
1.94356e-11
1.86354e-11
1.78292e-11
1.70206e-11
1.62129e-11
1.54096e-11
1.46139e-11
1.38286e-11
1.30567e-11
1.23005e-11
1.15623e-11
1.08442e-11
1.01478e-11
9.47463e-12
8.82573e-12
8.202e-12
7.60407e-12
7.03228e-12
6.48674e-12
5.96736e-12
5.47383e-12
5.00567e-12
4.56223e-12
4.14273e-12
3.74622e-12
3.37171e-12
3.01808e-12
2.68417e-12
2.36877e-12
2.07065e-12
1.7886e-12
1.52143e-12
1.26803e-12
1.0275e-12
7.99342e-13
5.84066e-13
3.84688e-13
2.10044e-13
7.89865e-14
1.27657e-14
8.11203e-17
2.58394e-16
4.21945e-14
2.85551e-13
8.43927e-13
1.68716e-12
2.72285e-12
3.87178e-12
5.08369e-12
6.32931e-12
7.59145e-12
8.85939e-12
1.0126e-11
1.13863e-11
1.26366e-11
1.38744e-11
1.50978e-11
1.63058e-11
1.74978e-11
1.86737e-11
1.98339e-11
2.09793e-11
2.2111e-11
2.32303e-11
2.43388e-11
2.54383e-11
2.65305e-11
2.76174e-11
2.87008e-11
2.97823e-11
3.08639e-11
3.19469e-11
3.30328e-11
3.41229e-11
3.52181e-11
3.63193e-11
3.74271e-11
3.8542e-11
3.96641e-11
4.07935e-11
4.19299e-11
4.30731e-11
4.42224e-11
4.5377e-11
4.65361e-11
4.76986e-11
4.88631e-11
5.00282e-11
5.11922e-11
5.23535e-11
5.35098e-11
5.46592e-11
5.57991e-11
5.69271e-11
5.80402e-11
5.91357e-11
6.02101e-11
6.12603e-11
6.22825e-11
6.3273e-11
6.42277e-11
6.51425e-11
6.6013e-11
6.68346e-11
6.76028e-11
6.83127e-11
6.89595e-11
6.95382e-11
7.0044e-11
7.04721e-11
7.08212e-11
7.10755e-11
7.12362e-11
7.13099e-11
7.12838e-11
7.11545e-11
7.09191e-11
7.0575e-11
7.01205e-11
6.95543e-11
6.8876e-11
6.80856e-11
6.71841e-11
6.61731e-11
6.50552e-11
6.38337e-11
6.25126e-11
6.10969e-11
5.95921e-11
5.80047e-11
5.63415e-11
5.46101e-11
5.28186e-11
5.09753e-11
4.90891e-11
4.71688e-11
4.52236e-11
4.32623e-11
4.1294e-11
3.93272e-11
3.73703e-11
3.54313e-11
3.35176e-11
3.16361e-11
2.97932e-11
2.79945e-11
2.62448e-11
2.45486e-11
2.29092e-11
2.13296e-11
1.98119e-11
1.83576e-11
1.69674e-11
1.56416e-11
1.43798e-11
1.31813e-11
1.20446e-11
1.09681e-11
9.94954e-12
8.98657e-12
8.07644e-12
7.21622e-12
6.40278e-12
5.63289e-12
4.90328e-12
4.21072e-12
3.55222e-12
2.92535e-12
2.32891e-12
1.7643e-12
1.23829e-12
7.67782e-13
3.84646e-13
1.30158e-13
1.91802e-14
1.17106e-16
3.47106e-16
5.76829e-14
4.08461e-13
1.28472e-12
2.73286e-12
4.64663e-12
6.87789e-12
9.30254e-12
1.18342e-11
1.4417e-11
1.70154e-11
1.96065e-11
2.21755e-11
2.47124e-11
2.7211e-11
2.96674e-11
3.20795e-11
3.44468e-11
3.67699e-11
3.90505e-11
4.12911e-11
4.34946e-11
4.56647e-11
4.78053e-11
4.99205e-11
5.20148e-11
5.40925e-11
5.61577e-11
5.82147e-11
6.02671e-11
6.23186e-11
6.43723e-11
6.64311e-11
6.84974e-11
7.0573e-11
7.26597e-11
7.47585e-11
7.68702e-11
7.8995e-11
8.1133e-11
8.32837e-11
8.54464e-11
8.76197e-11
8.98023e-11
9.19924e-11
9.41876e-11
9.63857e-11
9.85836e-11
1.00778e-10
1.02966e-10
1.05143e-10
1.07304e-10
1.09446e-10
1.11563e-10
1.13649e-10
1.15698e-10
1.17705e-10
1.19661e-10
1.2156e-10
1.23395e-10
1.25157e-10
1.26837e-10
1.28427e-10
1.29918e-10
1.313e-10
1.32564e-10
1.33701e-10
1.34699e-10
1.3555e-10
1.36256e-10
1.3677e-10
1.37113e-10
1.3729e-10
1.37276e-10
1.37063e-10
1.36646e-10
1.3602e-10
1.35181e-10
1.34126e-10
1.32855e-10
1.31366e-10
1.29662e-10
1.27745e-10
1.25621e-10
1.23294e-10
1.20773e-10
1.18067e-10
1.15187e-10
1.12144e-10
1.08953e-10
1.05626e-10
1.02181e-10
9.86331e-11
9.49991e-11
9.12964e-11
8.75427e-11
8.37554e-11
7.99518e-11
7.6149e-11
7.23631e-11
6.86099e-11
6.49039e-11
6.12588e-11
5.7687e-11
5.41997e-11
5.08066e-11
4.75162e-11
4.43355e-11
4.12702e-11
3.83245e-11
3.55014e-11
3.28024e-11
3.02281e-11
2.77777e-11
2.54494e-11
2.32405e-11
2.11475e-11
1.9166e-11
1.72908e-11
1.55165e-11
1.38368e-11
1.22454e-11
1.07355e-11
9.30052e-12
7.93434e-12
6.63186e-12
5.39038e-12
4.21187e-12
3.10694e-12
2.10052e-12
1.2382e-12
5.83031e-13
1.85162e-13
2.6043e-14
1.56171e-16
4.43488e-16
7.43755e-14
5.3986e-13
1.76279e-12
3.9105e-12
6.91614e-12
1.05842e-11
1.47005e-11
1.90871e-11
2.36138e-11
2.81917e-11
3.27615e-11
3.72844e-11
4.17355e-11
4.60994e-11
5.03673e-11
5.45352e-11
5.86026e-11
6.25716e-11
6.64464e-11
7.02328e-11
7.39377e-11
7.75688e-11
8.11346e-11
8.46438e-11
8.81051e-11
9.15272e-11
9.49187e-11
9.82875e-11
1.01641e-10
1.04987e-10
1.0833e-10
1.11677e-10
1.15033e-10
1.184e-10
1.21783e-10
1.25184e-10
1.28604e-10
1.32045e-10
1.35507e-10
1.3899e-10
1.42492e-10
1.46012e-10
1.49548e-10
1.53098e-10
1.56658e-10
1.60224e-10
1.63791e-10
1.67355e-10
1.70911e-10
1.74451e-10
1.77968e-10
1.81456e-10
1.84905e-10
1.88306e-10
1.9165e-10
1.94927e-10
1.98123e-10
2.01229e-10
2.0423e-10
2.07114e-10
2.09866e-10
2.12473e-10
2.14917e-10
2.17185e-10
2.1926e-10
2.21125e-10
2.22764e-10
2.24166e-10
2.25331e-10
2.26166e-10
2.26735e-10
2.27029e-10
2.27008e-10
2.26662e-10
2.25979e-10
2.24953e-10
2.23578e-10
2.21848e-10
2.19762e-10
2.1732e-10
2.14523e-10
2.11378e-10
2.07891e-10
2.04072e-10
1.99933e-10
1.9549e-10
1.90759e-10
1.8576e-10
1.80515e-10
1.75048e-10
1.69382e-10
1.63545e-10
1.57564e-10
1.51467e-10
1.45283e-10
1.3904e-10
1.32766e-10
1.2649e-10
1.20238e-10
1.14036e-10
1.07908e-10
1.01876e-10
9.59617e-11
9.01831e-11
8.45568e-11
7.9097e-11
7.38156e-11
6.87223e-11
6.38243e-11
5.91267e-11
5.46325e-11
5.03426e-11
4.62557e-11
4.23692e-11
3.86782e-11
3.51767e-11
3.18575e-11
2.87119e-11
2.57302e-11
2.29018e-11
2.02157e-11
1.76607e-11
1.5226e-11
1.29027e-11
1.06852e-11
8.5743e-12
6.58231e-12
4.74015e-12
3.10525e-12
1.76097e-12
7.94706e-13
2.42807e-13
3.32833e-14
1.97715e-16
5.47209e-16
9.22576e-14
6.79534e-13
2.27138e-12
5.18299e-12
9.43339e-12
1.48182e-11
2.10411e-11
2.78127e-11
3.48954e-11
4.21124e-11
4.9339e-11
5.64911e-11
6.35143e-11
7.03749e-11
7.70537e-11
8.35425e-11
8.984e-11
9.5951e-11
1.01884e-10
1.0765e-10
1.13262e-10
1.18736e-10
1.24087e-10
1.2933e-10
1.34482e-10
1.39559e-10
1.44575e-10
1.49544e-10
1.5448e-10
1.59395e-10
1.64299e-10
1.69201e-10
1.7411e-10
1.79033e-10
1.83975e-10
1.88941e-10
1.93933e-10
1.98954e-10
2.04005e-10
2.09085e-10
2.14194e-10
2.19329e-10
2.24488e-10
2.29665e-10
2.34858e-10
2.4006e-10
2.45264e-10
2.50464e-10
2.55649e-10
2.60812e-10
2.65942e-10
2.71026e-10
2.76052e-10
2.81007e-10
2.85876e-10
2.90643e-10
2.9529e-10
2.99801e-10
3.04155e-10
3.08332e-10
3.12313e-10
3.16075e-10
3.19595e-10
3.22851e-10
3.2582e-10
3.28479e-10
3.30804e-10
3.32782e-10
3.34412e-10
3.3554e-10
3.36295e-10
3.3664e-10
3.3652e-10
3.35922e-10
3.34833e-10
3.33242e-10
3.3114e-10
3.28523e-10
3.25388e-10
3.21735e-10
3.17569e-10
3.12897e-10
3.0773e-10
3.02083e-10
2.95973e-10
2.89424e-10
2.82458e-10
2.75105e-10
2.67396e-10
2.59363e-10
2.51042e-10
2.42471e-10
2.3369e-10
2.24738e-10
2.15655e-10
2.06483e-10
1.97263e-10
1.88034e-10
1.78834e-10
1.69701e-10
1.6067e-10
1.51773e-10
1.43041e-10
1.34502e-10
1.26178e-10
1.18093e-10
1.10263e-10
1.02703e-10
9.54249e-11
8.84359e-11
8.17412e-11
7.53426e-11
6.92387e-11
6.34256e-11
5.78969e-11
5.26434e-11
4.76544e-11
4.2917e-11
3.84165e-11
3.41374e-11
3.00632e-11
2.61777e-11
2.24667e-11
1.89195e-11
1.55335e-11
1.23197e-11
9.31125e-12
6.57147e-12
4.19894e-12
2.31421e-12
1.01461e-12
3.02523e-13
4.08396e-14
2.4128e-16
6.58147e-16
1.11333e-13
8.2766e-13
2.80901e-12
6.53458e-12
1.21418e-11
1.94551e-11
2.81171e-11
3.77225e-11
4.79034e-11
5.83637e-11
6.88833e-11
7.93077e-11
8.95333e-11
9.94953e-11
1.09156e-10
1.18499e-10
1.27521e-10
1.36229e-10
1.44639e-10
1.52768e-10
1.60641e-10
1.68282e-10
1.75717e-10
1.82973e-10
1.90076e-10
1.97051e-10
2.03922e-10
2.10712e-10
2.17441e-10
2.24128e-10
2.30791e-10
2.37443e-10
2.44097e-10
2.50764e-10
2.57452e-10
2.64169e-10
2.70919e-10
2.77706e-10
2.8453e-10
2.91393e-10
2.98292e-10
3.05225e-10
3.12189e-10
3.19177e-10
3.26183e-10
3.33198e-10
3.40213e-10
3.47217e-10
3.54197e-10
3.61142e-10
3.68034e-10
3.74859e-10
3.81597e-10
3.88231e-10
3.94738e-10
4.01097e-10
4.07284e-10
4.13274e-10
4.19041e-10
4.24557e-10
4.29795e-10
4.34723e-10
4.39313e-10
4.43534e-10
4.47356e-10
4.50747e-10
4.53677e-10
4.56122e-10
4.58098e-10
4.59379e-10
4.60178e-10
4.60405e-10
4.60005e-10
4.58959e-10
4.57254e-10
4.54877e-10
4.51819e-10
4.48077e-10
4.43647e-10
4.38532e-10
4.3274e-10
4.26282e-10
4.19173e-10
4.11433e-10
4.03088e-10
3.94165e-10
3.84699e-10
3.74725e-10
3.64284e-10
3.5342e-10
3.42179e-10
3.3061e-10
3.18762e-10
3.06689e-10
2.94442e-10
2.82074e-10
2.69639e-10
2.57186e-10
2.44768e-10
2.32431e-10
2.20223e-10
2.08185e-10
1.96359e-10
1.8478e-10
1.73481e-10
1.6249e-10
1.51832e-10
1.41528e-10
1.31592e-10
1.22036e-10
1.12868e-10
1.0409e-10
9.57023e-11
8.76993e-11
8.00729e-11
7.28117e-11
6.59008e-11
5.93226e-11
5.30576e-11
4.70847e-11
4.13825e-11
3.59305e-11
3.07124e-11
2.57198e-11
2.09584e-11
1.64569e-11
1.22777e-11
8.52579e-12
5.34449e-12
2.88522e-12
1.24008e-12
3.63918e-13
4.86574e-14
2.86496e-16
7.76319e-16
1.31618e-13
9.84543e-13
3.37627e-12
7.96081e-12
1.50152e-11
2.44213e-11
3.57837e-11
4.85867e-11
6.23185e-11
7.65394e-11
9.09057e-11
1.05167e-10
1.1915e-10
1.32745e-10
1.45888e-10
1.58548e-10
1.70717e-10
1.82407e-10
1.93641e-10
2.04448e-10
2.14865e-10
2.24929e-10
2.34681e-10
2.44162e-10
2.53411e-10
2.62465e-10
2.7136e-10
2.8013e-10
2.88804e-10
2.9741e-10
3.05972e-10
3.14511e-10
3.23045e-10
3.31589e-10
3.40154e-10
3.4875e-10
3.57384e-10
3.6606e-10
3.74781e-10
3.83545e-10
3.9235e-10
4.01194e-10
4.10069e-10
4.18968e-10
4.27881e-10
4.36796e-10
4.45701e-10
4.54581e-10
4.63418e-10
4.72195e-10
4.8089e-10
4.89482e-10
4.97947e-10
5.06258e-10
5.14389e-10
5.2231e-10
5.2999e-10
5.37396e-10
5.44496e-10
5.51253e-10
5.57632e-10
5.63596e-10
5.69108e-10
5.7413e-10
5.78625e-10
5.82555e-10
5.85884e-10
5.88578e-10
5.90644e-10
5.91855e-10
5.92465e-10
5.92324e-10
5.91387e-10
5.89637e-10
5.8706e-10
5.83644e-10
5.79381e-10
5.74268e-10
5.68307e-10
5.61502e-10
5.53865e-10
5.45412e-10
5.36164e-10
5.26147e-10
5.15393e-10
5.03937e-10
4.91821e-10
4.7909e-10
4.65793e-10
4.51983e-10
4.37716e-10
4.23051e-10
4.08048e-10
3.9277e-10
3.7728e-10
3.61641e-10
3.45916e-10
3.30169e-10
3.14458e-10
2.98843e-10
2.8338e-10
2.68121e-10
2.53115e-10
2.38406e-10
2.24035e-10
2.10038e-10
1.96446e-10
1.83283e-10
1.7057e-10
1.58322e-10
1.4655e-10
1.35257e-10
1.24444e-10
1.14106e-10
1.04232e-10
9.48086e-11
8.58177e-11
7.72376e-11
6.90441e-11
6.12111e-11
5.37131e-11
4.65268e-11
3.96364e-11
3.3039e-11
2.67543e-11
2.08358e-11
1.53834e-11
1.05481e-11
6.51776e-12
3.46642e-12
1.46947e-12
4.26667e-13
5.66897e-14
3.33059e-16
9.01842e-16
1.5314e-13
1.15055e-12
3.97456e-12
9.46263e-12
1.80454e-11
2.96812e-11
4.39559e-11
6.02504e-11
7.79024e-11
9.63107e-11
1.14985e-10
1.33557e-10
1.51766e-10
1.69443e-10
1.86486e-10
2.02846e-10
2.18511e-10
2.33495e-10
2.47831e-10
2.61562e-10
2.74741e-10
2.87422e-10
2.99664e-10
3.11524e-10
3.23057e-10
3.34316e-10
3.45352e-10
3.56209e-10
3.66929e-10
3.77549e-10
3.88101e-10
3.98613e-10
4.0911e-10
4.19609e-10
4.30127e-10
4.40675e-10
4.51261e-10
4.6189e-10
4.72564e-10
4.83283e-10
4.94041e-10
5.04834e-10
5.15651e-10
5.26483e-10
5.37316e-10
5.48134e-10
5.5892e-10
5.69652e-10
5.8031e-10
5.90869e-10
6.01302e-10
6.1158e-10
6.21673e-10
6.31548e-10
6.41171e-10
6.50505e-10
6.59511e-10
6.6815e-10
6.76382e-10
6.84164e-10
6.91453e-10
6.98206e-10
7.0438e-10
7.09931e-10
7.14817e-10
7.18996e-10
7.22428e-10
7.25075e-10
7.26887e-10
7.27753e-10
7.27887e-10
7.27081e-10
7.25317e-10
7.22581e-10
7.18862e-10
7.1415e-10
7.08441e-10
7.01734e-10
6.94034e-10
6.85352e-10
6.75703e-10
6.65108e-10
6.53595e-10
6.41196e-10
6.27948e-10
6.13895e-10
5.99085e-10
5.83571e-10
5.67409e-10
5.50661e-10
5.33391e-10
5.15666e-10
4.97555e-10
4.7913e-10
4.60461e-10
4.41622e-10
4.22685e-10
4.03719e-10
3.84796e-10
3.6598e-10
3.47337e-10
3.28928e-10
3.10807e-10
2.93028e-10
2.75637e-10
2.58677e-10
2.42183e-10
2.26186e-10
2.10711e-10
1.95775e-10
1.81392e-10
1.67568e-10
1.54303e-10
1.41592e-10
1.29424e-10
1.17782e-10
1.06647e-10
9.59911e-11
8.57878e-11
7.60066e-11
6.6619e-11
5.7601e-11
4.89397e-11
4.06419e-11
3.2746e-11
2.53361e-11
1.85543e-11
1.26003e-11
7.70309e-12
4.05299e-12
1.70163e-12
4.905e-13
6.48969e-14
3.80722e-16
1.03489e-15
1.75938e-13
1.32607e-12
4.60557e-12
1.10435e-11
2.12338e-11
3.52239e-11
5.25929e-11
7.26242e-11
9.45004e-11
1.17446e-10
1.40806e-10
1.64076e-10
1.86891e-10
2.0901e-10
2.30288e-10
2.50653e-10
2.70087e-10
2.88606e-10
3.06255e-10
3.23094e-10
3.39194e-10
3.54631e-10
3.69484e-10
3.83828e-10
3.97739e-10
4.11286e-10
4.24535e-10
4.37546e-10
4.50373e-10
4.63062e-10
4.75655e-10
4.88186e-10
5.00686e-10
5.13177e-10
5.25678e-10
5.38203e-10
5.50761e-10
5.63355e-10
5.75988e-10
5.88656e-10
6.01353e-10
6.1407e-10
6.26795e-10
6.39511e-10
6.52203e-10
6.64847e-10
6.77422e-10
6.89902e-10
7.02257e-10
7.14458e-10
7.26471e-10
7.38261e-10
7.4979e-10
7.61019e-10
7.71906e-10
7.82407e-10
7.92478e-10
8.02074e-10
8.11146e-10
8.19647e-10
8.27529e-10
8.34745e-10
8.41245e-10
8.46985e-10
8.51917e-10
8.55999e-10
8.59188e-10
8.61448e-10
8.62644e-10
8.62856e-10
8.62221e-10
8.60443e-10
8.57563e-10
8.53571e-10
8.48459e-10
8.42222e-10
8.3486e-10
8.26376e-10
8.16781e-10
8.06089e-10
7.94321e-10
7.81505e-10
7.67671e-10
7.52859e-10
7.37112e-10
7.2048e-10
7.03016e-10
6.8478e-10
6.65835e-10
6.46248e-10
6.26091e-10
6.05436e-10
5.84359e-10
5.6294e-10
5.41255e-10
5.19385e-10
4.97408e-10
4.75401e-10
4.53442e-10
4.31603e-10
4.09955e-10
3.88565e-10
3.67496e-10
3.46805e-10
3.26545e-10
3.06763e-10
2.875e-10
2.68791e-10
2.50663e-10
2.33137e-10
2.1623e-10
1.99947e-10
1.84292e-10
1.69257e-10
1.54831e-10
1.40995e-10
1.27727e-10
1.14998e-10
1.02776e-10
9.10282e-11
7.97245e-11
6.88419e-11
5.83731e-11
4.83374e-11
3.8796e-11
2.98671e-11
2.17377e-11
1.46561e-11
8.89022e-12
4.64169e-12
1.93567e-12
5.55191e-13
7.32471e-14
4.2929e-16
1.17568e-15
2.00055e-13
1.51155e-12
5.27113e-12
1.27078e-11
2.45868e-11
4.10524e-11
6.16829e-11
8.56667e-11
1.12026e-10
1.398e-10
1.68156e-10
1.96436e-10
2.2416e-10
2.51008e-10
2.76783e-10
3.01388e-10
3.24795e-10
3.47028e-10
3.68144e-10
3.88222e-10
4.07355e-10
4.25642e-10
4.43183e-10
4.60079e-10
4.76423e-10
4.92306e-10
5.0781e-10
5.23009e-10
5.3797e-10
5.5275e-10
5.67401e-10
5.81963e-10
5.96472e-10
6.10954e-10
6.25431e-10
6.39916e-10
6.5442e-10
6.68945e-10
6.83491e-10
6.98052e-10
7.12619e-10
7.27178e-10
7.41713e-10
7.56203e-10
7.70625e-10
7.84952e-10
7.99156e-10
8.13203e-10
8.2706e-10
8.40688e-10
8.54049e-10
8.671e-10
8.79797e-10
8.92094e-10
9.03944e-10
9.15297e-10
9.26104e-10
9.36313e-10
9.45874e-10
9.54734e-10
9.62842e-10
9.70148e-10
9.76602e-10
9.82157e-10
9.86766e-10
9.90386e-10
9.92976e-10
9.94499e-10
9.94755e-10
9.93978e-10
9.9231e-10
9.89282e-10
9.85028e-10
9.79546e-10
9.72833e-10
9.6489e-10
9.5572e-10
9.45333e-10
9.33744e-10
9.20972e-10
9.07043e-10
8.91988e-10
8.75846e-10
8.58658e-10
8.40475e-10
8.21348e-10
8.01338e-10
7.80508e-10
7.58926e-10
7.36664e-10
7.13797e-10
6.90404e-10
6.66565e-10
6.42364e-10
6.17884e-10
5.93208e-10
5.68422e-10
5.43607e-10
5.18845e-10
4.94215e-10
4.69791e-10
4.45647e-10
4.2185e-10
3.98461e-10
3.75539e-10
3.53134e-10
3.3129e-10
3.10047e-10
2.89434e-10
2.69475e-10
2.50188e-10
2.3158e-10
2.13653e-10
1.96402e-10
1.79813e-10
1.63867e-10
1.48537e-10
1.33793e-10
1.196e-10
1.05923e-10
9.27314e-11
8.00046e-11
6.77427e-11
5.59798e-11
4.48018e-11
3.43632e-11
2.48966e-11
1.66982e-11
1.00724e-11
5.23034e-12
2.17097e-12
6.20567e-13
8.17159e-14
4.78615e-16
1.32446e-15
2.25536e-13
1.70739e-12
5.97306e-12
1.44605e-11
2.81133e-11
4.71775e-11
7.12314e-11
9.93678e-11
1.30441e-10
1.63295e-10
1.96906e-10
2.30452e-10
2.6333e-10
2.9513e-10
3.25603e-10
3.54624e-10
3.82156e-10
4.08231e-10
4.3292e-10
4.56324e-10
4.78561e-10
4.99754e-10
5.20029e-10
5.39511e-10
5.58316e-10
5.76553e-10
5.94323e-10
6.11716e-10
6.28811e-10
6.45677e-10
6.62373e-10
6.78946e-10
6.95437e-10
7.11874e-10
7.28282e-10
7.44674e-10
7.61058e-10
7.77436e-10
7.93805e-10
8.10154e-10
8.26471e-10
8.42737e-10
8.58931e-10
8.75026e-10
8.90993e-10
9.06799e-10
9.2241e-10
9.37786e-10
9.52887e-10
9.67668e-10
9.82084e-10
9.96088e-10
1.00963e-09
1.02266e-09
1.03512e-09
1.04696e-09
1.05813e-09
1.06858e-09
1.07824e-09
1.08707e-09
1.09502e-09
1.10203e-09
1.10806e-09
1.11306e-09
1.11698e-09
1.11979e-09
1.12144e-09
1.1219e-09
1.12091e-09
1.11888e-09
1.1159e-09
1.11142e-09
1.10558e-09
1.09843e-09
1.08996e-09
1.08019e-09
1.06912e-09
1.05676e-09
1.04314e-09
1.02828e-09
1.01221e-09
9.94961e-10
9.7658e-10
9.57112e-10
9.36609e-10
9.15127e-10
8.92729e-10
8.69482e-10
8.45455e-10
8.20725e-10
7.95369e-10
7.69469e-10
7.43108e-10
7.16372e-10
6.89348e-10
6.62123e-10
6.34785e-10
6.07421e-10
5.80114e-10
5.52948e-10
5.26003e-10
4.99353e-10
4.7307e-10
4.47221e-10
4.21867e-10
3.97061e-10
3.72851e-10
3.49278e-10
3.26375e-10
3.04169e-10
2.82676e-10
2.61907e-10
2.41862e-10
2.22537e-10
2.03916e-10
1.85978e-10
1.68696e-10
1.52034e-10
1.35958e-10
1.2043e-10
1.05419e-10
9.0909e-11
7.69073e-11
6.34642e-11
5.06913e-11
3.87795e-11
2.80064e-11
1.87149e-11
1.12452e-11
5.81753e-12
2.40708e-12
6.8651e-13
9.02867e-14
5.28597e-16
1.48149e-15
2.52429e-13
1.91403e-12
6.71314e-12
1.63065e-11
3.18229e-11
5.36132e-11
8.12534e-11
1.13736e-10
1.49739e-10
1.87898e-10
2.26988e-10
2.66016e-10
3.04245e-10
3.41175e-10
3.76499e-10
4.10065e-10
4.4183e-10
4.71833e-10
5.00164e-10
5.26947e-10
5.52326e-10
5.76452e-10
5.99478e-10
6.21553e-10
6.42818e-10
6.63403e-10
6.83427e-10
7.02994e-10
7.22197e-10
7.41115e-10
7.59815e-10
7.7835e-10
7.96764e-10
8.15088e-10
8.33347e-10
8.51553e-10
8.69712e-10
8.87825e-10
9.05882e-10
9.2387e-10
9.41772e-10
9.59563e-10
9.77215e-10
9.94698e-10
1.01197e-09
1.02901e-09
1.04575e-09
1.06217e-09
1.07821e-09
1.09382e-09
1.10896e-09
1.12357e-09
1.13759e-09
1.15098e-09
1.16368e-09
1.17562e-09
1.18677e-09
1.19706e-09
1.20643e-09
1.21485e-09
1.22225e-09
1.22859e-09
1.23383e-09
1.23792e-09
1.24082e-09
1.24249e-09
1.24291e-09
1.24201e-09
1.23952e-09
1.23609e-09
1.23148e-09
1.22545e-09
1.21787e-09
1.20891e-09
1.1986e-09
1.18694e-09
1.17393e-09
1.1596e-09
1.14397e-09
1.12706e-09
1.10892e-09
1.08958e-09
1.06908e-09
1.04748e-09
1.02481e-09
1.00116e-09
9.76569e-10
9.51116e-10
9.24871e-10
8.97908e-10
8.70309e-10
8.42154e-10
8.1353e-10
7.84523e-10
7.55221e-10
7.25715e-10
6.96093e-10
6.66445e-10
6.36858e-10
6.07417e-10
5.78205e-10
5.49301e-10
5.20779e-10
4.92708e-10
4.65153e-10
4.38171e-10
4.11811e-10
3.86118e-10
3.61127e-10
3.36865e-10
3.1335e-10
2.90594e-10
2.68598e-10
2.47355e-10
2.2685e-10
2.07059e-10
1.87953e-10
1.69495e-10
1.51648e-10
1.34372e-10
1.17638e-10
1.01432e-10
8.57709e-11
7.07202e-11
5.64166e-11
4.30866e-11
3.10516e-11
2.06997e-11
1.24062e-11
6.40253e-12
2.64379e-12
7.52956e-13
9.89504e-14
5.7918e-16
1.64703e-15
2.80782e-13
2.13188e-12
7.49308e-12
1.82504e-11
3.57252e-11
6.03748e-11
9.17683e-11
1.28791e-10
1.6993e-10
2.13604e-10
2.58375e-10
3.0307e-10
3.46815e-10
3.89015e-10
4.29308e-10
4.67513e-10
5.03585e-10
5.37571e-10
5.69581e-10
5.99767e-10
6.28299e-10
6.55358e-10
6.81126e-10
7.05779e-10
7.29481e-10
7.52383e-10
7.74622e-10
7.96319e-10
8.17578e-10
8.38488e-10
8.59122e-10
8.79541e-10
8.99788e-10
9.19898e-10
9.39893e-10
9.59785e-10
9.79578e-10
9.99266e-10
1.01884e-09
1.03828e-09
1.05755e-09
1.07665e-09
1.09551e-09
1.11412e-09
1.13243e-09
1.1504e-09
1.16797e-09
1.18511e-09
1.20175e-09
1.21784e-09
1.23334e-09
1.24818e-09
1.2623e-09
1.27566e-09
1.2882e-09
1.29986e-09
1.31059e-09
1.32034e-09
1.32905e-09
1.33667e-09
1.34317e-09
1.34849e-09
1.35261e-09
1.35547e-09
1.35706e-09
1.35733e-09
1.35628e-09
1.35372e-09
1.34963e-09
1.3446e-09
1.3382e-09
1.33049e-09
1.32109e-09
1.31028e-09
1.29809e-09
1.28453e-09
1.2696e-09
1.25335e-09
1.23578e-09
1.21693e-09
1.19684e-09
1.17555e-09
1.15309e-09
1.12953e-09
1.1049e-09
1.07928e-09
1.05273e-09
1.02531e-09
9.97085e-10
9.68144e-10
9.3856e-10
9.08416e-10
8.77795e-10
8.46785e-10
8.15475e-10
7.83955e-10
7.52315e-10
7.20646e-10
6.89036e-10
6.57573e-10
6.26342e-10
5.95425e-10
5.64898e-10
5.34834e-10
5.053e-10
4.76355e-10
4.48053e-10
4.2044e-10
3.93552e-10
3.67419e-10
3.4206e-10
3.17488e-10
2.93704e-10
2.707e-10
2.48461e-10
2.26961e-10
2.06168e-10
1.86044e-10
1.66549e-10
1.47644e-10
1.29297e-10
1.11499e-10
9.42752e-11
7.77052e-11
6.19496e-11
4.72681e-11
3.40239e-11
2.2649e-11
1.35543e-11
6.98516e-12
2.88106e-12
8.19898e-13
1.07706e-13
6.30356e-16
1.82132e-15
3.10638e-13
2.36132e-12
8.31446e-12
2.02966e-11
3.98292e-11
6.74772e-11
1.02797e-10
1.44554e-10
1.91034e-10
2.40424e-10
2.91061e-10
3.41589e-10
3.9099e-10
4.38575e-10
4.83926e-10
5.26838e-10
5.67262e-10
6.05259e-10
6.40961e-10
6.74548e-10
7.0622e-10
7.36191e-10
7.64671e-10
7.91862e-10
8.17954e-10
8.4312e-10
8.67514e-10
8.91271e-10
9.14508e-10
9.37323e-10
9.59795e-10
9.81988e-10
1.00395e-09
1.02571e-09
1.04729e-09
1.06871e-09
1.08996e-09
1.11103e-09
1.1319e-09
1.15256e-09
1.17297e-09
1.1931e-09
1.21291e-09
1.23236e-09
1.25139e-09
1.26996e-09
1.28803e-09
1.30553e-09
1.32241e-09
1.33861e-09
1.35409e-09
1.36878e-09
1.38262e-09
1.39557e-09
1.40757e-09
1.41856e-09
1.4285e-09
1.43734e-09
1.44503e-09
1.45152e-09
1.45679e-09
1.4608e-09
1.4635e-09
1.46488e-09
1.4649e-09
1.46355e-09
1.46082e-09
1.45642e-09
1.45071e-09
1.44391e-09
1.43563e-09
1.42609e-09
1.41494e-09
1.40226e-09
1.38821e-09
1.37279e-09
1.35602e-09
1.33794e-09
1.31855e-09
1.2979e-09
1.27601e-09
1.25294e-09
1.22872e-09
1.2034e-09
1.17704e-09
1.14969e-09
1.12141e-09
1.09226e-09
1.06233e-09
1.03167e-09
1.00036e-09
9.68495e-10
9.36145e-10
9.03399e-10
8.70344e-10
8.37071e-10
8.0367e-10
7.7023e-10
7.36843e-10
7.03598e-10
6.70581e-10
6.37875e-10
6.05562e-10
5.73715e-10
5.42404e-10
5.11693e-10
4.81637e-10
4.52284e-10
4.23675e-10
3.95841e-10
3.68802e-10
3.42572e-10
3.17152e-10
2.92535e-10
2.68704e-10
2.45632e-10
2.23287e-10
2.01627e-10
1.8061e-10
1.60195e-10
1.40353e-10
1.21074e-10
1.02392e-10
8.43991e-11
6.72774e-11
5.13171e-11
3.69207e-11
2.45626e-11
1.46899e-11
7.56578e-12
3.11908e-12
8.87383e-13
1.16558e-13
6.82154e-16
2.00459e-15
3.4204e-13
2.6027e-12
9.17872e-12
2.2449e-11
4.41433e-11
7.49344e-11
1.14358e-10
1.61049e-10
2.13075e-10
2.68374e-10
3.25055e-10
3.81564e-10
4.36744e-10
4.89809e-10
5.40287e-10
5.8795e-10
6.3275e-10
6.74763e-10
7.14149e-10
7.51114e-10
7.85894e-10
8.18733e-10
8.49872e-10
8.79541e-10
9.07955e-10
9.35307e-10
9.6177e-10
9.87494e-10
1.01261e-09
1.03721e-09
1.0614e-09
1.08522e-09
1.10875e-09
1.132e-09
1.15499e-09
1.17773e-09
1.20023e-09
1.22245e-09
1.24439e-09
1.26601e-09
1.28728e-09
1.30816e-09
1.3286e-09
1.34856e-09
1.36798e-09
1.38682e-09
1.40502e-09
1.42252e-09
1.43927e-09
1.45521e-09
1.47029e-09
1.48445e-09
1.49764e-09
1.5098e-09
1.52089e-09
1.53086e-09
1.53967e-09
1.54727e-09
1.55362e-09
1.55869e-09
1.56245e-09
1.56488e-09
1.56594e-09
1.56562e-09
1.5639e-09
1.56077e-09
1.55619e-09
1.54986e-09
1.54251e-09
1.53384e-09
1.52369e-09
1.51224e-09
1.49939e-09
1.4849e-09
1.46905e-09
1.45187e-09
1.43338e-09
1.41359e-09
1.39254e-09
1.37025e-09
1.34676e-09
1.32211e-09
1.29634e-09
1.26949e-09
1.24162e-09
1.21278e-09
1.18302e-09
1.15241e-09
1.12102e-09
1.0889e-09
1.05614e-09
1.02282e-09
9.88997e-10
9.54772e-10
9.20227e-10
8.8545e-10
8.5053e-10
8.15557e-10
7.80623e-10
7.45817e-10
7.11227e-10
6.76939e-10
6.43036e-10
6.09596e-10
5.76691e-10
5.44387e-10
5.12744e-10
4.81814e-10
4.51638e-10
4.2225e-10
3.93675e-10
3.65926e-10
3.39006e-10
3.12908e-10
2.87614e-10
2.63098e-10
2.39324e-10
2.16249e-10
1.9383e-10
1.72024e-10
1.508e-10
1.30152e-10
1.10117e-10
9.07992e-11
7.23992e-11
5.52346e-11
3.97437e-11
2.64423e-11
1.58145e-11
8.14523e-12
3.3582e-12
9.55513e-13
1.2552e-13
7.34649e-16
2.19707e-15
3.75024e-13
2.85636e-12
1.00871e-11
2.47113e-11
4.86747e-11
8.27587e-11
1.26469e-10
1.78296e-10
2.36072e-10
2.97473e-10
3.60365e-10
4.22995e-10
4.84062e-10
5.42684e-10
5.98339e-10
6.5078e-10
6.99962e-10
7.4598e-10
7.89019e-10
8.29322e-10
8.67156e-10
9.02799e-10
9.36524e-10
9.68589e-10
9.99234e-10
1.02867e-09
1.0571e-09
1.08467e-09
1.11153e-09
1.13778e-09
1.16353e-09
1.18883e-09
1.21373e-09
1.23827e-09
1.26246e-09
1.28631e-09