/*--------------------------------*- C++ -*----------------------------------*\
  =========                 |
  \\      /  F ield         | OpenFOAM: The Open Source CFD Toolbox
   \\    /   O peration     | Website:  https://openfoam.org
    \\  /    A nd           | Version:  12
     \\/     M anipulation  |
\*---------------------------------------------------------------------------*/
FoamFile
{
    format      ascii;
    class       volVectorField;
    location    "10";
    object      U;
}
// * * * * * * * * * * * * * * * * * * * * * * * * * * * * * * * * * * * * * //

dimensions      [0 1 -1 0 0 0 0];

internalField   nonuniform List<vector> 
18225
(
(2.49202e-07 -2.49239e-07 0)
(1.14539e-05 -3.57876e-06 0)
(3.45335e-05 -6.01784e-06 0)
(6.49506e-05 -7.08341e-06 0)
(9.75233e-05 -7.23243e-06 0)
(0.000128636 -6.78768e-06 0)
(0.000155856 -5.97438e-06 0)
(0.000177559 -4.95084e-06 0)
(0.000192726 -3.82292e-06 0)
(0.00020077 -2.65912e-06 0)
(0.000201421 -1.50305e-06 0)
(0.00019462 -3.81365e-07 0)
(0.000180455 6.90951e-07 0)
(0.000159105 1.70644e-06 0)
(0.000130803 2.6635e-06 0)
(9.58052e-05 3.56463e-06 0)
(5.43718e-05 4.41327e-06 0)
(6.75042e-06 5.21529e-06 0)
(-4.68318e-05 5.97726e-06 0)
(-0.000106177 6.70719e-06 0)
(-0.000171118 7.41244e-06 0)
(-0.000241519 8.0997e-06 0)
(-0.00031727 8.77464e-06 0)
(-0.000398291 9.44268e-06 0)
(-0.000484524 1.01084e-05 0)
(-0.000575931 1.07756e-05 0)
(-0.000672487 1.14471e-05 0)
(-0.000774175 1.21247e-05 0)
(-0.000880984 1.28095e-05 0)
(-0.0009929 1.35016e-05 0)
(-0.0011099 1.42006e-05 0)
(-0.00123196 1.4905e-05 0)
(-0.00135902 1.56129e-05 0)
(-0.00149103 1.63215e-05 0)
(-0.00162788 1.70277e-05 0)
(-0.00176947 1.77276e-05 0)
(-0.00191565 1.8417e-05 0)
(-0.00206622 1.90911e-05 0)
(-0.00222099 1.97448e-05 0)
(-0.00237968 2.03725e-05 0)
(-0.00254201 2.09684e-05 0)
(-0.00270764 2.15262e-05 0)
(-0.00287619 2.20396e-05 0)
(-0.00304723 2.25017e-05 0)
(-0.00322031 2.29058e-05 0)
(-0.00339489 2.32449e-05 0)
(-0.00357044 2.35118e-05 0)
(-0.00374634 2.36995e-05 0)
(-0.00392195 2.38008e-05 0)
(-0.0040966 2.38088e-05 0)
(-0.00426954 2.37166e-05 0)
(-0.00444003 2.35178e-05 0)
(-0.00460727 2.3206e-05 0)
(-0.00477043 2.27756e-05 0)
(-0.00492866 2.22213e-05 0)
(-0.00508109 2.15385e-05 0)
(-0.00522682 2.07232e-05 0)
(-0.00536496 1.97724e-05 0)
(-0.00549461 1.86839e-05 0)
(-0.00561485 1.74567e-05 0)
(-0.0057248 1.60906e-05 0)
(-0.00582357 1.45868e-05 0)
(-0.00591032 1.29478e-05 0)
(-0.00598422 1.11775e-05 0)
(-0.00604449 9.28064e-06 0)
(-0.00609039 7.26038e-06 0)
(-0.00612128 5.12545e-06 0)
(-0.00613647 2.909e-06 0)
(-0.00613557 5.78046e-07 0)
(-0.00611801 -1.81955e-06 0)
(-0.00608347 -4.2844e-06 0)
(-0.00603168 -6.79899e-06 0)
(-0.0059625 -9.34644e-06 0)
(-0.00587586 -1.19093e-05 0)
(-0.00577184 -1.44688e-05 0)
(-0.00565063 -1.70058e-05 0)
(-0.00551253 -1.95001e-05 0)
(-0.00535798 -2.19313e-05 0)
(-0.00518753 -2.42788e-05 0)
(-0.00500187 -2.65221e-05 0)
(-0.0048018 -2.86408e-05 0)
(-0.00458825 -3.06154e-05 0)
(-0.00436225 -3.24271e-05 0)
(-0.00412495 -3.40582e-05 0)
(-0.00387758 -3.54925e-05 0)
(-0.00362149 -3.67154e-05 0)
(-0.00335808 -3.77143e-05 0)
(-0.00308884 -3.84786e-05 0)
(-0.00281529 -3.9e-05 0)
(-0.00253901 -3.92727e-05 0)
(-0.00226161 -3.92937e-05 0)
(-0.0019847 -3.90624e-05 0)
(-0.00170988 -3.8581e-05 0)
(-0.00143874 -3.78545e-05 0)
(-0.00117284 -3.68905e-05 0)
(-0.000913678 -3.5699e-05 0)
(-0.000662688 -3.42926e-05 0)
(-0.000421231 -3.2686e-05 0)
(-0.000190574 -3.0896e-05 0)
(2.81191e-05 -2.89411e-05 0)
(0.000233795 -2.68412e-05 0)
(0.000425523 -2.46173e-05 0)
(0.0006025 -2.22919e-05 0)
(0.000764047 -1.98825e-05 0)
(0.000909626 -1.74147e-05 0)
(0.00103884 -1.49124e-05 0)
(0.00115142 -1.23949e-05 0)
(0.00124723 -9.88261e-06 0)
(0.00132627 -7.39492e-06 0)
(0.00138865 -4.94988e-06 0)
(0.00143461 -2.56399e-06 0)
(0.0014645 -2.52301e-07 0)
(0.00147876 1.97181e-06 0)
(0.00147793 4.09583e-06 0)
(0.00146267 6.11038e-06 0)
(0.00143366 8.00845e-06 0)
(0.00139171 9.77937e-06 0)
(0.00133768 1.1416e-05 0)
(0.00127251 1.29107e-05 0)
(0.00119721 1.42552e-05 0)
(0.00111288 1.54393e-05 0)
(0.00102071 1.645e-05 0)
(0.000922 1.72698e-05 0)
(0.000818182 1.78748e-05 0)
(0.000710864 1.82328e-05 0)
(0.000601855 1.82995e-05 0)
(0.000493226 1.80153e-05 0)
(0.00038736 1.73003e-05 0)
(0.000287024 1.60495e-05 0)
(0.000195421 1.41301e-05 0)
(0.000116215 1.13886e-05 0)
(5.34611e-05 7.6694e-06 0)
(1.12024e-05 2.88752e-06 0)
(-7.92042e-06 -2.47559e-06 0)
(-5.59464e-06 -5.5958e-06 0)
(3.61232e-06 -1.14774e-05 0)
(3.61255e-05 -3.59896e-05 0)
(9.0667e-05 -5.32747e-05 0)
(0.000158259 -6.12534e-05 0)
(0.000228607 -6.15338e-05 0)
(0.000294101 -5.6137e-05 0)
(0.000349167 -4.67786e-05 0)
(0.000389802 -3.47942e-05 0)
(0.000413286 -2.11862e-05 0)
(0.000417908 -6.68588e-06 0)
(0.000402722 8.18333e-06 0)
(0.000367333 2.30646e-05 0)
(0.000311752 3.77135e-05 0)
(0.000236257 5.19786e-05 0)
(0.000141298 6.57765e-05 0)
(2.74202e-05 7.90741e-05 0)
(-0.000104797 9.18786e-05 0)
(-0.000254779 0.00010422 0)
(-0.000421987 0.000116146 0)
(-0.000605927 0.000127708 0)
(-0.000806167 0.000138966 0)
(-0.00102234 0.000149977 0)
(-0.00125415 0.000160796 0)
(-0.00150135 0.000171472 0)
(-0.00176375 0.000182047 0)
(-0.00204121 0.000192551 0)
(-0.0023336 0.000203006 0)
(-0.00264082 0.000213424 0)
(-0.00296275 0.000223806 0)
(-0.00329929 0.000234143 0)
(-0.0036503 0.000244418 0)
(-0.00401559 0.000254602 0)
(-0.00439494 0.000264659 0)
(-0.00478807 0.000274545 0)
(-0.00519462 0.000284208 0)
(-0.00561417 0.00029359 0)
(-0.00604618 0.000302626 0)
(-0.00649005 0.000311246 0)
(-0.00694506 0.000319376 0)
(-0.00741037 0.000326937 0)
(-0.00788507 0.000333846 0)
(-0.00836809 0.000340017 0)
(-0.00885826 0.000345365 0)
(-0.0093543 0.000349799 0)
(-0.0098548 0.000353231 0)
(-0.0103582 0.000355571 0)
(-0.0108629 0.00035673 0)
(-0.0113672 0.000356623 0)
(-0.011869 0.000355165 0)
(-0.0123665 0.000352276 0)
(-0.0128577 0.000347881 0)
(-0.0133402 0.000341909 0)
(-0.0138119 0.000334298 0)
(-0.0142705 0.000324991 0)
(-0.0147135 0.000313943 0)
(-0.0151385 0.000301117 0)
(-0.0155432 0.000286487 0)
(-0.015925 0.00027004 0)
(-0.0162814 0.000251774 0)
(-0.01661 0.000231703 0)
(-0.0169085 0.000209854 0)
(-0.0171744 0.000186272 0)
(-0.0174056 0.000161014 0)
(-0.0175998 0.000134155 0)
(-0.017755 0.000105786 0)
(-0.0178693 7.60042e-05 0)
(-0.0179412 4.49168e-05 0)
(-0.0179688 1.28613e-05 0)
(-0.0179511 -2.03133e-05 0)
(-0.0178869 -5.42546e-05 0)
(-0.0177754 -8.8798e-05 0)
(-0.017616 -0.000123744 0)
(-0.0174084 -0.000158879 0)
(-0.0171527 -0.000193976 0)
(-0.0168491 -0.000228801 0)
(-0.0164983 -0.000263113 0)
(-0.0161012 -0.000296664 0)
(-0.0156592 -0.000329205 0)
(-0.0151738 -0.000360489 0)
(-0.014647 -0.00039027 0)
(-0.0140809 -0.000418308 0)
(-0.0134783 -0.000444371 0)
(-0.0128419 -0.000468241 0)
(-0.0121748 -0.000489711 0)
(-0.0114804 -0.000508594 0)
(-0.0107623 -0.000524721 0)
(-0.0100243 -0.000537947 0)
(-0.00927036 -0.00054815 0)
(-0.00850465 -0.000555234 0)
(-0.00773136 -0.000559135 0)
(-0.00695477 -0.000559813 0)
(-0.0061792 -0.000557263 0)
(-0.00540896 -0.000551509 0)
(-0.0046483 -0.000542605 0)
(-0.0039014 -0.000530637 0)
(-0.00317228 -0.00051572 0)
(-0.00246484 -0.000497995 0)
(-0.00178275 -0.000477632 0)
(-0.00112945 -0.000454823 0)
(-0.000508132 -0.000429783 0)
(7.83035e-05 -0.000402741 0)
(0.00062727 -0.000373945 0)
(0.0011365 -0.00034365 0)
(0.00160409 -0.000312128 0)
(0.00202846 -0.000279648 0)
(0.0024084 -0.000246478 0)
(0.00274307 -0.000212887 0)
(0.00303195 -0.000179137 0)
(0.0032749 -0.000145482 0)
(0.00347211 -0.000112166 0)
(0.00362408 -7.94183e-05 0)
(0.00373163 -4.74557e-05 0)
(0.00379588 -1.64791e-05 0)
(0.0038182 1.33268e-05 0)
(0.00380026 4.17729e-05 0)
(0.00374393 6.8723e-05 0)
(0.00365133 9.40105e-05 0)
(0.00352483 0.000117479 0)
(0.003367 0.000138976 0)
(0.00318066 0.00015834 0)
(0.00296886 0.000175389 0)
(0.00273496 0.000189915 0)
(0.00248261 0.000201669 0)
(0.00221582 0.000210347 0)
(0.00193904 0.000215579 0)
(0.00165724 0.000216911 0)
(0.00137595 0.000213787 0)
(0.00110139 0.000205549 0)
(0.000840522 0.000191441 0)
(0.000601061 0.000170664 0)
(0.000391345 0.000142534 0)
(0.000219936 0.000106849 0)
(9.4769e-05 6.47636e-05 0)
(2.13366e-05 2.13024e-05 0)
(-2.47345e-06 -7.9235e-06 0)
(6.12236e-06 -3.47399e-05 0)
(5.37555e-05 -9.06669e-05 0)
(0.000127086 -0.000126511 0)
(0.00021393 -0.000141705 0)
(0.000301059 -0.000139582 0)
(0.000378741 -0.000124132 0)
(0.000439576 -9.89529e-05 0)
(0.00047802 -6.70163e-05 0)
(0.000490131 -3.06654e-05 0)
(0.00047329 8.31341e-06 0)
(0.000425928 4.8591e-05 0)
(0.000347276 8.92074e-05 0)
(0.000237149 0.000129497 0)
(9.57787e-05 0.000169023 0)
(-7.63312e-05 0.000207526 0)
(-0.00027851 0.000244881 0)
(-0.000509997 0.000281058 0)
(-0.000770013 0.000316098 0)
(-0.0010578 0.000350087 0)
(-0.00137266 0.000383143 0)
(-0.00171397 0.000415398 0)
(-0.00208118 0.000446986 0)
(-0.00247383 0.000478033 0)
(-0.00289152 0.000508651 0)
(-0.00333392 0.000538934 0)
(-0.00380075 0.000568951 0)
(-0.00429176 0.000598747 0)
(-0.00480669 0.000628341 0)
(-0.00534531 0.000657724 0)
(-0.00590733 0.000686861 0)
(-0.00649243 0.000715694 0)
(-0.00710021 0.000744136 0)
(-0.00773021 0.00077208 0)
(-0.00838184 0.000799397 0)
(-0.00905442 0.000825938 0)
(-0.00974712 0.000851537 0)
(-0.010459 0.00087601 0)
(-0.0111889 0.000899161 0)
(-0.0119356 0.00092078 0)
(-0.0126977 0.000940648 0)
(-0.0134734 0.000958536 0)
(-0.0142611 0.000974211 0)
(-0.0150587 0.000987433 0)
(-0.0158641 0.00099796 0)
(-0.0166749 0.00100555 0)
(-0.0174885 0.00100997 0)
(-0.0183023 0.00101097 0)
(-0.0191134 0.00100834 0)
(-0.0199187 0.00100185 0)
(-0.020715 0.0009913 0)
(-0.021499 0.000976491 0)
(-0.0222673 0.000957252 0)
(-0.0230162 0.000933427 0)
(-0.023742 0.000904886 0)
(-0.0244411 0.000871523 0)
(-0.0251096 0.00083326 0)
(-0.0257438 0.000790052 0)
(-0.0263397 0.000741885 0)
(-0.0268937 0.000688783 0)
(-0.0274019 0.000630805 0)
(-0.0278607 0.000568054 0)
(-0.0282667 0.00050067 0)
(-0.0286163 0.000428839 0)
(-0.0289064 0.000352786 0)
(-0.029134 0.000272782 0)
(-0.0292963 0.000189136 0)
(-0.0293909 0.000102205 0)
(-0.0294155 1.24503e-05 0)
(-0.0293683 -7.97489e-05 0)
(-0.0292479 -0.000173908 0)
(-0.0290531 -0.000269498 0)
(-0.0287833 -0.000365965 0)
(-0.0284382 -0.000462727 0)
(-0.0280179 -0.000559177 0)
(-0.0275233 -0.000654688 0)
(-0.0269553 -0.000748616 0)
(-0.0263156 -0.000840309 0)
(-0.0256064 -0.000929109 0)
(-0.0248302 -0.00101436 0)
(-0.02399 -0.00109543 0)
(-0.0230895 -0.00117167 0)
(-0.0221325 -0.0012425 0)
(-0.0211235 -0.00130734 0)
(-0.0200673 -0.00136564 0)
(-0.018969 -0.00141694 0)
(-0.0178342 -0.00146079 0)
(-0.0166687 -0.0014968 0)
(-0.0154786 -0.00152468 0)
(-0.01427 -0.00154417 0)
(-0.0130495 -0.00155509 0)
(-0.0118235 -0.00155735 0)
(-0.0105986 -0.00155094 0)
(-0.00938133 -0.0015359 0)
(-0.00817819 -0.00151239 0)
(-0.00699552 -0.00148061 0)
(-0.00583951 -0.00144087 0)
(-0.00471607 -0.00139352 0)
(-0.00363088 -0.00133901 0)
(-0.00258924 -0.00127783 0)
(-0.00159609 -0.00121053 0)
(-0.000655945 -0.00113772 0)
(0.000227125 -0.00106005 0)
(0.00104954 -0.000978175 0)
(0.00180823 -0.000892812 0)
(0.00250063 -0.000804671 0)
(0.00312474 -0.00071447 0)
(0.00367906 -0.000622927 0)
(0.00416266 -0.000530749 0)
(0.00457512 -0.000438625 0)
(0.00491655 -0.000347217 0)
(0.00518756 -0.000257162 0)
(0.00538925 -0.000169063 0)
(0.00552317 -8.34884e-05 0)
(0.00559133 -9.75944e-07 0)
(0.00559616 7.79718e-05 0)
(0.00554048 0.000152883 0)
(0.00542753 0.000223293 0)
(0.0052609 0.000288746 0)
(0.00504457 0.000348781 0)
(0.00478293 0.000402916 0)
(0.00448075 0.000450628 0)
(0.00414326 0.000491326 0)
(0.00377617 0.000524332 0)
(0.00338574 0.000548847 0)
(0.00297885 0.000563929 0)
(0.00256306 0.000568469 0)
(0.00214671 0.000561179 0)
(0.00173899 0.000540607 0)
(0.00134991 0.000505206 0)
(0.000990253 0.000453513 0)
(0.000671284 0.000384542 0)
(0.000404144 0.000298576 0)
(0.000199087 0.000198759 0)
(6.49549e-05 9.47816e-05 0)
(2.90606e-06 1.12409e-05 0)
(7.28257e-06 -6.55688e-05 0)
(6.20668e-05 -0.000158666 0)
(0.00014262 -0.000213483 0)
(0.000234123 -0.000233471 0)
(0.000321336 -0.000224565 0)
(0.000393277 -0.000193051 0)
(0.000441526 -0.00014465 0)
(0.000459643 -8.42044e-05 0)
(0.000442925 -1.56361e-05 0)
(0.000388149 5.7976e-05 0)
(0.000293289 0.000134284 0)
(0.000157248 0.000211556 0)
(-2.03556e-05 0.000288556 0)
(-0.00023939 0.000364444 0)
(-0.000499361 0.000438698 0)
(-0.000799552 0.000511034 0)
(-0.00113912 0.000581354 0)
(-0.00151717 0.000649691 0)
(-0.00193283 0.000716169 0)
(-0.00238524 0.000780968 0)
(-0.00287366 0.0008443 0)
(-0.00339738 0.000906379 0)
(-0.0039558 0.000967414 0)
(-0.0045484 0.00102759 0)
(-0.00517468 0.00108704 0)
(-0.00583423 0.00114589 0)
(-0.00652664 0.0012042 0)
(-0.00725148 0.00126198 0)
(-0.00800833 0.00131919 0)
(-0.00879669 0.00137575 0)
(-0.009616 0.00143154 0)
(-0.0104656 0.00148637 0)
(-0.0113447 0.00154002 0)
(-0.0122524 0.00159225 0)
(-0.0131875 0.00164275 0)
(-0.0141489 0.00169119 0)
(-0.0151351 0.00173722 0)
(-0.0161443 0.00178046 0)
(-0.0171748 0.00182049 0)
(-0.0182244 0.00185691 0)
(-0.0192908 0.00188927 0)
(-0.0203714 0.00191712 0)
(-0.0214634 0.00194001 0)
(-0.0225636 0.00195749 0)
(-0.0236689 0.0019691 0)
(-0.0247758 0.0019744 0)
(-0.0258803 0.00197295 0)
(-0.0269787 0.00196434 0)
(-0.0280667 0.00194816 0)
(-0.0291399 0.00192404 0)
(-0.030194 0.00189165 0)
(-0.0312241 0.00185067 0)
(-0.0322256 0.00180085 0)
(-0.0331936 0.00174196 0)
(-0.034123 0.00167383 0)
(-0.035009 0.00159637 0)
(-0.0358464 0.00150951 0)
(-0.0366304 0.00141327 0)
(-0.0373561 0.00130772 0)
(-0.0380186 0.00119303 0)
(-0.0386133 0.00106942 0)
(-0.0391356 0.000937196 0)
(-0.0395814 0.000796738 0)
(-0.0399465 0.000648512 0)
(-0.0402273 0.000493057 0)
(-0.0404204 0.000330996 0)
(-0.0405228 0.000163032 0)
(-0.0405317 -1.00275e-05 0)
(-0.0404452 -0.000187366 0)
(-0.0402614 -0.000368067 0)
(-0.0399792 -0.000551142 0)
(-0.039598 -0.000735547 0)
(-0.0391176 -0.000920191 0)
(-0.0385385 -0.00110394 0)
(-0.0378618 -0.00128562 0)
(-0.0370892 -0.00146405 0)
(-0.0362228 -0.00163801 0)
(-0.0352657 -0.0018063 0)
(-0.0342213 -0.00196771 0)
(-0.0330936 -0.00212107 0)
(-0.0318874 -0.00226522 0)
(-0.0306077 -0.00239906 0)
(-0.0292605 -0.00252156 0)
(-0.0278518 -0.00263174 0)
(-0.0263884 -0.0027287 0)
(-0.0248774 -0.00281167 0)
(-0.0233262 -0.00287994 0)
(-0.0217427 -0.00293295 0)
(-0.0201349 -0.00297024 0)
(-0.018511 -0.0029915 0)
(-0.0168793 -0.00299654 0)
(-0.0152483 -0.00298534 0)
(-0.0136263 -0.00295798 0)
(-0.0120217 -0.00291472 0)
(-0.0104426 -0.00285595 0)
(-0.00889712 -0.0027822 0)
(-0.0073928 -0.00269412 0)
(-0.00593699 -0.0025925 0)
(-0.00453663 -0.00247825 0)
(-0.00319817 -0.00235236 0)
(-0.00192755 -0.00221594 0)
(-0.000730164 -0.00207017 0)
(0.00038921 -0.00191628 0)
(0.00142642 -0.00175557 0)
(0.00237796 -0.00158934 0)
(0.00324101 -0.00141894 0)
(0.00401342 -0.00124571 0)
(0.00469375 -0.00107096 0)
(0.00528123 -0.000896002 0)
(0.00577574 -0.000722086 0)
(0.00617787 -0.000550429 0)
(0.00648882 -0.000382192 0)
(0.0067104 -0.000218474 0)
(0.00684504 -6.0332e-05 0)
(0.00689574 9.12376e-05 0)
(0.00686607 0.000235287 0)
(0.00676011 0.000370895 0)
(0.00658249 0.000497147 0)
(0.00633835 0.00061312 0)
(0.0060334 0.000717855 0)
(0.00567386 0.000810328 0)
(0.00526656 0.000889408 0)
(0.00481895 0.000953821 0)
(0.00433916 0.00100211 0)
(0.00383606 0.00103261 0)
(0.00331933 0.0010434 0)
(0.0027995 0.00103235 0)
(0.00228796 0.000997143 0)
(0.00179697 0.000935441 0)
(0.00133946 0.000845197 0)
(0.000928744 0.000725278 0)
(0.000577921 0.000576574 0)
(0.000299624 0.000403973 0)
(0.000107353 0.000220253 0)
(7.72426e-06 5.36653e-05 0)
(7.51605e-06 -9.87182e-05 0)
(6.23476e-05 -0.000229382 0)
(0.00013978 -0.000300362 0)
(0.000223224 -0.000320415 0)
(0.000296242 -0.000298831 0)
(0.000347131 -0.000244529 0)
(0.000366952 -0.000165492 0)
(0.000348822 -6.85254e-05 0)
(0.000287658 4.07776e-05 0)
(0.000179905 0.000157956 0)
(2.32646e-05 0.000279552 0)
(-0.00018356 0.000402959 0)
(-0.000441097 0.000526286 0)
(-0.000749301 0.000648223 0)
(-0.00110772 0.000767926 0)
(-0.00151564 0.000884915 0)
(-0.00197218 0.000998987 0)
(-0.0024764 0.00111015 0)
(-0.00302734 0.00121853 0)
(-0.00362406 0.00132438 0)
(-0.00426572 0.00142797 0)
(-0.00495149 0.0015296 0)
(-0.00568068 0.00162955 0)
(-0.00645259 0.00172806 0)
(-0.00726664 0.00182533 0)
(-0.00812221 0.0019215 0)
(-0.00901874 0.00201662 0)
(-0.00995562 0.00211069 0)
(-0.0109322 0.00220362 0)
(-0.0119477 0.00229525 0)
(-0.0130013 0.00238535 0)
(-0.014092 0.00247362 0)
(-0.0152187 0.00255967 0)
(-0.01638 0.00264309 0)
(-0.0175744 0.00272338 0)
(-0.0188002 0.00280001 0)
(-0.0200553 0.00287239 0)
(-0.0213375 0.0029399 0)
(-0.0226443 0.00300189 0)
(-0.0239728 0.00305767 0)
(-0.02532 0.00310656 0)
(-0.0266825 0.00314783 0)
(-0.0280566 0.00318078 0)
(-0.0294384 0.00320467 0)
(-0.0308237 0.00321881 0)
(-0.0322079 0.0032225 0)
(-0.0335863 0.00321506 0)
(-0.034954 0.00319586 0)
(-0.0363057 0.00316429 0)
(-0.0376359 0.00311979 0)
(-0.0389392 0.00306186 0)
(-0.0402098 0.00299005 0)
(-0.0414417 0.00290399 0)
(-0.0426291 0.00280338 0)
(-0.043766 0.002688 0)
(-0.0448463 0.00255774 0)
(-0.045864 0.00241256 0)
(-0.0468132 0.00225255 0)
(-0.0476881 0.00207788 0)
(-0.0484829 0.00188885 0)
(-0.0491924 0.00168589 0)
(-0.0498111 0.00146952 0)
(-0.0503342 0.00124041 0)
(-0.050757 0.000999321 0)
(-0.0510754 0.000747165 0)
(-0.0512854 0.000484961 0)
(-0.0513838 0.000213852 0)
(-0.0513677 -6.48966e-05 0)
(-0.0512347 -0.000349941 0)
(-0.0509831 -0.000639819 0)
(-0.0506118 -0.000932971 0)
(-0.0501202 -0.00122776 0)
(-0.0495086 -0.00152247 0)
(-0.0487776 -0.00181533 0)
(-0.0479288 -0.00210451 0)
(-0.0469644 -0.00238818 0)
(-0.0458873 -0.00266446 0)
(-0.0447011 -0.00293148 0)
(-0.04341 -0.00318739 0)
(-0.0420191 -0.00343037 0)
(-0.0405339 -0.00365867 0)
(-0.0389608 -0.0038706 0)
(-0.0373065 -0.00406456 0)
(-0.0355785 -0.00423906 0)
(-0.0337848 -0.00439274 0)
(-0.0319337 -0.0045244 0)
(-0.0300341 -0.00463296 0)
(-0.0280952 -0.00471757 0)
(-0.0261264 -0.00477752 0)
(-0.0241375 -0.00481232 0)
(-0.0221383 -0.00482169 0)
(-0.0201388 -0.00480556 0)
(-0.0181488 -0.00476408 0)
(-0.0161782 -0.0046976 0)
(-0.0142367 -0.00460672 0)
(-0.0123339 -0.00449223 0)
(-0.0104787 -0.00435512 0)
(-0.00868 -0.00419658 0)
(-0.0069461 -0.00401798 0)
(-0.00528478 -0.00382087 0)
(-0.00370325 -0.0036069 0)
(-0.00220808 -0.0033779 0)
(-0.000805154 -0.00313576 0)
(0.000500353 -0.00288247 0)
(0.00170403 -0.00262007 0)
(0.00280226 -0.00235065 0)
(0.00379219 -0.00207629 0)
(0.00467183 -0.00179906 0)
(0.00543994 -0.00152102 0)
(0.00609613 -0.00124417 0)
(0.00664079 -0.000970446 0)
(0.00707508 -0.000701703 0)
(0.00740094 -0.000439742 0)
(0.00762105 -0.000186274 0)
(0.00773875 5.70826e-05 0)
(0.00775817 0.000288735 0)
(0.00768404 0.000507165 0)
(0.00752181 0.000710862 0)
(0.00727756 0.000898298 0)
(0.00695804 0.0010679 0)
(0.0065707 0.00121801 0)
(0.00612368 0.00134683 0)
(0.00562585 0.00145237 0)
(0.00508688 0.00153241 0)
(0.00451723 0.00158447 0)
(0.00392825 0.00160578 0)
(0.00333216 0.00159331 0)
(0.00274206 0.00154391 0)
(0.00217187 0.00145447 0)
(0.00163619 0.00132243 0)
(0.00115003 0.00114645 0)
(0.000728391 0.000927697 0)
(0.000386624 0.00067183 0)
(0.000143473 0.000392404 0)
(1.14913e-05 0.000116786 0)
(7.11049e-06 -0.000130329 0)
(5.62749e-05 -0.000294459 0)
(0.000121692 -0.000376169 0)
(0.000185963 -0.000389815 0)
(0.000232285 -0.000348455 0)
(0.000248701 -0.000263882 0)
(0.000226123 -0.000146456 0)
(0.000157574 -4.98747e-06 0)
(3.7882e-05 0.000153241 0)
(-0.000136593 0.000322363 0)
(-0.000368234 0.000497778 0)
(-0.000658417 0.000675981 0)
(-0.00100773 0.000854389 0)
(-0.00141618 0.00103119 0)
(-0.00188334 0.00120518 0)
(-0.00240851 0.00137566 0)
(-0.0029908 0.0015423 0)
(-0.00362923 0.00170505 0)
(-0.00432281 0.00186406 0)
(-0.00507057 0.00201959 0)
(-0.00587155 0.002172 0)
(-0.00672488 0.00232162 0)
(-0.00762973 0.00246882 0)
(-0.00858532 0.00261387 0)
(-0.00959089 0.002757 0)
(-0.0106457 0.00289836 0)
(-0.0117489 0.00303798 0)
(-0.0128998 0.00317581 0)
(-0.0140975 0.00331167 0)
(-0.0153408 0.00344529 0)
(-0.0166286 0.00357631 0)
(-0.0179597 0.00370425 0)
(-0.0193324 0.00382854 0)
(-0.0207449 0.00394854 0)
(-0.0221954 0.00406351 0)
(-0.0236813 0.00417267 0)
(-0.0252002 0.00427516 0)
(-0.0267492 0.00437006 0)
(-0.0283251 0.00445643 0)
(-0.0299243 0.00453328 0)
(-0.031543 0.00459961 0)
(-0.0331769 0.0046544 0)
(-0.0348217 0.00469662 0)
(-0.0364725 0.00472525 0)
(-0.0381241 0.00473931 0)
(-0.039771 0.0047378 0)
(-0.0414078 0.00471981 0)
(-0.0430282 0.00468445 0)
(-0.0446262 0.00463089 0)
(-0.0461953 0.00455838 0)
(-0.0477291 0.00446626 0)
(-0.0492206 0.00435394 0)
(-0.0506632 0.00422096 0)
(-0.05205 0.00406695 0)
(-0.053374 0.00389169 0)
(-0.0546283 0.00369506 0)
(-0.0558061 0.00347711 0)
(-0.0569007 0.00323803 0)
(-0.0579056 0.00297814 0)
(-0.0588143 0.00269797 0)
(-0.0596209 0.00239816 0)
(-0.0603195 0.00207956 0)
(-0.0609046 0.00174317 0)
(-0.0613714 0.00139015 0)
(-0.0617151 0.00102185 0)
(-0.0619318 0.000639768 0)
(-0.0620179 0.00024557 0)
(-0.0619703 -0.000158925 0)
(-0.0617869 -0.000571765 0)
(-0.0614658 -0.000990858 0)
(-0.0610062 -0.00141399 0)
(-0.0604076 -0.00183882 0)
(-0.0596704 -0.00226296 0)
(-0.058796 -0.00268388 0)
(-0.0577861 -0.00309905 0)
(-0.0566436 -0.00350587 0)
(-0.0553717 -0.00390174 0)
(-0.0539749 -0.00428405 0)
(-0.0524581 -0.00465023 0)
(-0.0508269 -0.00499777 0)
(-0.0490879 -0.00532421 0)
(-0.0472481 -0.00562723 0)
(-0.0453154 -0.00590461 0)
(-0.0432982 -0.0061543 0)
(-0.0412053 -0.00637442 0)
(-0.0390464 -0.00656328 0)
(-0.0368313 -0.00671942 0)
(-0.0345703 -0.00684162 0)
(-0.0322742 -0.00692893 0)
(-0.0299538 -0.00698063 0)
(-0.0276201 -0.00699633 0)
(-0.0252844 -0.00697592 0)
(-0.0229579 -0.00691957 0)
(-0.0206517 -0.00682777 0)
(-0.0183766 -0.00670129 0)
(-0.0161436 -0.00654122 0)
(-0.0139628 -0.00634891 0)
(-0.0118445 -0.00612598 0)
(-0.00979799 -0.00587432 0)
(-0.00783234 -0.00559602 0)
(-0.00595588 -0.0052934 0)
(-0.00417626 -0.00496896 0)
(-0.0025004 -0.00462534 0)
(-0.000934426 -0.00426532 0)
(0.000516361 -0.00389175 0)
(0.00184753 -0.00350754 0)
(0.00305555 -0.00311565 0)
(0.00413777 -0.00271901 0)
(0.00509249 -0.00232055 0)
(0.00591888 -0.00192311 0)
(0.00661707 -0.00152949 0)
(0.00718806 -0.0011424 0)
(0.00763373 -0.000764422 0)
(0.00795684 -0.00039807 0)
(0.00816103 -4.57718e-05 0)
(0.00825069 0.000290159 0)
(0.00823106 0.000607458 0)
(0.00810819 0.000903888 0)
(0.00788889 0.00117719 0)
(0.00758075 0.00142504 0)
(0.00719218 0.00164506 0)
(0.00673236 0.00183466 0)
(0.00621133 0.00199106 0)
(0.00563996 0.0021112 0)
(0.00502999 0.00219172 0)
(0.00439409 0.00222897 0)
(0.0037458 0.00221904 0)
(0.00309955 0.00215793 0)
(0.00247062 0.00204178 0)
(0.00187501 0.00186742 0)
(0.00132933 0.00163307 0)
(0.000850511 0.00133961 0)
(0.000456828 0.00099229 0)
(0.000172095 0.000603431 0)
(1.4281e-05 0.000196607 0)
(6.25938e-06 -0.000157548 0)
(4.52432e-05 -0.000347158 0)
(9.11557e-05 -0.000431658 0)
(0.000126627 -0.000430769 0)
(0.000135276 -0.00036141 0)
(0.000105341 -0.000238344 0)
(2.79211e-05 -7.43576e-05 0)
(-0.000103768 0.00011973 0)
(-0.000294734 0.000334964 0)
(-0.000548494 0.000564096 0)
(-0.000867346 0.000801403 0)
(-0.00125261 0.00104249 0)
(-0.00170486 0.00128408 0)
(-0.00222407 0.00152387 0)
(-0.00280983 0.00176029 0)
(-0.0034614 0.0019924 0)
(-0.00417792 0.00221974 0)
(-0.00495839 0.00244219 0)
(-0.00580179 0.00265989 0)
(-0.00670711 0.00287314 0)
(-0.00767335 0.00308231 0)
(-0.00869957 0.0032878 0)
(-0.00978484 0.00349001 0)
(-0.0109283 0.00368924 0)
(-0.012129 0.00388573 0)
(-0.013386 0.00407958 0)
(-0.0146984 0.0042708 0)
(-0.0160651 0.00445923 0)
(-0.017485 0.00464459 0)
(-0.0189566 0.00482646 0)
(-0.0204785 0.00500429 0)
(-0.022049 0.00517739 0)
(-0.023666 0.00534497 0)
(-0.0253273 0.0055061 0)
(-0.0270303 0.00565979 0)
(-0.0287723 0.00580493 0)
(-0.0305499 0.00594035 0)
(-0.0323596 0.0060648 0)
(-0.0341976 0.006177 0)
(-0.0360595 0.00627561 0)
(-0.0379407 0.00635928 0)
(-0.0398363 0.00642666 0)
(-0.0417409 0.00647637 0)
(-0.0436488 0.00650708 0)
(-0.045554 0.00651748 0)
(-0.0474502 0.00650629 0)
(-0.0493307 0.0064723 0)
(-0.0511888 0.0064144 0)
(-0.0530172 0.00633153 0)
(-0.0548088 0.00622276 0)
(-0.056556 0.00608726 0)
(-0.0582513 0.00592434 0)
(-0.059887 0.00573346 0)
(-0.0614554 0.00551424 0)
(-0.0629488 0.00526644 0)
(-0.0643597 0.00499003 0)
(-0.0656804 0.00468516 0)
(-0.0669038 0.00435219 0)
(-0.0680226 0.00399166 0)
(-0.0690301 0.00360433 0)
(-0.0699195 0.00319119 0)
(-0.0706849 0.00275345 0)
(-0.0713204 0.0022925 0)
(-0.0718208 0.00180999 0)
(-0.0721812 0.00130776 0)
(-0.0723976 0.000787868 0)
(-0.0724663 0.000252574 0)
(-0.0723843 -0.000295675 0)
(-0.0721494 -0.000854256 0)
(-0.0717599 -0.00142037 0)
(-0.0712152 -0.00199109 0)
(-0.070515 -0.00256332 0)
(-0.0696602 -0.00313388 0)
(-0.0686523 -0.00369948 0)
(-0.0674935 -0.0042568 0)
(-0.066187 -0.00480243 0)
(-0.0647369 -0.00533297 0)
(-0.0631478 -0.00584505 0)
(-0.0614254 -0.0063353 0)
(-0.059576 -0.00680046 0)
(-0.0576066 -0.00723737 0)
(-0.0555252 -0.00764299 0)
(-0.0533403 -0.00801446 0)
(-0.051061 -0.00834911 0)
(-0.0486971 -0.00864449 0)
(-0.0462589 -0.00889843 0)
(-0.0437574 -0.00910903 0)
(-0.0412036 -0.00927467 0)
(-0.0386092 -0.00939411 0)
(-0.0359861 -0.00946641 0)
(-0.0333463 -0.00949103 0)
(-0.0307021 -0.00946779 0)
(-0.0280657 -0.00939689 0)
(-0.0254492 -0.00927892 0)
(-0.0228647 -0.00911486 0)
(-0.020324 -0.00890606 0)
(-0.0178385 -0.00865423 0)
(-0.0154194 -0.00836147 0)
(-0.0130772 -0.00803015 0)
(-0.010822 -0.00766301 0)
(-0.0086632 -0.00726301 0)
(-0.00660938 -0.0068334 0)
(-0.00466846 -0.0063776 0)
(-0.00284748 -0.00589924 0)
(-0.00115263 -0.00540204 0)
(0.000410881 -0.00488984 0)
(0.00183876 -0.00436652 0)
(0.00312772 -0.00383599 0)
(0.00427547 -0.00330213 0)
(0.00528074 -0.00276875 0)
(0.00614324 -0.00223961 0)
(0.00686372 -0.00171835 0)
(0.00744392 -0.00120853 0)
(0.00788653 -0.000713551 0)
(0.00819523 -0.000236733 0)
(0.00837463 0.000218714 0)
(0.00843029 0.000649667 0)
(0.00836868 0.00105306 0)
(0.00819713 0.00142575 0)
(0.00792389 0.00176462 0)
(0.00755807 0.00206641 0)
(0.0071097 0.0023277 0)
(0.00658971 0.00254481 0)
(0.00600993 0.00271379 0)
(0.00538312 0.00283038 0)
(0.00472298 0.00289002 0)
(0.00404412 0.00288789 0)
(0.00336207 0.00281913 0)
(0.00269325 0.00267905 0)
(0.00205496 0.0024637 0)
(0.00146532 0.00217053 0)
(0.000943262 0.00179949 0)
(0.00050985 0.00135438 0)
(0.000193363 0.000844844 0)
(1.62386e-05 0.000289084 0)
(5.09459e-06 -0.000178181 0)
(3.03131e-05 -0.00038194 0)
(5.04516e-05 -0.000458915 0)
(4.883e-05 -0.000433724 0)
(1.01753e-05 -0.000327009 0)
(-7.66492e-05 -0.000156483 0)
(-0.000220038 6.2681e-05 0)
(-0.000426323 0.000317699 0)
(-0.000700122 0.000597998 0)
(-0.00104464 0.000895006 0)
(-0.00146193 0.00120193 0)
(-0.00195315 0.00151353 0)
(-0.00251873 0.00182588 0)
(-0.00315859 0.00213618 0)
(-0.00387223 0.00244254 0)
(-0.00465892 0.00274378 0)
(-0.00551775 0.00303931 0)
(-0.00644772 0.00332894 0)
(-0.00744779 0.00361279 0)
(-0.00851692 0.00389117 0)
(-0.00965408 0.00416446 0)
(-0.0108583 0.00443312 0)
(-0.0121284 0.00469752 0)
(-0.0134636 0.004958 0)
(-0.0148628 0.00521474 0)
(-0.0163248 0.00546781 0)
(-0.0178485 0.00571711 0)
(-0.0194326 0.00596237 0)
(-0.0210756 0.00620316 0)
(-0.0227758 0.00643885 0)
(-0.0245314 0.00666868 0)
(-0.0263401 0.00689171 0)
(-0.0281995 0.00710686 0)
(-0.0301069 0.0073129 0)
(-0.0320592 0.0075085 0)
(-0.0340528 0.00769222 0)
(-0.036084 0.00786251 0)
(-0.0381485 0.00801776 0)
(-0.0402417 0.00815632 0)
(-0.0423586 0.00827646 0)
(-0.0444938 0.00837646 0)
(-0.0466415 0.00845459 0)
(-0.0487956 0.00850913 0)
(-0.0509495 0.00853839 0)
(-0.0530964 0.00854073 0)
(-0.0552292 0.00851458 0)
(-0.0573403 0.00845847 0)
(-0.0594221 0.00837101 0)
(-0.0614666 0.00825097 0)
(-0.0634658 0.00809722 0)
(-0.0654114 0.00790881 0)
(-0.0672951 0.00768498 0)
(-0.0691085 0.00742513 0)
(-0.0708433 0.00712889 0)
(-0.0724911 0.00679609 0)
(-0.0740437 0.00642682 0)
(-0.0754932 0.00602138 0)
(-0.0768317 0.00558033 0)
(-0.0780516 0.0051045 0)
(-0.0791457 0.00459499 0)
(-0.0801073 0.00405314 0)
(-0.0809298 0.00348057 0)
(-0.0816073 0.00287919 0)
(-0.0821344 0.00225114 0)
(-0.0825064 0.00159884 0)
(-0.0827188 0.000924965 0)
(-0.0827683 0.000232414 0)
(-0.0826518 -0.000475674 0)
(-0.0823672 -0.00119595 0)
(-0.0819132 -0.00192487 0)
(-0.0812891 -0.00265872 0)
(-0.080495 -0.00339362 0)
(-0.0795321 -0.00412556 0)
(-0.0784021 -0.00485045 0)
(-0.0771077 -0.00556411 0)
(-0.0756524 -0.0062623 0)
(-0.0740406 -0.00694081 0)
(-0.0722776 -0.00759542 0)
(-0.0703693 -0.00822198 0)
(-0.0683226 -0.00881643 0)
(-0.0661451 -0.00937485 0)
(-0.0638452 -0.00989348 0)
(-0.061432 -0.0103688 0)
(-0.0589153 -0.0107974 0)
(-0.0563055 -0.0111764 0)
(-0.0536136 -0.0115029 0)
(-0.0508511 -0.0117747 0)
(-0.0480299 -0.0119897 0)
(-0.0451625 -0.0121464 0)
(-0.0422614 -0.0122435 0)
(-0.0393395 -0.0122803 0)
(-0.03641 -0.0122566 0)
(-0.0334858 -0.0121725 0)
(-0.0305801 -0.0120288 0)
(-0.0277058 -0.0118265 0)
(-0.0248756 -0.0115674 0)
(-0.0221021 -0.0112535 0)
(-0.0193972 -0.0108872 0)
(-0.0167725 -0.0104717 0)
(-0.014239 -0.01001 0)
(-0.0118071 -0.00950605 0)
(-0.00948638 -0.00896369 0)
(-0.00728562 -0.00838722 0)
(-0.00521279 -0.00778113 0)
(-0.00327491 -0.00715009 0)
(-0.00147805 -0.00649891 0)
(0.000172775 -0.00583247 0)
(0.00167357 -0.00515571 0)
(0.00302141 -0.00447354 0)
(0.00421449 -0.00379086 0)
(0.00525207 -0.00311246 0)
(0.00613453 -0.00244306 0)
(0.00686332 -0.00178721 0)
(0.00744099 -0.00114938 0)
(0.00787116 -0.000533878 0)
(0.00815849 5.5101e-05 0)
(0.00830865 0.000613422 0)
(0.00832836 0.00113704 0)
(0.00822543 0.00162199 0)
(0.00800853 0.00206409 0)
(0.00768725 0.00245923 0)
(0.00727227 0.00280301 0)
(0.00677524 0.00309082 0)
(0.00620872 0.00331777 0)
(0.0055863 0.00347865 0)
(0.00492248 0.00356795 0)
(0.00423276 0.00357993 0)
(0.00353361 0.00350877 0)
(0.00284247 0.00334887 0)
(0.00217786 0.00309525 0)
(0.00155935 0.00274425 0)
(0.00100774 0.00229429 0)
(0.000546625 0.00174697 0)
(0.000207927 0.00110834 0)
(1.75107e-05 0.000390532 0)
(3.70154e-06 -0.000190505 0)
(1.2266e-05 -0.000394241 0)