/*--------------------------------*- C++ -*----------------------------------*\
  =========                 |
  \\      /  F ield         | OpenFOAM: The Open Source CFD Toolbox
   \\    /   O peration     | Website:  https://openfoam.org
    \\  /    A nd           | Version:  12
     \\/     M anipulation  |
\*---------------------------------------------------------------------------*/
FoamFile
{
    format      ascii;
    class       volScalarField;
    location    "8.5";
    object      k;
}
// * * * * * * * * * * * * * * * * * * * * * * * * * * * * * * * * * * * * * //

dimensions      [0 2 -2 0 0 0 0];

internalField   nonuniform List<scalar> 
18225
(
1.64176e-12
8.20451e-12
1.79554e-11
2.96645e-11
4.27837e-11
5.69893e-11
7.20524e-11
8.77956e-11
1.04074e-10
1.20767e-10
1.37774e-10
1.55007e-10
1.72394e-10
1.89875e-10
2.074e-10
2.2493e-10
2.42436e-10
2.59895e-10
2.77293e-10
2.94623e-10
3.11885e-10
3.29081e-10
3.46222e-10
3.63318e-10
3.80385e-10
3.97441e-10
4.14502e-10
4.31589e-10
4.48719e-10
4.65911e-10
4.83182e-10
5.00545e-10
5.18013e-10
5.35597e-10
5.53304e-10
5.71138e-10
5.891e-10
6.07188e-10
6.25398e-10
6.4372e-10
6.62144e-10
6.80655e-10
6.99235e-10
7.17862e-10
7.36514e-10
7.55164e-10
7.73781e-10
7.92334e-10
8.10786e-10
8.29099e-10
8.47232e-10
8.65141e-10
8.82779e-10
9.00096e-10
9.17041e-10
9.33559e-10
9.49593e-10
9.65083e-10
9.79968e-10
9.94185e-10
1.00767e-09
1.02035e-09
1.03217e-09
1.04305e-09
1.05293e-09
1.06174e-09
1.06941e-09
1.07587e-09
1.08108e-09
1.08495e-09
1.08744e-09
1.08847e-09
1.08807e-09
1.08615e-09
1.08268e-09
1.07763e-09
1.07096e-09
1.06268e-09
1.05278e-09
1.04127e-09
1.02816e-09
1.01348e-09
9.97266e-10
9.79564e-10
9.60432e-10
9.39937e-10
9.18153e-10
8.95166e-10
8.71069e-10
8.45961e-10
8.19949e-10
7.93145e-10
7.65666e-10
7.37631e-10
7.0916e-10
6.80376e-10
6.514e-10
6.22351e-10
5.93345e-10
5.64493e-10
5.35904e-10
5.07676e-10
4.79903e-10
4.52672e-10
4.2606e-10
4.00135e-10
3.74957e-10
3.50579e-10
3.2704e-10
3.04375e-10
2.82607e-10
2.61752e-10
2.41819e-10
2.22808e-10
2.04714e-10
1.87522e-10
1.71215e-10
1.55771e-10
1.41162e-10
1.27359e-10
1.14329e-10
1.02039e-10
9.04536e-11
7.95397e-11
6.92652e-11
5.96008e-11
5.05223e-11
4.20115e-11
3.40594e-11
2.66698e-11
1.98644e-11
1.36931e-11
8.25596e-12
3.76436e-12
7.52876e-13
8.20945e-12
7.06331e-11
1.59597e-10
2.65497e-10
3.83862e-10
5.11908e-10
6.47622e-10
7.89424e-10
9.36023e-10
1.08634e-09
1.23945e-09
1.39458e-09
1.55109e-09
1.70843e-09
1.86615e-09
2.02392e-09
2.18145e-09
2.33855e-09
2.4951e-09
2.65104e-09
2.80635e-09
2.96107e-09
3.11528e-09
3.26909e-09
3.42264e-09
3.57607e-09
3.72957e-09
3.88329e-09
4.0374e-09
4.19207e-09
4.34745e-09
4.50366e-09
4.66082e-09
4.81902e-09
4.97833e-09
5.13879e-09
5.3004e-09
5.46316e-09
5.627e-09
5.79187e-09
5.95765e-09
6.12421e-09
6.2914e-09
6.45902e-09
6.62687e-09
6.79469e-09
6.96223e-09
7.12919e-09
7.29525e-09
7.46006e-09
7.62326e-09
7.78444e-09
7.94319e-09
8.09906e-09
8.25158e-09
8.40026e-09
8.54459e-09
8.68403e-09
8.81804e-09
8.94603e-09
9.06742e-09
9.18162e-09
9.28802e-09
9.38602e-09
9.47499e-09
9.55433e-09
9.62342e-09
9.68168e-09
9.72847e-09
9.76325e-09
9.78542e-09
9.79458e-09
9.79082e-09
9.77341e-09
9.74202e-09
9.69636e-09
9.63625e-09
9.56159e-09
9.47235e-09
9.3686e-09
9.25048e-09
9.11825e-09
8.97222e-09
8.81282e-09
8.64056e-09
8.45604e-09
8.25994e-09
8.05302e-09
7.83613e-09
7.61016e-09
7.37606e-09
7.13485e-09
6.88758e-09
6.63531e-09
6.37913e-09
6.12014e-09
5.85944e-09
5.59808e-09
5.33711e-09
5.07755e-09
4.82034e-09
4.5664e-09
4.31655e-09
4.07158e-09
3.83218e-09
3.59896e-09
3.37247e-09
3.15317e-09
2.94142e-09
2.73754e-09
2.54173e-09
2.35413e-09
2.17482e-09
2.0038e-09
1.84101e-09
1.68634e-09
1.53965e-09
1.40071e-09
1.2693e-09
1.14514e-09
1.02794e-09
9.17391e-10
8.13188e-10
7.15023e-10
6.22608e-10
5.35678e-10
4.54012e-10
3.77446e-10
3.05894e-10
2.39383e-10
1.78101e-10
1.22474e-10
7.33404e-11
3.23913e-11
3.76279e-12
1.80105e-11
1.5998e-10
3.64552e-10
6.09009e-10
8.82541e-10
1.17852e-09
1.49221e-09
1.81994e-09
2.15872e-09
2.50604e-09
2.8598e-09
3.2182e-09
3.57974e-09
3.94318e-09
4.30749e-09
4.67187e-09
5.03568e-09
5.39849e-09
5.76001e-09
6.1201e-09
6.47873e-09
6.836e-09
7.1921e-09
7.54728e-09
7.90187e-09
8.25622e-09
8.61071e-09
8.96576e-09
9.32174e-09
9.67903e-09
1.0038e-08
1.03989e-08
1.0762e-08
1.11276e-08
1.14958e-08
1.18666e-08
1.22401e-08
1.26163e-08
1.2995e-08
1.33761e-08
1.37593e-08
1.41444e-08
1.45308e-08
1.49183e-08
1.53063e-08
1.56941e-08
1.60814e-08
1.64672e-08
1.68509e-08
1.72317e-08
1.76087e-08
1.7981e-08
1.83476e-08
1.87075e-08
1.90596e-08
1.94028e-08
1.97358e-08
2.00575e-08
2.03665e-08
2.06615e-08
2.09413e-08
2.12043e-08
2.14493e-08
2.16747e-08
2.18793e-08
2.20615e-08
2.222e-08
2.23535e-08
2.24605e-08
2.254e-08
2.25901e-08
2.26102e-08
2.26006e-08
2.25595e-08
2.24861e-08
2.23797e-08
2.22399e-08
2.20666e-08
2.18596e-08
2.16192e-08
2.13456e-08
2.10395e-08
2.07016e-08
2.03328e-08
1.99344e-08
1.95078e-08
1.90545e-08
1.85763e-08
1.80751e-08
1.7553e-08
1.70123e-08
1.64552e-08
1.58841e-08
1.53016e-08
1.47102e-08
1.41123e-08
1.35105e-08
1.29073e-08
1.2305e-08
1.17061e-08
1.11126e-08
1.05267e-08
9.95028e-09
9.38517e-09
8.83295e-09
8.29504e-09
7.77269e-09
7.26694e-09
6.77866e-09
6.30853e-09
5.85704e-09
5.42453e-09
5.01115e-09
4.61691e-09
4.24168e-09
3.88519e-09
3.54708e-09
3.22687e-09
2.924e-09
2.63785e-09
2.36773e-09
2.11295e-09
1.87279e-09
1.64653e-09
1.43352e-09
1.23314e-09
1.04488e-09
8.68349e-10
7.03362e-10
5.4998e-10
4.08642e-10
2.8037e-10
1.6719e-10
7.3218e-11
8.23825e-12
2.98857e-11
2.67286e-10
6.1163e-10
1.02465e-09
1.48762e-09
1.98898e-09
2.52052e-09
3.07591e-09
3.65002e-09
4.23858e-09
4.83801e-09
5.44526e-09
6.05779e-09
6.67347e-09
7.29059e-09
7.90776e-09
8.52395e-09
9.1384e-09
9.75065e-09
1.03604e-08
1.09678e-08
1.15728e-08
1.21758e-08
1.27774e-08
1.33779e-08
1.39781e-08
1.45786e-08
1.51801e-08
1.57832e-08
1.63887e-08
1.6997e-08
1.76087e-08
1.82242e-08
1.8844e-08
1.94682e-08
2.00969e-08
2.07303e-08
2.13682e-08
2.20105e-08
2.26567e-08
2.33065e-08
2.39594e-08
2.46147e-08
2.52716e-08
2.59293e-08
2.65868e-08
2.7243e-08
2.78968e-08
2.85469e-08
2.91919e-08
2.98304e-08
3.04607e-08
3.10812e-08
3.16902e-08
3.22857e-08
3.2866e-08
3.34289e-08
3.39723e-08
3.44942e-08
3.49922e-08
3.54641e-08
3.59075e-08
3.63202e-08
3.66998e-08
3.70438e-08
3.73499e-08
3.76158e-08
3.78392e-08
3.80179e-08
3.81499e-08
3.82319e-08
3.82632e-08
3.82446e-08
3.81725e-08
3.80457e-08
3.78631e-08
3.76241e-08
3.73283e-08
3.69757e-08
3.65664e-08
3.61012e-08
3.5581e-08
3.5007e-08
3.4381e-08
3.37049e-08
3.29812e-08
3.22124e-08
3.14016e-08
3.05521e-08
2.96673e-08
2.87511e-08
2.78073e-08
2.68402e-08
2.58538e-08
2.48524e-08
2.38403e-08
2.28217e-08
2.18009e-08
2.07819e-08
1.97687e-08
1.87649e-08
1.7774e-08
1.67994e-08
1.5844e-08
1.49106e-08
1.40015e-08
1.31188e-08
1.22643e-08
1.14394e-08
1.06453e-08
9.88275e-09
9.15235e-09
8.45435e-09
7.78874e-09
7.15529e-09
6.55355e-09
5.98286e-09
5.44243e-09
4.93128e-09
4.44837e-09
3.99254e-09
3.5626e-09
3.15732e-09
2.77551e-09
2.41603e-09
2.07785e-09
1.76011e-09
1.46216e-09
1.18367e-09
9.24793e-10
6.863e-10
4.70006e-10
2.79489e-10
1.21885e-10
1.36201e-11
4.33782e-11
3.88905e-10
8.91956e-10
1.49703e-09
2.17648e-09
2.91299e-09
3.69425e-09
4.51079e-09
5.35495e-09
6.2204e-09
7.1018e-09
7.99468e-09
8.89527e-09
9.80044e-09
1.07076e-08
1.16149e-08
1.25206e-08
1.34238e-08
1.43236e-08
1.52199e-08
1.61125e-08
1.70017e-08
1.78881e-08
1.87723e-08
1.96552e-08
2.05376e-08
2.14206e-08
2.23051e-08
2.31922e-08
2.40827e-08
2.49777e-08
2.58777e-08
2.67835e-08
2.76956e-08
2.86143e-08
2.95397e-08
3.0472e-08
3.14109e-08
3.23561e-08
3.33072e-08
3.42635e-08
3.52241e-08
3.61881e-08
3.71543e-08
3.81215e-08
3.90881e-08
4.00526e-08
4.10132e-08
4.19679e-08
4.29149e-08
4.38519e-08
4.47765e-08
4.56864e-08
4.65789e-08
4.74513e-08
4.83008e-08
4.91245e-08
4.99192e-08
5.06819e-08
5.14092e-08
5.20979e-08
5.27446e-08
5.33458e-08
5.38982e-08
5.43982e-08
5.48425e-08
5.52277e-08
5.55505e-08
5.58077e-08
5.59963e-08
5.61111e-08
5.6152e-08
5.61201e-08
5.60096e-08
5.58188e-08
5.55463e-08
5.51911e-08
5.47528e-08
5.42311e-08
5.36265e-08
5.294e-08
5.21728e-08
5.1327e-08
5.04049e-08
4.94095e-08
4.83442e-08
4.72131e-08
4.60205e-08
4.47711e-08
4.34703e-08
4.21235e-08
4.07365e-08
3.93153e-08
3.78662e-08
3.63954e-08
3.49091e-08
3.34137e-08
3.19153e-08
3.04198e-08
2.89331e-08
2.74605e-08
2.60074e-08
2.45783e-08
2.31778e-08
2.18098e-08
2.04777e-08
1.91846e-08
1.7933e-08
1.67251e-08
1.55625e-08
1.44464e-08
1.33775e-08
1.23562e-08
1.13825e-08
1.0456e-08
9.57591e-09
8.74139e-09
7.95119e-09
7.20389e-09
6.4979e-09
5.83155e-09
5.20305e-09
4.61061e-09
4.05248e-09
3.52699e-09
3.03262e-09
2.56811e-09
2.13254e-09
1.72545e-09
1.34709e-09
9.98681e-10
6.82992e-10
4.05391e-10
1.76387e-10
1.96622e-11
5.82708e-11
5.23017e-10
1.20113e-09
2.0184e-09
2.93748e-09
3.93472e-09
4.99321e-09
6.0999e-09
7.24427e-09
8.41763e-09
9.61268e-09
1.08233e-08
1.20443e-08
1.32715e-08
1.45014e-08
1.57313e-08
1.69591e-08
1.81834e-08
1.94031e-08
2.06179e-08
2.18279e-08
2.30333e-08
2.42349e-08
2.54336e-08
2.66306e-08
2.78271e-08
2.90245e-08
3.02243e-08
3.14276e-08
3.26358e-08
3.38501e-08
3.50715e-08
3.63007e-08
3.75385e-08
3.87853e-08
4.00413e-08
4.13064e-08
4.25805e-08
4.38629e-08
4.5153e-08
4.64498e-08
4.77522e-08
4.90587e-08
5.03678e-08
5.16776e-08
5.29861e-08
5.42911e-08
5.55901e-08
5.68807e-08
5.81599e-08
5.94249e-08
6.06724e-08
6.18992e-08
6.31018e-08
6.42765e-08
6.54196e-08
6.65271e-08
6.75948e-08
6.86186e-08
6.95942e-08
7.05171e-08
7.13828e-08
7.21868e-08
7.29246e-08
7.35914e-08
7.41829e-08
7.46945e-08
7.51219e-08
7.54608e-08
7.57072e-08
7.58531e-08
7.59007e-08
7.58501e-08
7.56935e-08
7.54287e-08
7.50537e-08
7.45672e-08
7.39686e-08
7.32578e-08
7.24351e-08
7.15019e-08
7.046e-08
6.93119e-08
6.8061e-08
6.67111e-08
6.5267e-08
6.37339e-08
6.21179e-08
6.04253e-08
5.86633e-08
5.68393e-08
5.49612e-08
5.30373e-08
5.10757e-08
4.90852e-08
4.70741e-08
4.50511e-08
4.30244e-08
4.10022e-08
3.89923e-08
3.70021e-08
3.50385e-08
3.31081e-08
3.12168e-08
2.93698e-08
2.75719e-08
2.58271e-08
2.41389e-08
2.251e-08
2.09426e-08
1.94383e-08
1.7998e-08
1.66222e-08
1.53107e-08
1.40631e-08
1.28783e-08
1.1755e-08
1.06915e-08
9.68584e-09
8.73589e-09
7.83932e-09
6.99373e-09
6.19669e-09
5.4458e-09
4.73882e-09
4.07371e-09
3.44877e-09
2.86278e-09
2.3152e-09
1.80639e-09
1.33812e-09
9.14203e-10
5.41962e-10
2.35495e-10
2.6221e-11
7.4451e-11
6.68658e-10
1.53685e-09
2.5847e-09
3.76445e-09
5.04566e-09
6.40639e-09
7.82968e-09
9.30184e-09
1.08115e-08
1.23493e-08
1.39071e-08
1.54784e-08
1.70576e-08
1.86402e-08
2.02228e-08
2.18026e-08
2.33778e-08
2.49472e-08
2.65102e-08
2.80669e-08
2.96179e-08
3.1164e-08
3.27065e-08
3.42469e-08
3.57869e-08
3.73282e-08
3.88726e-08
4.04219e-08
4.19775e-08
4.35411e-08
4.51138e-08
4.66966e-08
4.82904e-08
4.98957e-08
5.15125e-08
5.31408e-08
5.47801e-08
5.64298e-08
5.80887e-08
5.97556e-08
6.14288e-08
6.31066e-08
6.47866e-08
6.64665e-08
6.81438e-08
6.98153e-08
7.14781e-08
7.31287e-08
7.47636e-08
7.6379e-08
7.79708e-08
7.95349e-08
8.10667e-08
8.25618e-08
8.40152e-08
8.54221e-08
8.67772e-08
8.80754e-08
8.93112e-08
9.04789e-08
9.15732e-08
9.25881e-08
9.35181e-08
9.43574e-08
9.51002e-08
9.57411e-08
9.62745e-08
9.66951e-08
9.69978e-08
9.71709e-08
9.72212e-08
9.71458e-08
9.69352e-08
9.65866e-08
9.60975e-08
9.54663e-08
9.46921e-08
9.37746e-08
9.27145e-08
9.15132e-08
9.0173e-08
8.86972e-08
8.70898e-08
8.53559e-08
8.35015e-08
8.15332e-08
7.94586e-08
7.72862e-08
7.50248e-08
7.26842e-08
7.02744e-08
6.78059e-08
6.52896e-08
6.27363e-08
6.01571e-08
5.7563e-08
5.49647e-08
5.23727e-08
4.97969e-08
4.7247e-08
4.4732e-08
4.226e-08
3.98388e-08
3.74751e-08
3.51749e-08
3.29434e-08
3.07849e-08
2.8703e-08
2.67004e-08
2.47789e-08
2.29398e-08
2.11835e-08
1.95099e-08
1.79181e-08
1.64069e-08
1.49743e-08
1.36183e-08
1.23363e-08
1.11254e-08
9.98273e-09
8.90507e-09
7.88932e-09
6.93242e-09
6.03148e-09
5.1839e-09
4.38755e-09
3.64089e-09
2.94328e-09
2.29529e-09
1.69922e-09
1.16004e-09
6.8713e-10
2.98327e-10
3.31964e-11
9.18629e-11
8.25347e-10
1.898e-09
3.19393e-09
4.65433e-09
6.24152e-09
7.92819e-09
9.69314e-09
1.15192e-08
1.33923e-08
1.53004e-08
1.72336e-08
1.91836e-08
2.11434e-08
2.31074e-08
2.50713e-08
2.70317e-08
2.89863e-08
3.09337e-08
3.28731e-08
3.48047e-08
3.67291e-08
3.86475e-08
4.05615e-08
4.24731e-08
4.43841e-08
4.6297e-08
4.82137e-08
5.01365e-08
5.20672e-08
5.40077e-08
5.59594e-08
5.79235e-08
5.99008e-08
6.18918e-08
6.38966e-08
6.59149e-08
6.7946e-08
6.99889e-08
7.20421e-08
7.41039e-08
7.61722e-08
7.82445e-08
8.03181e-08
8.23898e-08
8.44564e-08
8.65142e-08
8.85592e-08
9.05874e-08
9.25943e-08
9.45752e-08
9.65252e-08
9.84393e-08
1.00312e-07
1.02138e-07
1.03911e-07
1.05625e-07
1.07275e-07
1.08854e-07
1.10355e-07
1.11772e-07
1.13097e-07
1.14325e-07
1.15449e-07
1.16461e-07
1.17355e-07
1.18124e-07
1.18761e-07
1.1926e-07
1.19615e-07
1.19809e-07
1.19857e-07
1.1975e-07
1.19477e-07
1.19035e-07
1.18421e-07
1.17633e-07
1.1667e-07
1.15531e-07
1.14218e-07
1.12731e-07
1.11073e-07
1.09248e-07
1.07262e-07
1.0512e-07
1.0283e-07
1.004e-07
9.78381e-08
9.51559e-08
9.2364e-08
8.94744e-08
8.64994e-08
8.34521e-08
8.03458e-08
7.71941e-08
7.40107e-08
7.0809e-08
6.76026e-08
6.44043e-08
6.12266e-08
5.80814e-08
5.49798e-08
5.1932e-08
4.89476e-08
4.60349e-08
4.32013e-08
4.04531e-08
3.77958e-08
3.52336e-08
3.27698e-08
3.04066e-08
2.81455e-08
2.59869e-08
2.39306e-08
2.19754e-08
2.01196e-08
1.8361e-08
1.66966e-08
1.51234e-08
1.36377e-08
1.22359e-08
1.09139e-08
9.66802e-09
8.49435e-09
7.38935e-09
6.34984e-09
5.37319e-09
4.45759e-09
3.60229e-09
2.80807e-09
2.07784e-09
1.41775e-09
8.39297e-10
3.64196e-10
4.0511e-11
1.10486e-10
9.92912e-10
2.28416e-09
3.84537e-09
5.60599e-09
7.52067e-09
9.55639e-09
1.16875e-08
1.38931e-08
1.61559e-08
1.84614e-08
2.07976e-08
2.31541e-08
2.55225e-08
2.78961e-08
3.02694e-08
3.26384e-08
3.50001e-08
3.7353e-08
3.96962e-08
4.20297e-08
4.43545e-08
4.6672e-08
4.89841e-08
5.12931e-08
5.36016e-08
5.5912e-08
5.8227e-08
6.05492e-08
6.28807e-08
6.52236e-08
6.75795e-08
6.99498e-08
7.23352e-08
7.47361e-08
7.71524e-08
7.95837e-08
8.20289e-08
8.44865e-08
8.69547e-08
8.94312e-08
9.19132e-08
9.43977e-08
9.68812e-08
9.936e-08
1.0183e-07
1.04287e-07
1.06725e-07
1.09141e-07
1.11529e-07
1.13882e-07
1.16197e-07
1.18466e-07
1.20684e-07
1.22843e-07
1.24937e-07
1.2696e-07
1.28904e-07
1.30762e-07
1.32527e-07
1.3419e-07
1.35745e-07
1.37182e-07
1.38495e-07
1.39675e-07
1.40715e-07
1.41606e-07
1.42341e-07
1.42912e-07
1.43312e-07
1.43519e-07
1.43558e-07
1.43411e-07
1.43067e-07
1.42523e-07
1.41774e-07
1.40819e-07
1.39655e-07
1.38283e-07
1.36703e-07
1.34916e-07
1.32926e-07
1.30737e-07
1.28355e-07
1.25787e-07
1.23042e-07
1.20129e-07
1.17059e-07
1.13845e-07
1.10499e-07
1.07036e-07
1.03471e-07
9.98182e-08
9.60948e-08
9.23168e-08
8.85007e-08
8.46627e-08
8.0819e-08
7.69851e-08
7.31762e-08
6.94066e-08
6.56896e-08
6.20378e-08
5.84624e-08
5.49737e-08
5.15805e-08
4.82905e-08
4.51101e-08
4.20445e-08
3.90975e-08
3.62718e-08
3.35691e-08
3.09897e-08
2.85333e-08
2.61985e-08
2.3983e-08
2.18841e-08
1.98982e-08
1.80215e-08
1.62496e-08
1.45779e-08
1.30017e-08
1.15163e-08
1.01171e-08
8.79983e-09
7.56072e-09
6.39664e-09
5.30544e-09
4.2863e-09
3.3402e-09
2.47069e-09
1.68513e-09
9.97176e-10
4.32548e-10
4.81027e-11
1.30324e-10
1.17138e-09
2.69543e-09
4.53914e-09
6.61955e-09
8.88319e-09
1.12911e-08
1.38127e-08
1.64233e-08
1.91022e-08
2.18322e-08
2.45988e-08
2.73897e-08
3.01947e-08
3.30058e-08
3.58164e-08
3.86216e-08
4.1418e-08
4.42035e-08
4.69772e-08
4.97392e-08
5.24905e-08
5.52329e-08
5.79686e-08
6.07002e-08
6.34308e-08
6.61634e-08
6.8901e-08
7.16463e-08
7.4402e-08
7.71703e-08
7.9953e-08
8.27512e-08
8.55659e-08
8.83971e-08
9.12447e-08
9.41076e-08
9.69845e-08
9.98734e-08
1.02772e-07
1.05677e-07
1.08585e-07
1.11493e-07
1.14396e-07
1.1729e-07
1.2017e-07
1.23031e-07
1.25867e-07
1.28673e-07
1.31442e-07
1.34168e-07
1.36845e-07
1.39467e-07
1.42025e-07
1.44513e-07
1.46923e-07
1.49247e-07
1.51478e-07
1.53608e-07
1.55627e-07
1.57528e-07
1.59301e-07
1.60939e-07
1.62431e-07
1.6377e-07
1.64945e-07
1.65948e-07
1.66771e-07
1.67405e-07
1.67838e-07
1.68049e-07
1.68071e-07
1.67874e-07
1.6745e-07
1.66793e-07
1.65901e-07
1.64768e-07
1.63395e-07
1.6178e-07
1.59923e-07
1.57826e-07
1.55494e-07
1.5293e-07
1.50142e-07
1.47136e-07
1.43924e-07
1.40516e-07
1.36925e-07
1.33164e-07
1.2925e-07
1.25198e-07
1.21025e-07
1.1675e-07
1.12391e-07
1.07968e-07
1.035e-07
9.90051e-08
9.45031e-08
9.00122e-08
8.55503e-08
8.11342e-08
7.67797e-08
7.25016e-08
6.83134e-08
6.42269e-08
6.02529e-08
5.64004e-08
5.26769e-08
4.90886e-08
4.564e-08
4.23343e-08
3.91732e-08
3.61574e-08
3.32863e-08
3.0558e-08
2.79701e-08
2.55189e-08
2.32005e-08
2.101e-08
1.89422e-08
1.69918e-08
1.51531e-08
1.34206e-08
1.17888e-08
1.02527e-08
8.80778e-09
7.45052e-09
6.1784e-09
4.99048e-09
3.88798e-09
2.87508e-09
1.96037e-09
1.15971e-09
5.02926e-10
5.59207e-11
1.51395e-10
1.36093e-09
3.1322e-09
5.27592e-09
7.69599e-09
1.03304e-08
1.31338e-08
1.60707e-08
1.91121e-08
2.22339e-08
2.54158e-08
2.86407e-08
3.1894e-08
3.51639e-08
3.84406e-08
4.17164e-08
4.49855e-08
4.82438e-08
5.14888e-08
5.47194e-08
5.79356e-08
6.11388e-08
6.43307e-08
6.75142e-08
7.06922e-08
7.38682e-08
7.70456e-08
8.02277e-08
8.34177e-08
8.66184e-08
8.98321e-08
9.30606e-08
9.63051e-08
9.95663e-08
1.02844e-07
1.06138e-07
1.09446e-07
1.12767e-07
1.16098e-07
1.19435e-07
1.22777e-07
1.26117e-07
1.29453e-07
1.32778e-07
1.36088e-07
1.39377e-07
1.42639e-07
1.45869e-07
1.49058e-07
1.52202e-07
1.55293e-07
1.58323e-07
1.61285e-07
1.64172e-07
1.66976e-07
1.69688e-07
1.723e-07
1.74803e-07
1.77189e-07
1.79448e-07
1.81571e-07
1.83548e-07
1.8537e-07
1.87027e-07
1.88508e-07
1.89804e-07
1.90906e-07
1.91803e-07
1.92485e-07
1.92938e-07
1.9314e-07
1.93134e-07
1.92877e-07
1.92362e-07
1.91584e-07
1.90538e-07
1.8922e-07
1.8763e-07
1.85764e-07
1.83625e-07
1.81213e-07
1.78533e-07
1.75589e-07
1.7239e-07
1.68943e-07
1.65259e-07
1.61352e-07
1.57235e-07
1.52923e-07
1.48435e-07
1.43787e-07
1.39001e-07
1.34096e-07
1.29094e-07
1.24016e-07
1.18885e-07
1.13723e-07
1.0855e-07
1.0339e-07
9.82608e-08
9.31836e-08
8.81765e-08
8.32565e-08
7.84393e-08
7.3739e-08
6.91679e-08
6.47366e-08
6.04541e-08
5.63275e-08
5.23621e-08
4.85617e-08
4.49285e-08
4.1463e-08
3.81645e-08
3.50311e-08
3.20597e-08
2.92461e-08
2.65856e-08
2.40725e-08
2.17009e-08
1.94643e-08
1.73563e-08
1.53703e-08
1.35e-08
1.17396e-08
1.0084e-08
8.52891e-09
7.07158e-09
5.71095e-09
4.44843e-09
3.28883e-09
2.242e-09
1.32605e-09
5.74959e-10
6.39234e-11
1.7373e-10
1.56183e-09
3.5951e-09
6.05678e-09
8.83687e-09
1.18644e-08
1.50873e-08
1.84647e-08
2.19635e-08
2.55555e-08
2.92173e-08
3.29288e-08
3.66732e-08
4.04366e-08
4.42074e-08
4.79765e-08
5.17371e-08
5.54844e-08
5.92154e-08
6.29286e-08
6.66242e-08
7.03034e-08
7.39685e-08
7.76225e-08
8.12689e-08
8.49115e-08
8.85539e-08
9.22001e-08
9.58533e-08
9.95165e-08
1.03192e-07
1.06882e-07
1.10587e-07
1.14307e-07
1.18043e-07
1.21792e-07
1.25553e-07
1.29324e-07
1.33102e-07
1.36881e-07
1.40659e-07
1.44431e-07
1.48191e-07
1.51933e-07
1.55652e-07
1.59341e-07
1.62995e-07
1.66605e-07
1.70165e-07
1.73668e-07
1.77106e-07
1.80472e-07
1.83757e-07
1.86953e-07
1.90052e-07
1.93045e-07
1.95924e-07
1.98678e-07
2.01298e-07
2.03775e-07
2.06098e-07
2.08257e-07
2.10242e-07
2.12042e-07
2.13647e-07
2.15044e-07
2.16225e-07
2.17177e-07
2.17891e-07
2.18344e-07
2.18529e-07
2.1848e-07
2.1815e-07
2.17533e-07
2.16623e-07
2.15416e-07
2.13907e-07
2.12093e-07
2.09975e-07
2.0755e-07
2.04822e-07
2.01795e-07
1.98473e-07
1.94865e-07
1.90981e-07
1.8683e-07
1.82428e-07
1.7779e-07
1.72933e-07
1.67875e-07
1.62637e-07
1.57241e-07
1.51709e-07
1.46066e-07
1.40335e-07
1.34541e-07
1.28709e-07
1.22864e-07
1.17029e-07
1.11228e-07
1.05483e-07
9.98149e-08
9.4244e-08
8.8788e-08
8.3463e-08
7.82835e-08
7.32617e-08
6.8408e-08
6.37309e-08
5.92366e-08
5.49296e-08
5.08124e-08
4.68859e-08
4.31494e-08
3.96007e-08
3.62361e-08
3.30512e-08
3.00403e-08
2.71971e-08
2.45145e-08
2.19853e-08
1.9602e-08
1.73572e-08
1.52435e-08
1.32543e-08
1.13838e-08
9.62716e-09
7.98117e-09
6.44464e-09
5.01918e-09
3.71022e-09
2.52887e-09
1.4955e-09
6.48353e-10
7.2078e-11
1.97364e-10
1.7744e-09
4.08491e-09
6.88302e-09
1.00441e-08
1.34877e-08
1.71548e-08
2.0999e-08
2.49823e-08
2.90726e-08
3.32431e-08
3.74704e-08
4.17353e-08
4.60212e-08
5.03149e-08
5.46057e-08
5.88855e-08
6.31486e-08
6.73914e-08
7.16123e-08
7.58111e-08
7.99894e-08
8.41496e-08
8.82951e-08
9.24297e-08
9.65575e-08
1.00683e-07
1.04809e-07
1.08941e-07
1.1308e-07
1.1723e-07
1.21392e-07
1.25566e-07
1.29753e-07
1.33952e-07
1.38161e-07
1.42378e-07
1.46599e-07
1.5082e-07
1.55037e-07
1.59245e-07
1.63439e-07
1.67612e-07
1.71758e-07
1.75872e-07
1.79944e-07
1.8397e-07
1.87941e-07
1.9185e-07
1.95689e-07
1.99451e-07
2.03127e-07
2.06708e-07
2.10187e-07
2.13554e-07
2.168e-07
2.19916e-07
2.22892e-07
2.25719e-07
2.28385e-07
2.30881e-07
2.33194e-07
2.35316e-07
2.37233e-07
2.38934e-07
2.40409e-07
2.41645e-07
2.42631e-07
2.43356e-07
2.43789e-07
2.43943e-07
2.43834e-07
2.43417e-07
2.42687e-07
2.41637e-07
2.40262e-07
2.38557e-07
2.36519e-07
2.34147e-07
2.31441e-07
2.28402e-07
2.25034e-07
2.21344e-07
2.17338e-07
2.13027e-07
2.08424e-07
2.03542e-07
1.98398e-07
1.9301e-07
1.87398e-07
1.81585e-07
1.75594e-07
1.6945e-07
1.63178e-07
1.56806e-07
1.50359e-07
1.43866e-07
1.37355e-07
1.3085e-07
1.2438e-07
1.17968e-07
1.11639e-07
1.05415e-07
9.93161e-08
9.33611e-08
8.75665e-08
8.19466e-08
7.65133e-08
7.12766e-08
6.62438e-08
6.14204e-08
5.68096e-08
5.24125e-08
4.82285e-08
4.42553e-08
4.04891e-08
3.69247e-08
3.35558e-08
3.03753e-08
2.73754e-08
2.45478e-08
2.1884e-08
1.93754e-08
1.7014e-08
1.47922e-08
1.27033e-08
1.07419e-08
8.90434e-09
7.18929e-09
5.59849e-09
4.13797e-09
2.8201e-09
1.66755e-09
7.22884e-10
8.03597e-11
2.22338e-10
1.99904e-09
4.60249e-09
7.75613e-09
1.13199e-08
1.52033e-08
1.93402e-08
2.36781e-08
2.8174e-08
3.27918e-08
3.75005e-08
4.22737e-08
4.70889e-08
5.19271e-08
5.67728e-08
6.16137e-08
6.64401e-08
7.12454e-08
7.60253e-08
8.07777e-08
8.55026e-08
9.02013e-08
9.48766e-08
9.95321e-08
1.04172e-07
1.08801e-07
1.13423e-07
1.18043e-07
1.22664e-07
1.27289e-07
1.31921e-07
1.3656e-07
1.41208e-07
1.45864e-07
1.50526e-07
1.55192e-07
1.59858e-07
1.64522e-07
1.69178e-07
1.73821e-07
1.78445e-07
1.83044e-07
1.87612e-07
1.92142e-07
1.96626e-07
2.01058e-07
2.05429e-07
2.09733e-07
2.13962e-07
2.18106e-07
2.2216e-07
2.26113e-07
2.29957e-07
2.33684e-07
2.37284e-07
2.40749e-07
2.44068e-07
2.47231e-07
2.50229e-07
2.5305e-07
2.55684e-07
2.58119e-07
2.60344e-07
2.62347e-07
2.64116e-07
2.65639e-07
2.66903e-07
2.67897e-07
2.68609e-07
2.69e-07
2.69109e-07
2.68922e-07
2.68405e-07
2.67551e-07
2.66353e-07
2.64805e-07
2.62903e-07
2.60643e-07
2.58023e-07
2.55043e-07
2.51705e-07
2.48011e-07
2.43969e-07
2.39585e-07
2.3487e-07
2.29836e-07
2.24499e-07
2.18875e-07
2.12983e-07
2.06845e-07
2.00484e-07
1.93924e-07
1.87192e-07
1.80316e-07
1.73323e-07
1.66245e-07
1.5911e-07
1.51947e-07
1.44787e-07
1.37659e-07
1.30589e-07
1.23605e-07
1.16731e-07
1.09991e-07
1.03405e-07
9.69934e-08
9.07713e-08
8.47533e-08
7.89505e-08
7.33721e-08
6.80244e-08
6.29116e-08
5.80353e-08
5.33953e-08
4.89893e-08
4.48133e-08
4.08616e-08
3.71275e-08
3.36031e-08
3.02796e-08
2.71479e-08
2.41984e-08
2.14217e-08
1.88085e-08
1.63504e-08
1.40399e-08
1.18709e-08
9.83926e-09
7.94339e-09
6.18517e-09
4.57121e-09
3.11511e-09
1.84186e-09
7.98402e-10
8.87518e-11
2.48697e-10
2.23611e-09
5.14874e-09
8.67762e-09
1.26665e-08
1.70144e-08
2.16473e-08
2.65069e-08
3.15447e-08
3.67199e-08
4.19974e-08
4.73471e-08
5.27432e-08
5.81638e-08
6.3591e-08
6.90102e-08
7.44103e-08
7.97836e-08
8.51247e-08
9.04314e-08
9.57032e-08
1.00942e-07
1.0615e-07
1.11331e-07
1.1649e-07
1.21633e-07
1.26763e-07
1.31884e-07
1.37001e-07
1.42117e-07
1.47233e-07
1.52351e-07
1.5747e-07
1.6259e-07
1.67708e-07
1.72822e-07
1.77927e-07
1.83019e-07
1.88092e-07
1.93141e-07
1.98159e-07
2.0314e-07
2.08076e-07
2.12961e-07
2.17786e-07
2.22544e-07
2.27228e-07
2.31829e-07
2.3634e-07
2.40752e-07
2.45058e-07
2.49248e-07
2.53315e-07
2.57249e-07
2.61042e-07
2.64683e-07
2.68164e-07
2.71473e-07
2.74602e-07
2.77538e-07
2.80271e-07
2.82788e-07
2.8508e-07
2.87132e-07
2.88934e-07
2.90472e-07
2.91735e-07
2.92709e-07
2.9338e-07
2.93706e-07
2.93754e-07
2.93473e-07
2.92843e-07
2.91856e-07
2.90504e-07
2.88783e-07
2.86687e-07
2.84211e-07
2.81355e-07
2.78116e-07
2.74497e-07
2.705e-07
2.66131e-07
2.61397e-07
2.56309e-07
2.50879e-07
2.45122e-07
2.39054e-07
2.32696e-07
2.26069e-07
2.19197e-07
2.12105e-07
2.04822e-07
1.97375e-07
1.89796e-07
1.82116e-07
1.74366e-07
1.66578e-07
1.58784e-07
1.51016e-07
1.43304e-07
1.35677e-07
1.28164e-07
1.20789e-07
1.13577e-07
1.0655e-07
9.97253e-08
9.31198e-08
8.6747e-08
8.06174e-08
7.4739e-08
6.91168e-08
6.37536e-08
5.86495e-08
5.38025e-08
4.92085e-08
4.48619e-08
4.07552e-08
3.68798e-08
3.32264e-08
2.97848e-08
2.65444e-08
2.34948e-08
2.06258e-08
1.79278e-08
1.53926e-08
1.30132e-08
1.0785e-08
8.70619e-09
6.77861e-09
5.00947e-09
3.41357e-09
2.01823e-09
8.74824e-10
9.72449e-11
2.76484e-10
2.48602e-09
5.72456e-09
9.64905e-09
1.40861e-08
1.89239e-08
2.40803e-08
2.94903e-08
3.51e-08
4.08636e-08
4.67414e-08
5.26991e-08
5.87073e-08
6.47407e-08
7.07787e-08
7.68043e-08
8.28047e-08
8.87706e-08
9.4696e-08
1.00578e-07
1.06415e-07
1.12211e-07
1.17966e-07
1.23686e-07
1.29376e-07
1.3504e-07
1.40684e-07
1.46311e-07
1.51926e-07
1.57532e-07
1.63129e-07
1.6872e-07
1.74302e-07
1.79875e-07
1.85436e-07
1.90981e-07
1.96505e-07
2.02004e-07
2.0747e-07
2.12899e-07
2.18281e-07
2.23612e-07
2.28882e-07
2.34085e-07
2.39213e-07
2.44258e-07
2.49213e-07
2.54069e-07
2.58818e-07
2.63453e-07
2.67965e-07
2.72347e-07
2.76589e-07
2.80683e-07
2.8462e-07
2.88391e-07
2.91986e-07
2.95395e-07
2.98608e-07
3.01614e-07
3.04401e-07
3.06958e-07
3.09274e-07
3.11337e-07
3.13134e-07
3.14652e-07
3.15881e-07
3.16807e-07
3.17402e-07
3.17651e-07
3.17616e-07
3.17226e-07
3.16472e-07
3.15345e-07
3.13839e-07
3.11947e-07
3.09665e-07
3.06987e-07
3.0391e-07
3.00435e-07
2.96561e-07
2.92291e-07
2.8763e-07
2.82584e-07
2.77164e-07
2.71381e-07
2.65249e-07
2.58786e-07
2.52009e-07
2.44942e-07
2.37607e-07
2.30031e-07
2.22242e-07
2.14271e-07
2.06147e-07
1.97904e-07
1.89576e-07
1.81196e-07
1.72799e-07
1.64417e-07
1.56086e-07
1.47835e-07
1.39697e-07
1.317e-07
1.2387e-07
1.16232e-07
1.08807e-07
1.01614e-07
9.46685e-08
8.79836e-08
8.15687e-08
7.54305e-08
6.95727e-08
6.39963e-08
5.86999e-08
5.36797e-08
4.89297e-08
4.44425e-08
4.02088e-08
3.62185e-08
3.24605e-08
2.89236e-08
2.5596e-08
2.24666e-08
1.95249e-08
1.67615e-08
1.41689e-08
1.17416e-08
9.47763e-09
7.37876e-09
5.45269e-09
3.71543e-09
2.19663e-09
9.52135e-10
1.05837e-10
3.05739e-10
2.74915e-09
6.33084e-09
1.06719e-08
1.5581e-08
2.09349e-08
2.66429e-08
3.26332e-08
3.88458e-08
4.52296e-08
5.17398e-08
5.83376e-08
6.49894e-08
7.16663e-08
7.83443e-08
8.5004e-08
9.16303e-08
9.82124e-08
1.04743e-07
1.11219e-07
1.17639e-07
1.24005e-07
1.30319e-07
1.36587e-07
1.42814e-07
1.49004e-07
1.55163e-07
1.61296e-07
1.67405e-07
1.73494e-07
1.79564e-07
1.85615e-07
1.91646e-07
1.97655e-07
2.03638e-07
2.09591e-07
2.15508e-07
2.21384e-07
2.27212e-07
2.32985e-07
2.38696e-07
2.44337e-07
2.49901e-07
2.55379e-07
2.60765e-07
2.6605e-07
2.71227e-07
2.76288e-07
2.81225e-07
2.86031e-07
2.90698e-07
2.95219e-07
2.99583e-07
3.03785e-07
3.07814e-07
3.11661e-07
3.15318e-07
3.18775e-07
3.22021e-07
3.25047e-07
3.2784e-07
3.3039e-07
3.32687e-07
3.34717e-07
3.36469e-07
3.37931e-07
3.39091e-07
3.39937e-07
3.40428e-07
3.40593e-07
3.40449e-07
3.39936e-07
3.3905e-07
3.37781e-07
3.36123e-07
3.34069e-07
3.31614e-07
3.28752e-07
3.2548e-07
3.21797e-07
3.17703e-07
3.13198e-07
3.08288e-07
3.02977e-07
2.97275e-07
2.91192e-07
2.84741e-07
2.77938e-07
2.70801e-07
2.63352e-07
2.55613e-07
2.4761e-07
2.39373e-07
2.3093e-07
2.22313e-07
2.13557e-07
2.04696e-07
1.95765e-07
1.86801e-07
1.7784e-07
1.68917e-07
1.60067e-07
1.51324e-07
1.4272e-07
1.34283e-07
1.26043e-07
1.18022e-07
1.10244e-07
1.02725e-07
9.54816e-08
8.85251e-08
8.18641e-08
7.5504e-08
6.94468e-08
6.3692e-08
5.82362e-08
5.30738e-08
4.81971e-08
4.35966e-08
3.92615e-08
3.518e-08
3.13399e-08
2.77285e-08
2.43336e-08
2.11437e-08
1.81483e-08
1.53391e-08
1.271e-08
1.02584e-08
7.98607e-09
5.90118e-09
4.0209e-09
2.37718e-09
1.03038e-09
1.14534e-10
3.36504e-10
3.02584e-09
6.96838e-09
1.17476e-08
1.71533e-08
2.30502e-08
2.93388e-08
3.594e-08
4.27874e-08
4.98239e-08
5.69994e-08
6.427e-08
7.15972e-08
7.89481e-08
8.62949e-08
9.36154e-08
1.00892e-07
1.08112e-07
1.15268e-07
1.22354e-07
1.2937e-07
1.36318e-07
1.43199e-07
1.5002e-07
1.56786e-07
1.63502e-07
1.70173e-07
1.76804e-07
1.83399e-07
1.89959e-07
1.96486e-07
2.0298e-07
2.09438e-07
2.15858e-07
2.22235e-07
2.28566e-07
2.34843e-07
2.4106e-07
2.4721e-07
2.53287e-07
2.59282e-07
2.65187e-07
2.70995e-07
2.76699e-07
2.82291e-07
2.87763e-07
2.93108e-07
2.98319e-07
3.03388e-07
3.08308e-07
3.13073e-07
3.17674e-07
3.22103e-07
3.26354e-07
3.30417e-07
3.34284e-07
3.37946e-07
3.41395e-07
3.44621e-07
3.47613e-07
3.50361e-07
3.52856e-07
3.55086e-07
3.5704e-07
3.58707e-07
3.60075e-07
3.61134e-07
3.61868e-07
3.62232e-07
3.62301e-07
3.62027e-07
3.61383e-07
3.6036e-07
3.58952e-07
3.5715e-07
3.54947e-07
3.52338e-07
3.49317e-07
3.45881e-07
3.42026e-07
3.37753e-07
3.3306e-07
3.27951e-07
3.2243e-07
3.16504e-07
3.10182e-07
3.03476e-07
2.96399e-07
2.88969e-07
2.81205e-07
2.7313e-07
2.64767e-07
2.56145e-07
2.47294e-07
2.38245e-07
2.29032e-07
2.1969e-07
2.10258e-07
2.00771e-07
1.91269e-07
1.8179e-07
1.7237e-07
1.63047e-07
1.53856e-07
1.44828e-07
1.35996e-07
1.27387e-07
1.19026e-07
1.10934e-07
1.03129e-07
9.56258e-08
8.84352e-08
8.15643e-08
7.50169e-08
6.87936e-08
6.28919e-08
5.73067e-08
5.20303e-08
4.70532e-08
4.23642e-08
3.79507e-08
3.37998e-08
2.98977e-08
2.62313e-08
2.27878e-08
1.95559e-08
1.65262e-08
1.36919e-08
1.10497e-08
8.6015e-09
6.35563e-09
4.33042e-09
2.56013e-09
1.10968e-09
1.23348e-10
3.68811e-10
3.3164e-09
7.63792e-09
1.28773e-08
1.88047e-08
2.52723e-08
3.21712e-08
3.94146e-08
4.69293e-08
5.46519e-08
6.25261e-08
7.05022e-08
7.85367e-08
8.65918e-08
9.46357e-08
1.02643e-07
1.10593e-07
1.18471e-07
1.26268e-07
1.33979e-07
1.41602e-07
1.49138e-07
1.56591e-07
1.63966e-07
1.71268e-07
1.78504e-07
1.85679e-07
1.92796e-07
1.99861e-07
2.06874e-07
2.13836e-07
2.20747e-07
2.27605e-07
2.34404e-07
2.41142e-07
2.47813e-07