/*--------------------------------*- C++ -*----------------------------------*\
  =========                 |
  \\      /  F ield         | OpenFOAM: The Open Source CFD Toolbox
   \\    /   O peration     | Website:  https://openfoam.org
    \\  /    A nd           | Version:  12
     \\/     M anipulation  |
\*---------------------------------------------------------------------------*/
FoamFile
{
    format      ascii;
    class       volScalarField;
    location    "8.5";
    object      nut;
}
// * * * * * * * * * * * * * * * * * * * * * * * * * * * * * * * * * * * * * //

dimensions      [0 2 -1 0 0 0 0];

internalField   nonuniform List<scalar> 
18225
(
4.03463e-17
2.01626e-16
4.41254e-16
7.29005e-16
1.05141e-15
1.40051e-15
1.77069e-15
2.15757e-15
2.55762e-15
2.96785e-15
3.38578e-15
3.80928e-15
4.23657e-15
4.66616e-15
5.09685e-15
5.52766e-15
5.95785e-15
6.3869e-15
6.81446e-15
7.24036e-15
7.66456e-15
8.08716e-15
8.50839e-15
8.92853e-15
9.34795e-15
9.76709e-15
1.01864e-14
1.06063e-14
1.10273e-14
1.14498e-14
1.18742e-14
1.23009e-14
1.27302e-14
1.31623e-14
1.35974e-14
1.40357e-14
1.44771e-14
1.49216e-14
1.53691e-14
1.58194e-14
1.62722e-14
1.67271e-14
1.71837e-14
1.76414e-14
1.80998e-14
1.85581e-14
1.90157e-14
1.94716e-14
1.9925e-14
2.03751e-14
2.08207e-14
2.12608e-14
2.16943e-14
2.21198e-14
2.25363e-14
2.29422e-14
2.33362e-14
2.37169e-14
2.40827e-14
2.44321e-14
2.47634e-14
2.50751e-14
2.53655e-14
2.56329e-14
2.58757e-14
2.60921e-14
2.62806e-14
2.64395e-14
2.65674e-14
2.66627e-14
2.67237e-14
2.67492e-14
2.67393e-14
2.66922e-14
2.66069e-14
2.64826e-14
2.63189e-14
2.61154e-14
2.58721e-14
2.55892e-14
2.5267e-14
2.49062e-14
2.45078e-14
2.40728e-14
2.36026e-14
2.30989e-14
2.25636e-14
2.19987e-14
2.14065e-14
2.07895e-14
2.01502e-14
1.94915e-14
1.88162e-14
1.81273e-14
1.74276e-14
1.67202e-14
1.60081e-14
1.52943e-14
1.45814e-14
1.38724e-14
1.31698e-14
1.24761e-14
1.17936e-14
1.11244e-14
1.04704e-14
9.8333e-15
9.21457e-15
8.61546e-15
8.03699e-15
7.47999e-15
6.94505e-15
6.43255e-15
5.94268e-15
5.4755e-15
5.03083e-15
4.60835e-15
4.20761e-15
3.82807e-15
3.46906e-15
3.12984e-15
2.80964e-15
2.5076e-15
2.22289e-15
1.95469e-15
1.70219e-15
1.46469e-15
1.24158e-15
1.03243e-15
8.37009e-16
6.55409e-16
4.88166e-16
3.36507e-16
2.0289e-16
9.25091e-17
1.85019e-17
2.01747e-16
1.82971e-14
6.21329e-14
1.14803e-13
1.72332e-13
2.33718e-13
2.98279e-13
3.65425e-13
4.34629e-13
5.05432e-13
5.77431e-13
6.50279e-13
7.23688e-13
7.97414e-13
8.71258e-13
9.4506e-13
1.0187e-12
1.09209e-12
1.16518e-12
1.23794e-12
1.31037e-12
1.38249e-12
1.45434e-12
1.52597e-12
1.59746e-12
1.66887e-12
1.74028e-12
1.81179e-12
1.88346e-12
1.95538e-12
2.02761e-12
2.10022e-12
2.17327e-12
2.2468e-12
2.32084e-12
2.39541e-12
2.47051e-12
2.54615e-12
2.62229e-12
2.69892e-12
2.77597e-12
2.8534e-12
2.93113e-12
3.00907e-12
3.08713e-12
3.16519e-12
3.24315e-12
3.32085e-12
3.39816e-12
3.47492e-12
3.55096e-12
3.6261e-12
3.70014e-12
3.77289e-12
3.84411e-12
3.9136e-12
3.9811e-12
4.04638e-12
4.10918e-12
4.16923e-12
4.22626e-12
4.27998e-12
4.33013e-12
4.3764e-12
4.41852e-12
4.45619e-12
4.48912e-12
4.51702e-12
4.53955e-12
4.55645e-12
4.56746e-12
4.57237e-12
4.5713e-12
4.56386e-12
4.54986e-12
4.52917e-12
4.50171e-12
4.46742e-12
4.42627e-12
4.37829e-12
4.32355e-12
4.26215e-12
4.19424e-12
4.12002e-12
4.03972e-12
3.95361e-12
3.86203e-12
3.76533e-12
3.66389e-12
3.55815e-12
3.44856e-12
3.3356e-12
3.21975e-12
3.10153e-12
2.98146e-12
2.86006e-12
2.73784e-12
2.61531e-12
2.49296e-12
2.37128e-12
2.25072e-12
2.13171e-12
2.01463e-12
1.89987e-12
1.78774e-12
1.67854e-12
1.57252e-12
1.4699e-12
1.37084e-12
1.2755e-12
1.18396e-12
1.0963e-12
1.01254e-12
9.32659e-13
8.56648e-13
7.84457e-13
7.16008e-13
6.51203e-13
5.89922e-13
5.32036e-13
4.77403e-13
4.25874e-13
3.77298e-13
3.31527e-13
2.88417e-13
2.47835e-13
2.09664e-13
1.73809e-13
1.40204e-13
1.08818e-13
7.96644e-14
5.28128e-14
2.85085e-14
8.38929e-15
9.24703e-17
4.42608e-16
6.22049e-14
3.15644e-13
7.11464e-13
1.17172e-12
1.66512e-12
2.18048e-12
2.71236e-12
3.25698e-12
3.81122e-12
4.37239e-12
4.93811e-12
5.5064e-12
6.07555e-12
6.64417e-12
7.21118e-12
7.77574e-12
8.33731e-12
8.89553e-12
9.45031e-12
1.00017e-11
1.05499e-11
1.10954e-11
1.16386e-11
1.218e-11
1.27204e-11
1.32603e-11
1.38005e-11
1.43416e-11
1.48842e-11
1.54289e-11
1.59763e-11
1.65268e-11
1.70807e-11
1.76384e-11
1.81999e-11
1.87655e-11
1.93351e-11
1.99084e-11
2.04855e-11
2.10658e-11
2.1649e-11
2.22346e-11
2.2822e-11
2.34104e-11
2.39992e-11
2.45874e-11
2.5174e-11
2.5758e-11
2.63382e-11
2.69135e-11
2.74824e-11
2.80436e-11
2.85956e-11
2.91367e-11
2.96653e-11
3.01796e-11
3.06778e-11
3.11579e-11
3.16179e-11
3.20559e-11
3.24695e-11
3.28568e-11
3.32154e-11
3.35432e-11
3.38379e-11
3.40972e-11
3.43189e-11
3.45008e-11
3.46406e-11
3.47362e-11
3.47847e-11
3.47886e-11
3.4744e-11
3.46492e-11
3.45032e-11
3.43051e-11
3.40544e-11
3.37507e-11
3.33942e-11
3.29853e-11
3.25245e-11
3.20131e-11
3.14524e-11
3.08441e-11
3.01904e-11
2.94937e-11
2.87568e-11
2.79826e-11
2.71745e-11
2.6336e-11
2.54708e-11
2.45829e-11
2.36762e-11
2.27548e-11
2.18229e-11
2.08844e-11
1.99434e-11
1.90038e-11
1.80693e-11
1.71436e-11
1.623e-11
1.53317e-11
1.44514e-11
1.35917e-11
1.27549e-11
1.1943e-11
1.11576e-11
1.04001e-11
9.67138e-12
8.9723e-12
8.30327e-12
7.66449e-12
7.05587e-12
6.47712e-12
5.9278e-12
5.40723e-12
4.91458e-12
4.44888e-12
4.00905e-12
3.59391e-12
3.20224e-12
2.83279e-12
2.48428e-12
2.15547e-12
1.84516e-12
1.55225e-12
1.27572e-12
1.01475e-12
7.6883e-13
5.38254e-13
3.26028e-13
1.44595e-13
2.84915e-14
2.02454e-16
7.34439e-16
1.15312e-13
7.12581e-13
1.89617e-12
3.47347e-12
5.2626e-12
7.16556e-12
9.13479e-12
1.11453e-11
1.31816e-11
1.52329e-11
1.72907e-11
1.93481e-11
2.13995e-11
2.34407e-11
2.54682e-11
2.74798e-11
2.94738e-11
3.14497e-11
3.34075e-11
3.53478e-11
3.72721e-11
3.91819e-11
4.10795e-11
4.29672e-11
4.48475e-11
4.67232e-11
4.85968e-11
5.04711e-11
5.23485e-11
5.42314e-11
5.61217e-11
5.80213e-11
5.99316e-11
6.18538e-11
6.37887e-11
6.57368e-11
6.76982e-11
6.96726e-11
7.16596e-11
7.36581e-11
7.56669e-11
7.76845e-11
7.9709e-11
8.17382e-11
8.37696e-11
8.58004e-11
8.78276e-11
8.98476e-11
9.18569e-11
9.38512e-11
9.58263e-11
9.77775e-11
9.96997e-11
1.01588e-10
1.03436e-10
1.05238e-10
1.06988e-10
1.08679e-10
1.10304e-10
1.11856e-10
1.13328e-10
1.14711e-10
1.15999e-10
1.17183e-10
1.18254e-10
1.19206e-10
1.20029e-10
1.20716e-10
1.21261e-10
1.2165e-10
1.21874e-10
1.21946e-10
1.21847e-10
1.21572e-10
1.21116e-10
1.20475e-10
1.19648e-10
1.18632e-10
1.17427e-10
1.16034e-10
1.14454e-10
1.12692e-10
1.10752e-10
1.08639e-10
1.06361e-10
1.03926e-10
1.01344e-10
9.86263e-11
9.57839e-11
9.28299e-11
8.97776e-11
8.66412e-11
8.34352e-11
8.01745e-11
7.6874e-11
7.35488e-11
7.02133e-11
6.68821e-11
6.35688e-11
6.02866e-11
5.70476e-11
5.38634e-11
5.07443e-11
4.76996e-11
4.47374e-11
4.18649e-11
3.90879e-11
3.64112e-11
3.38383e-11
3.13717e-11
2.90129e-11
2.67625e-11
2.46199e-11
2.25839e-11
2.06526e-11
1.88232e-11
1.70925e-11
1.54567e-11
1.39116e-11
1.24526e-11
1.10749e-11
9.77363e-12
8.54365e-12
7.37992e-12
6.27757e-12
5.23206e-12
4.23961e-12
3.29819e-12
2.40993e-12
1.58727e-12
8.66671e-13
3.25909e-13
5.2673e-14
3.34713e-16
1.06602e-15
1.74076e-13
1.17806e-12
3.48168e-12
6.96052e-12
1.12334e-11
1.59734e-11
2.09732e-11
2.61122e-11
3.13193e-11
3.65503e-11
4.17759e-11
4.69754e-11
5.21338e-11
5.72405e-11
6.2288e-11
6.72717e-11
7.21892e-11
7.70405e-11
8.18272e-11
8.65526e-11
9.12212e-11
9.58389e-11
1.00412e-10
1.04948e-10
1.09454e-10
1.13937e-10
1.18406e-10
1.22868e-10
1.27329e-10
1.31797e-10
1.36276e-10
1.40773e-10
1.4529e-10
1.49832e-10
1.54402e-10
1.59001e-10
1.63629e-10
1.68287e-10
1.72975e-10
1.7769e-10
1.82431e-10
1.87193e-10
1.91974e-10
1.96769e-10
2.01572e-10
2.06378e-10
2.11179e-10
2.15968e-10
2.20738e-10
2.25479e-10
2.3018e-10
2.34833e-10
2.39424e-10
2.43942e-10
2.48374e-10
2.52705e-10
2.56921e-10
2.61007e-10
2.64944e-10
2.68717e-10
2.72308e-10
2.75696e-10
2.78865e-10
2.81792e-10
2.8446e-10
2.86847e-10
2.88933e-10
2.90698e-10
2.92138e-10
2.93187e-10
2.93849e-10
2.94153e-10
2.94045e-10
2.93512e-10
2.92541e-10
2.91121e-10
2.89247e-10
2.86911e-10
2.84113e-10
2.80853e-10
2.77135e-10
2.72965e-10
2.68354e-10
2.63316e-10
2.57867e-10
2.52028e-10
2.45822e-10
2.39274e-10
2.32414e-10
2.25273e-10
2.17883e-10
2.10281e-10
2.02501e-10
1.94581e-10
1.86557e-10
1.78468e-10
1.70349e-10
1.62236e-10
1.54165e-10
1.46167e-10
1.38273e-10
1.30512e-10
1.2291e-10
1.15491e-10
1.08274e-10
1.01276e-10
9.45141e-11
8.79982e-11
8.17374e-11
7.57379e-11
7.0003e-11
6.45336e-11
5.93284e-11
5.43839e-11
4.96946e-11
4.52533e-11
4.10513e-11
3.70784e-11
3.33235e-11
2.97744e-11
2.64183e-11
2.32418e-11
2.02315e-11
1.73739e-11
1.46569e-11
1.20704e-11
9.60943e-12
7.27976e-12
5.10937e-12
3.16797e-12
1.5871e-12
5.37048e-13
7.91402e-14
4.83196e-16
1.432e-15
2.37974e-13
1.68513e-12
5.30021e-12
1.12747e-11
1.91701e-11
2.83754e-11
3.83787e-11
4.88235e-11
5.94793e-11
7.01994e-11
8.08896e-11
9.14882e-11
1.01955e-10
1.12263e-10
1.22398e-10
1.32349e-10
1.42116e-10
1.51701e-10
1.6111e-10
1.70353e-10
1.79444e-10
1.88397e-10
1.97228e-10
2.05954e-10
2.14594e-10
2.23165e-10
2.31685e-10
2.4017e-10
2.48637e-10
2.571e-10
2.65571e-10
2.74064e-10
2.82587e-10
2.91149e-10
2.99756e-10
3.08414e-10
3.17124e-10
3.25889e-10
3.34708e-10
3.43579e-10
3.525e-10
3.61464e-10
3.70467e-10
3.795e-10
3.88555e-10
3.97622e-10
4.06688e-10
4.1574e-10
4.24763e-10
4.33742e-10
4.42658e-10
4.51492e-10
4.60223e-10
4.68827e-10
4.7728e-10
4.85555e-10
4.93625e-10
5.01459e-10
5.09026e-10
5.16292e-10
5.23222e-10
5.29781e-10
5.3593e-10
5.41632e-10
5.46845e-10
5.51531e-10
5.55649e-10
5.5916e-10
5.62072e-10
5.64189e-10
5.65605e-10
5.66334e-10
5.66274e-10
5.65397e-10
5.63677e-10
5.61095e-10
5.57634e-10
5.53284e-10
5.48039e-10
5.41899e-10
5.3487e-10
5.26964e-10
5.182e-10
5.08604e-10
4.98206e-10
4.87045e-10
4.75164e-10
4.62614e-10
4.4945e-10
4.3573e-10
4.2152e-10
4.06885e-10
3.91896e-10
3.76623e-10
3.6114e-10
3.45518e-10
3.29829e-10
3.14143e-10
2.98527e-10
2.83045e-10
2.67759e-10
2.52723e-10
2.37989e-10
2.23604e-10
2.09607e-10
1.96034e-10
1.82913e-10
1.70268e-10
1.58117e-10
1.46471e-10
1.35337e-10
1.24716e-10
1.14607e-10
1.05002e-10
9.58891e-11
8.72542e-11
7.90789e-11
7.13426e-11
6.4022e-11
5.70919e-11
5.05257e-11
4.42959e-11
3.83753e-11
3.27384e-11
2.73642e-11
2.22416e-11
1.73789e-11
1.28197e-11
8.66705e-12
5.10897e-12
2.40566e-12
7.64001e-13
1.07457e-13
6.4438e-16
1.82963e-15
3.0684e-13
2.22722e-12
7.27253e-12
1.61331e-11
2.85333e-11
4.36665e-11
6.0649e-11
7.87464e-11
9.74224e-11
1.16309e-10
1.35163e-10
1.53824e-10
1.72188e-10
1.90192e-10
2.07801e-10
2.24997e-10
2.41778e-10
2.58153e-10
2.7414e-10
2.89762e-10
3.05047e-10
3.20028e-10
3.34739e-10
3.49216e-10
3.63496e-10
3.77614e-10
3.91605e-10
4.05503e-10
4.19338e-10
4.33139e-10
4.46931e-10
4.60739e-10
4.7458e-10
4.88471e-10
5.02426e-10
5.16454e-10
5.30563e-10
5.44757e-10
5.59037e-10
5.73402e-10
5.87848e-10
6.0237e-10
6.16956e-10
6.31598e-10
6.46281e-10
6.6099e-10
6.75706e-10
6.90408e-10
7.05073e-10
7.19674e-10
7.34184e-10
7.48569e-10
7.62796e-10
7.76826e-10
7.9062e-10
8.04133e-10
8.17319e-10
8.30128e-10
8.42508e-10
8.54403e-10
8.65755e-10
8.76504e-10
8.86587e-10
8.95941e-10
9.04498e-10
9.12191e-10
9.18951e-10
9.24736e-10
9.29539e-10
9.32983e-10
9.3533e-10
9.36542e-10
9.36456e-10
9.35025e-10
9.32209e-10
9.27977e-10
9.22303e-10
9.15168e-10
9.06564e-10
8.96489e-10
8.84955e-10
8.71981e-10
8.57597e-10
8.41844e-10
8.24772e-10
8.06445e-10
7.86931e-10
7.66313e-10
7.44679e-10
7.22126e-10
6.98756e-10
6.7468e-10
6.50009e-10
6.2486e-10
5.9935e-10
5.73598e-10
5.47721e-10
5.21832e-10
4.96042e-10
4.70458e-10
4.45179e-10
4.20298e-10
3.95901e-10
3.72064e-10
3.48854e-10
3.26332e-10
3.04545e-10
2.83533e-10
2.63327e-10
2.43948e-10
2.25407e-10
2.07709e-10
1.90849e-10
1.74814e-10
1.59587e-10
1.45141e-10
1.31446e-10
1.18468e-10
1.06166e-10
9.44962e-11
8.34134e-11
7.28712e-11
6.28255e-11
5.3239e-11
4.40891e-11
3.53793e-11
2.71598e-11
1.95587e-11
1.28128e-11
7.26603e-12
3.27906e-12
1.00185e-12
1.37331e-13
8.15799e-16
2.25753e-15
3.80612e-13
2.80345e-12
9.37074e-12
2.13829e-11
3.89185e-11
6.11345e-11
8.68083e-11
1.14746e-10
1.43967e-10
1.73743e-10
2.03559e-10
2.33067e-10
2.62044e-10
2.9035e-10
3.17906e-10
3.44678e-10
3.70661e-10
3.95874e-10
4.20352e-10
4.44141e-10
4.67297e-10
4.89881e-10
5.11956e-10
5.3359e-10
5.54846e-10
5.7579e-10
5.96484e-10
6.16985e-10
6.37348e-10
6.57621e-10
6.77851e-10
6.98074e-10
7.18326e-10
7.38633e-10
7.5902e-10
7.79504e-10
8.00098e-10
8.20811e-10
8.41646e-10
8.62602e-10
8.83676e-10
9.04859e-10
9.26137e-10
9.47495e-10
9.68915e-10
9.90372e-10
1.01184e-09
1.03329e-09
1.05468e-09
1.07597e-09
1.09713e-09
1.11811e-09
1.13884e-09
1.15928e-09
1.17936e-09
1.19902e-09
1.21819e-09
1.2368e-09
1.25476e-09
1.27199e-09
1.28841e-09
1.30392e-09
1.31845e-09
1.33188e-09
1.34412e-09
1.35509e-09
1.36468e-09
1.37284e-09
1.37956e-09
1.38421e-09
1.38733e-09
1.38875e-09
1.38825e-09
1.38579e-09
1.38129e-09
1.37473e-09
1.36606e-09
1.35526e-09
1.34233e-09
1.32726e-09
1.31008e-09
1.29081e-09
1.26949e-09
1.2462e-09
1.221e-09
1.19398e-09
1.16525e-09
1.13492e-09
1.10312e-09
1.06998e-09
1.03566e-09
1.00031e-09
9.64082e-10
9.27153e-10
8.89688e-10
8.51854e-10
8.13819e-10
7.75747e-10
7.37798e-10
7.00123e-10
6.62868e-10
6.26168e-10
5.90147e-10
5.54919e-10
5.20584e-10
4.87228e-10
4.54927e-10
4.2374e-10
3.93713e-10
3.64881e-10
3.37261e-10
3.10863e-10
2.85681e-10
2.61698e-10
2.38888e-10
2.17213e-10
1.96629e-10
1.77082e-10
1.58514e-10
1.40858e-10
1.24047e-10
1.08015e-10
9.27027e-11
7.80663e-11
6.40947e-11
5.0834e-11
3.84201e-11
2.71151e-11
1.73255e-11
9.54877e-12
4.18643e-12
1.24825e-12
1.6851e-13
9.95555e-16
2.7152e-15
4.59305e-13
3.41454e-12
1.15887e-11
2.69589e-11
5.00925e-11
8.02647e-11
1.16002e-10
1.55631e-10
1.97636e-10
2.40793e-10
2.84196e-10
3.27206e-10
3.69396e-10
4.10499e-10
4.5036e-10
4.88908e-10
5.26133e-10
5.62063e-10
5.9676e-10
6.30302e-10
6.62785e-10
6.94311e-10
7.24988e-10
7.54926e-10
7.8423e-10
8.13007e-10
8.41354e-10
8.69366e-10
8.97127e-10
9.24715e-10
9.52199e-10
9.79641e-10
1.00709e-09
1.0346e-09
1.06219e-09
1.0899e-09
1.11774e-09
1.14574e-09
1.17389e-09
1.2022e-09
1.23066e-09
1.25926e-09
1.28798e-09
1.31681e-09
1.34571e-09
1.37465e-09
1.40358e-09
1.43247e-09
1.46127e-09
1.48992e-09
1.51835e-09
1.5465e-09
1.5743e-09
1.60166e-09
1.6285e-09
1.65473e-09
1.68025e-09
1.70496e-09
1.72875e-09
1.75151e-09
1.77311e-09
1.79344e-09
1.81237e-09
1.82978e-09
1.84555e-09
1.85953e-09
1.87162e-09
1.88171e-09
1.88985e-09
1.89514e-09
1.89843e-09
1.89937e-09
1.89772e-09
1.89341e-09
1.88637e-09
1.87657e-09
1.86395e-09
1.84851e-09
1.83024e-09
1.80914e-09
1.78525e-09
1.75861e-09
1.72928e-09
1.69736e-09
1.66293e-09
1.62613e-09
1.58708e-09
1.54593e-09
1.50287e-09
1.45805e-09
1.41168e-09
1.36395e-09
1.31508e-09
1.26528e-09
1.21476e-09
1.16374e-09
1.11244e-09
1.06107e-09
1.00984e-09
9.58949e-10
9.08586e-10
8.58927e-10
8.10139e-10
7.62371e-10
7.15758e-10
6.70417e-10
6.26449e-10
5.83937e-10
5.42946e-10
5.03523e-10
4.65698e-10
4.29484e-10
3.94878e-10
3.61859e-10
3.30393e-10
3.00434e-10
2.7192e-10
2.44779e-10
2.18929e-10
1.94284e-10
1.70755e-10
1.48259e-10
1.26728e-10
1.06127e-10
8.64798e-11
6.7905e-11
5.06607e-11
3.51791e-11
2.20523e-11
1.19049e-11
5.11676e-12
1.50157e-12
2.00767e-13
1.18212e-15
3.2027e-15
5.42989e-13
4.06175e-12
1.3929e-11
3.28429e-11
6.19469e-11
1.00753e-10
1.47632e-10
2.00455e-10
2.5711e-10
3.15783e-10
3.75058e-10
4.33898e-10
4.91595e-10
5.47689e-10
6.01917e-10
6.54151e-10
7.04364e-10
7.52599e-10
7.9895e-10
8.43541e-10
8.8652e-10
9.28046e-10
9.68284e-10
1.0074e-09
1.04556e-09
1.08291e-09
1.11961e-09
1.15579e-09
1.19158e-09
1.22709e-09
1.26241e-09
1.29764e-09
1.33284e-09
1.36809e-09
1.40342e-09
1.43888e-09
1.4745e-09
1.51029e-09
1.54627e-09
1.58242e-09
1.61874e-09
1.65522e-09
1.69184e-09
1.72855e-09
1.76531e-09
1.80209e-09
1.83883e-09
1.87546e-09
1.91191e-09
1.94812e-09
1.98398e-09
2.01943e-09
2.05435e-09
2.08863e-09
2.12217e-09
2.15484e-09
2.18653e-09
2.21708e-09
2.24636e-09
2.27424e-09
2.30055e-09
2.32516e-09
2.34789e-09
2.36861e-09
2.38715e-09
2.40336e-09
2.41709e-09
2.42821e-09
2.43673e-09
2.44172e-09
2.44424e-09
2.44366e-09
2.43979e-09
2.43257e-09
2.42194e-09
2.40785e-09
2.39027e-09
2.36917e-09
2.34458e-09
2.31651e-09
2.28501e-09
2.25014e-09
2.21199e-09
2.17067e-09
2.1263e-09
2.07905e-09
2.02907e-09
1.97655e-09
1.9217e-09
1.86473e-09
1.80587e-09
1.74537e-09
1.68348e-09
1.62046e-09
1.55656e-09
1.49204e-09
1.42717e-09
1.36221e-09
1.2974e-09
1.23298e-09
1.16919e-09
1.10624e-09
1.04433e-09
9.83647e-10
9.2436e-10
8.66615e-10
8.10537e-10
7.56231e-10
7.03782e-10
6.53253e-10
6.04683e-10
5.58092e-10
5.13479e-10
4.70823e-10
4.30084e-10
3.91204e-10
3.54107e-10
3.18705e-10
2.84897e-10
2.52576e-10
2.21637e-10
1.91985e-10
1.63552e-10
1.36329e-10
1.10396e-10
8.5974e-11
6.34754e-11
4.35238e-11
2.68935e-11
1.4303e-11
6.06326e-12
1.76049e-12
2.3391e-13
1.37425e-15
3.72054e-15
6.31778e-13
4.74659e-12
1.63971e-11
3.90387e-11
7.44479e-11
1.22454e-10
1.81348e-10
2.48576e-10
3.21406e-10
3.97358e-10
4.74409e-10
5.51038e-10
6.26171e-10
6.99106e-10
7.69428e-10
8.36932e-10
9.01569e-10
9.63398e-10
1.02255e-09
1.07921e-09
1.13358e-09
1.18591e-09
1.23642e-09
1.28535e-09
1.33294e-09
1.37939e-09
1.42492e-09
1.46972e-09
1.51394e-09
1.55776e-09
1.60129e-09
1.64466e-09
1.68796e-09
1.73128e-09
1.77467e-09
1.81818e-09
1.86185e-09
1.9057e-09
1.94974e-09
1.99395e-09
2.03833e-09
2.08285e-09
2.12748e-09
2.17217e-09
2.21685e-09
2.26148e-09
2.30597e-09
2.35025e-09
2.39421e-09
2.43777e-09
2.48081e-09
2.52321e-09
2.56484e-09
2.60558e-09
2.64528e-09
2.68378e-09
2.72093e-09
2.75657e-09
2.79053e-09
2.82263e-09
2.8527e-09
2.88056e-09
2.90603e-09
2.92893e-09
2.94908e-09
2.96632e-09
2.98048e-09
2.9914e-09
2.99888e-09
3.00245e-09
3.003e-09
2.99967e-09
2.9924e-09
2.98111e-09
2.96577e-09
2.94633e-09
2.92278e-09
2.89511e-09
2.86335e-09
2.82753e-09
2.78773e-09
2.74402e-09
2.69653e-09
2.64538e-09
2.59073e-09
2.53276e-09
2.47166e-09
2.40766e-09
2.34099e-09
2.27189e-09
2.20065e-09
2.12753e-09
2.05281e-09
1.9768e-09
1.89978e-09
1.82207e-09
1.74394e-09
1.6657e-09
1.58763e-09
1.51001e-09
1.4331e-09
1.35715e-09
1.28239e-09
1.20904e-09
1.13729e-09
1.06732e-09
9.99269e-10
9.3327e-10
8.69422e-10
8.07802e-10
7.48459e-10
6.91422e-10
6.36692e-10
5.84246e-10
5.3404e-10
4.86006e-10
4.40058e-10
3.96092e-10
3.5399e-10
3.13631e-10
2.74894e-10
2.37682e-10
2.01942e-10
1.67702e-10
1.3512e-10
1.04544e-10
7.656e-11
5.19916e-11
3.17844e-11
1.67233e-11
7.02117e-12
2.02387e-12
2.67774e-13
1.57091e-15
4.2694e-15
7.25828e-13
5.4707e-12
1.90003e-11
4.55604e-11
8.76017e-11
1.45321e-10
2.16981e-10
2.99628e-10
3.89887e-10
4.84559e-10
5.80945e-10
6.76957e-10
7.71096e-10
8.62364e-10
9.50163e-10
1.0342e-09
1.11438e-09
1.1908e-09
1.26362e-09
1.33311e-09
1.39954e-09
1.46324e-09
1.52452e-09
1.5837e-09
1.6411e-09
1.697e-09
1.75166e-09
1.80534e-09
1.85826e-09
1.91061e-09
1.96256e-09
2.01426e-09
2.06583e-09
2.11736e-09
2.16894e-09
2.22061e-09
2.27241e-09
2.32437e-09
2.37648e-09
2.42874e-09
2.48112e-09
2.53358e-09
2.58608e-09
2.63854e-09
2.69089e-09
2.74305e-09
2.79493e-09
2.84641e-09
2.89738e-09
2.94772e-09
2.99727e-09
3.04591e-09
3.09347e-09
3.13979e-09
3.1847e-09
3.22803e-09
3.26957e-09
3.30916e-09
3.34658e-09
3.38165e-09
3.41417e-09
3.44394e-09
3.47076e-09
3.49443e-09
3.51478e-09
3.53162e-09
3.54478e-09
3.5541e-09
3.55904e-09
3.55991e-09
3.55729e-09
3.54996e-09
3.53808e-09
3.52161e-09
3.50052e-09
3.47479e-09
3.44442e-09
3.40943e-09
3.36984e-09
3.32573e-09
3.27719e-09
3.22431e-09
3.16724e-09
3.10614e-09
3.04118e-09
2.97256e-09
2.90052e-09
2.82529e-09
2.74713e-09
2.66632e-09
2.58316e-09
2.49795e-09
2.411e-09
2.32264e-09
2.23317e-09
2.14295e-09
2.05228e-09
1.96149e-09
1.8709e-09
1.7808e-09
1.69149e-09
1.60324e-09
1.51631e-09
1.43095e-09
1.34736e-09
1.26575e-09
1.18627e-09
1.10908e-09
1.03429e-09
9.6198e-10
8.9222e-10
8.25039e-10
7.60443e-10
6.98408e-10
6.38884e-10
5.81798e-10
5.27051e-10
4.74527e-10
4.24094e-10
3.75619e-10
3.28975e-10
2.84069e-10
2.4087e-10
1.99458e-10
1.60085e-10
1.23241e-10
8.96957e-11
6.04747e-11
3.66828e-11
1.91524e-11
7.98689e-12
2.2908e-12
3.02228e-13
1.77131e-15
4.8502e-15
8.25316e-13
6.23584e-12
2.1746e-11
5.24265e-11
1.01435e-10
1.69367e-10
2.54484e-10
3.53437e-10
4.62195e-10
5.76791e-10
6.93789e-10
8.10476e-10
9.24875e-10
1.03566e-09
1.14201e-09
1.24354e-09
1.34013e-09
1.43187e-09
1.519e-09
1.60185e-09
1.6808e-09
1.75625e-09
1.82863e-09
1.89835e-09
1.96578e-09
2.03132e-09
2.09528e-09
2.15799e-09
2.21972e-09
2.2807e-09
2.34114e-09
2.40122e-09
2.46108e-09
2.52082e-09
2.58055e-09
2.64031e-09
2.70014e-09
2.76006e-09
2.82007e-09
2.88014e-09
2.94023e-09
3.00029e-09
3.06025e-09
3.12003e-09
3.17953e-09
3.23863e-09
3.29723e-09
3.35518e-09
3.41234e-09
3.46856e-09
3.52368e-09
3.57752e-09
3.6299e-09
3.68064e-09
3.72952e-09
3.77636e-09
3.82094e-09
3.86306e-09
3.9025e-09
3.93905e-09
3.9725e-09
4.00265e-09
4.02927e-09
4.05219e-09
4.07121e-09
4.08614e-09
4.09683e-09
4.10311e-09
4.10417e-09
4.10097e-09
4.09409e-09
4.0816e-09
4.06405e-09
4.04143e-09
4.01374e-09
3.98097e-09
3.94314e-09
3.90029e-09
3.85248e-09
3.79979e-09
3.74233e-09
3.68022e-09
3.61363e-09
3.54272e-09
3.4677e-09
3.3888e-09
3.30624e-09
3.22031e-09
3.13127e-09
3.03943e-09
2.94509e-09
2.84858e-09
2.75023e-09
2.65038e-09
2.54939e-09
2.44759e-09
2.34533e-09
2.24295e-09
2.14079e-09
2.03917e-09
1.93841e-09
1.83879e-09
1.74061e-09
1.64412e-09
1.54954e-09
1.4571e-09
1.36698e-09
1.27933e-09
1.19428e-09
1.11193e-09
1.03235e-09
9.55576e-10
8.8161e-10
8.10429e-10
7.4198e-10
6.76182e-10
6.12927e-10
5.52087e-10
4.93521e-10
4.37085e-10
3.8265e-10
3.30133e-10
2.79534e-10
2.30994e-10
1.84868e-10
1.41794e-10
1.02731e-10
6.89007e-11
4.15609e-11
2.15813e-11
8.95777e-12
2.56056e-12
3.37172e-13
1.97484e-15
5.46396e-15
9.30432e-13
7.04375e-12
2.46417e-11
5.9657e-11
1.15983e-10
1.94636e-10
2.93877e-10
4.09964e-10
5.38173e-10
6.73729e-10
8.1241e-10
9.50829e-10
1.08649e-09
1.21771e-09
1.34346e-09
1.4632e-09
1.57682e-09
1.68441e-09
1.78629e-09
1.88286e-09
1.97462e-09
2.06207e-09
2.14573e-09
2.22612e-09
2.30371e-09
2.37896e-09
2.45227e-09
2.52404e-09
2.59457e-09
2.66415e-09
2.73303e-09
2.80141e-09
2.86944e-09
2.93726e-09
3.00494e-09
3.07257e-09
3.14016e-09
3.20773e-09
3.27525e-09
3.3427e-09
3.41002e-09
3.47712e-09
3.54393e-09
3.61033e-09
3.6762e-09
3.74141e-09
3.80581e-09
3.86924e-09
3.93154e-09
3.99252e-09
4.05199e-09
4.10976e-09
4.16563e-09
4.21938e-09
4.27079e-09
4.31965e-09
4.36574e-09
4.40883e-09
4.4487e-09
4.48514e-09
4.51792e-09
4.54685e-09
4.57172e-09
4.59234e-09
4.60852e-09
4.6201e-09
4.62692e-09
4.62883e-09
4.62476e-09
4.61639e-09
4.60407e-09
4.58562e-09
4.56152e-09
4.53201e-09
4.49708e-09
4.45676e-09
4.41109e-09
4.36011e-09
4.30392e-09
4.24261e-09
4.17631e-09
4.10515e-09
4.02932e-09
3.949e-09
3.86441e-09
3.77579e-09
3.68338e-09
3.58747e-09
3.48835e-09
3.38632e-09
3.28171e-09
3.17485e-09
3.06609e-09
2.95579e-09
2.8443e-09
2.73198e-09
2.61919e-09
2.50629e-09
2.39363e-09
2.28155e-09
2.17037e-09
2.06042e-09
1.95198e-09
1.84534e-09
1.74072e-09
1.63838e-09
1.53849e-09
1.44123e-09
1.34673e-09
1.25511e-09
1.16643e-09
1.08073e-09
9.98023e-10
9.18282e-10
8.41448e-10
7.67432e-10
6.96117e-10
6.27366e-10
5.61028e-10
4.96952e-10
4.3501e-10
3.75132e-10
3.17353e-10
2.6188e-10
2.09172e-10
1.60017e-10
1.15563e-10
7.72226e-11
4.64003e-11
2.40042e-11
9.93202e-12
2.83265e-12
3.72537e-13
2.18107e-15
6.11173e-15
1.04137e-12
7.89618e-12
2.76947e-11
6.72721e-11
1.31287e-10
2.21186e-10
3.35224e-10
4.69243e-10
6.17791e-10
7.75237e-10
9.36528e-10
1.09757e-09
1.25531e-09
1.4077e-09
1.55346e-09
1.69197e-09
1.82305e-09
1.94686e-09
2.06376e-09
2.17428e-09
2.27901e-09
2.37856e-09
2.47357e-09
2.56466e-09
2.6524e-09
2.73734e-09
2.81996e-09
2.90069e-09
2.97992e-09
3.05797e-09
3.13512e-09
3.21159e-09
3.28755e-09
3.36315e-09
3.43848e-09
3.51359e-09
3.58851e-09
3.66323e-09
3.73772e-09
3.81193e-09
3.88578e-09
3.95918e-09
4.032e-09
4.10413e-09
4.1754e-09
4.24567e-09
4.31476e-09
4.38249e-09
4.44867e-09
4.51308e-09
4.57553e-09
4.6358e-09
4.69366e-09
4.74889e-09
4.80127e-09
4.85056e-09
4.89654e-09
4.93898e-09
4.97767e-09
5.01239e-09
5.04293e-09
5.0691e-09
5.09071e-09
5.10757e-09
5.11954e-09
5.12646e-09
5.12819e-09
5.12446e-09
5.11422e-09
5.10005e-09
5.08105e-09
5.05617e-09
5.02488e-09
4.98795e-09
4.94541e-09
4.89728e-09
4.84361e-09
4.78449e-09
4.72001e-09
4.65027e-09
4.57542e-09
4.49563e-09
4.41105e-09
4.32191e-09
4.22842e-09
4.13082e-09
4.02937e-09
3.92436e-09
3.81608e-09
3.70484e-09
3.59097e-09
3.47481e-09
3.35671e-09
3.23703e-09
3.11614e-09
2.9944e-09
2.87219e-09
2.74987e-09
2.62779e-09
2.50633e-09
2.3858e-09
2.26655e-09
2.14887e-09
2.03305e-09
1.91936e-09
1.80803e-09
1.69927e-09
1.59326e-09
1.49015e-09
1.39004e-09
1.29301e-09
1.19912e-09
1.10836e-09
1.0207e-09
9.36091e-10
8.54428e-10
7.75588e-10
6.99425e-10
6.25777e-10
5.54489e-10
4.85435e-10
4.18559e-10
3.53931e-10
2.91822e-10
2.32798e-10
1.77791e-10
1.28129e-10
8.54124e-11
5.11906e-11
2.64181e-11
1.09087e-11
3.10682e-12
4.08285e-13
2.38979e-15
6.79458e-15
1.15833e-12
8.79483e-12
3.09121e-11
7.52911e-11
1.47385e-10
2.49081e-10
3.78603e-10
5.31352e-10
7.01094e-10
8.81296e-10
1.06603e-09
1.25045e-09
1.43096e-09
1.6051e-09
1.77136e-09
1.92902e-09
2.07787e-09
2.21811e-09
2.35021e-09
2.47477e-09
2.5925e-09
2.70416e-09
2.81049e-09
2.91222e-09
3.01001e-09
3.10451e-09
3.19627e-09
3.28579e-09
3.3735e-09
3.45977e-09
3.5449e-09
3.62914e-09
3.71267e-09
3.79564e-09
3.87813e-09
3.9602e-09
4.04185e-09
4.12308e-09
4.20382e-09
4.28401e-09
4.36354e-09
4.4423e-09
4.52015e-09
4.59693e-09
4.67247e-09
4.74658e-09
4.81909e-09
4.88977e-09
4.95843e-09
5.02483e-09
5.08876e-09
5.14998e-09
5.20827e-09
5.26339e-09
5.31512e-09
5.36323e-09
5.4075e-09
5.4477e-09
5.48364e-09
5.51511e-09
5.54192e-09
5.56389e-09
5.58087e-09
5.59269e-09
5.59923e-09
5.60037e-09
5.59602e-09
5.58548e-09
5.56859e-09
5.54788e-09
5.52144e-09
5.48966e-09
5.45088e-09
5.4063e-09
5.35599e-09
5.30003e-09
5.23846e-09
5.17139e-09
5.09891e-09
5.02116e-09
4.93826e-09
4.8504e-09
4.75776e-09
4.66053e-09
4.55894e-09
4.45324e-09
4.34368e-09
4.23053e-09
4.1141e-09
3.99469e-09
3.87263e-09
3.74826e-09
3.62192e-09
3.49398e-09
3.3648e-09
3.23475e-09
3.10421e-09
2.97354e-09
2.84312e-09
2.71331e-09
2.58446e-09
2.45689e-09
2.33094e-09
2.2069e-09
2.08504e-09
1.96561e-09
1.84884e-09
1.7349e-09
1.62396e-09
1.51613e-09
1.4115e-09
1.31011e-09
1.21197e-09
1.11705e-09
1.02528e-09
9.3656e-10
8.50759e-10
7.6772e-10
6.87273e-10
6.09258e-10
5.33549e-10
4.60104e-10
3.89025e-10
3.20647e-10
2.5563e-10
1.95046e-10
1.40394e-10
9.34562e-11
5.5928e-11
2.88222e-11
1.18878e-11
3.38303e-12
4.4441e-13
2.60095e-15
7.51354e-15
1.28149e-12
9.74128e-12
3.43004e-11
8.37321e-11
1.64315e-10
2.78381e-10
4.241e-10
5.96385e-10
7.88164e-10
9.91949e-10
1.20089e-09
1.40938e-09
1.61323e-09
1.80959e-09
1.99673e-09
2.17381e-09
2.34062e-09
2.49742e-09
2.64475e-09
2.78335e-09
2.91404e-09
3.03772e-09
3.15523e-09
3.26743e-09
3.3751e-09
3.47893e-09
3.57958e-09
3.6776e-09
3.77348e-09
3.86761e-09
3.96032e-09
4.05188e-09
4.14248e-09
4.23226e-09
4.3213e-09
4.40966e-09
4.49732e-09
4.58424e-09
4.67037e-09
4.7556e-09
4.83981e-09
4.92286e-09
5.00458e-09
5.0848e-09
5.16333e-09
5.23996e-09
5.31448e-09
5.38668e-09
5.45633e-09
5.52319e-09
5.58704e-09
5.64765e-09
5.70477e-09
5.7582e-09
5.8077e-09
5.85306e-09
5.89407e-09
5.93053e-09
5.96226e-09
5.98908e-09
6.01082e-09
6.02734e-09
6.0385e-09
6.04419e-09
6.0443e-09
6.03874e-09
6.02745e-09
6.00931e-09
5.98578e-09
5.95773e-09
5.92356e-09
5.88418e-09
5.8382e-09
5.78589e-09
5.72791e-09
5.6643e-09
5.59513e-09
5.5205e-09
5.44051e-09
5.3553e-09
5.26501e-09
5.16981e-09
5.06988e-09
4.96542e-09
4.85665e-09
4.7438e-09
4.62711e-09
4.50687e-09
4.38335e-09
4.25685e-09
4.12769e-09
3.99621e-09
3.86273e-09
3.72762e-09
3.59124e-09
3.45396e-09
3.31614e-09
3.17817e-09
3.04042e-09
2.90325e-09
2.76702e-09
2.63208e-09
2.49875e-09
2.36735e-09
2.23816e-09
2.11144e-09
1.98743e-09
1.86632e-09
1.74827e-09
1.63342e-09
1.52186e-09
1.41362e-09
1.30873e-09
1.20716e-09
1.10882e-09
1.01362e-09
9.21408e-10
8.32029e-10
7.45301e-10
6.61057e-10
5.79174e-10
4.99618e-10
4.22521e-10
3.48271e-10
2.77616e-10
2.11755e-10
1.52347e-10
1.01352e-10
6.06139e-11
3.12179e-11
1.28699e-11
3.66149e-12
4.80937e-13
2.81468e-15
8.26956e-15
1.41102e-12
1.0737e-11
3.78655e-11
9.26114e-11
1.82111e-10
3.09144e-10
4.71795e-10
6.64436e-10
8.79094e-10
1.10727e-09
1.34114e-09
1.57432e-09
1.80202e-09
2.02099e-09
2.22929e-09
2.42597e-09
2.61085e-09
2.78422e-09
2.94675e-09
3.09929e-09
3.24281e-09
3.37832e-09
3.50681e-09
3.62924e-09
3.74648e-09
3.85934e-09
3.96853e-09
4.07466e-09
4.17827e-09
4.27979e-09
4.37957e-09
4.47788e-09
4.57492e-09
4.67084e-09
4.7657e-09
4.85953e-09
4.95233e-09
5.04402e-09
5.13453e-09
5.22373e-09
5.31148e-09
5.39761e-09
5.48195e-09
5.56429e-09
5.64443e-09
5.72215e-09
5.79724e-09
5.86945e-09
5.93856e-09
6.00434e-09
6.06655e-09
6.12498e-09
6.1794e-09
6.22959e-09
6.27536e-09
6.3165e-09
6.35284e-09
6.38419e-09
6.41041e-09
6.43135e-09
6.44688e-09
6.45689e-09
6.46127e-09
6.45996e-09
6.45287e-09
6.43995e-09
6.42107e-09
6.39498e-09
6.36465e-09
6.32887e-09
6.28699e-09
6.23975e-09
6.18676e-09
6.12695e-09
6.06158e-09
5.9907e-09
5.9144e-09
5.83275e-09
5.74589e-09
5.65392e-09
5.557e-09
5.45529e-09
5.34896e-09
5.23819e-09
5.12319e-09
5.00419e-09
4.88142e-09
4.75513e-09
4.62559e-09
4.49308e-09
4.35791e-09
4.22039e-09
4.08085e-09
3.93964e-09
3.79711e-09
3.65361e-09
3.50953e-09
3.36523e-09
3.22109e-09
3.07748e-09
2.93476e-09
2.79329e-09
2.65341e-09
2.51543e-09
2.37966e-09
2.24637e-09
2.11581e-09
1.98818e-09
1.86367e-09
1.74241e-09
1.62451e-09
1.51e-09
1.39892e-09
1.29123e-09
1.18686e-09
1.08569e-09
9.87591e-10
8.92373e-10
7.99859e-10
7.09872e-10
6.22287e-10
5.37078e-10
4.544e-10
3.74682e-10
2.98752e-10
2.2792e-10
1.63997e-10
1.09109e-10
6.52543e-11
3.36089e-11
1.38565e-11
3.94261e-12
5.17916e-13
3.03128e-15
9.06351e-15
1.54708e-12
1.17833e-11
4.16127e-11
1.01943e-10
2.00804e-10
3.41421e-10
5.21758e-10
7.35591e-10
9.73971e-10
1.22732e-09
1.48683e-09
1.74526e-09
1.99725e-09
2.23916e-09
2.46882e-09
2.68523e-09
2.88818e-09
3.07808e-09
3.25569e-09
3.42201e-09
3.57813e-09
3.72521e-09
3.86438e-09
3.99669e-09
4.12314e-09
4.24461e-09
4.36189e-09
4.47565e-09
4.58646e-09
4.69479e-09
4.801e-09
4.90538e-09
5.00812e-09