/*--------------------------------*- C++ -*----------------------------------*\
  =========                 |
  \\      /  F ield         | OpenFOAM: The Open Source CFD Toolbox
   \\    /   O peration     | Website:  https://openfoam.org
    \\  /    A nd           | Version:  12
     \\/     M anipulation  |
\*---------------------------------------------------------------------------*/
FoamFile
{
    format      ascii;
    class       volScalarField;
    location    "8.5";
    object      p;
}
// * * * * * * * * * * * * * * * * * * * * * * * * * * * * * * * * * * * * * //

dimensions      [0 2 -2 0 0 0 0];

internalField   nonuniform List<scalar> 
18225
(
2.2935e-09
7.3929e-06
1.08052e-05
4.76779e-06
-1.20118e-05
-3.94638e-05
-7.69693e-05
-0.000123624
-0.000178418
-0.00024035
-0.000308491
-0.000382004
-0.000460161
-0.000542341
-0.000628021
-0.000716769
-0.000808232
-0.000902122
-0.000998208
-0.0010963
-0.00119622
-0.00129785
-0.00140104
-0.00150568
-0.00161162
-0.00171872
-0.00182683
-0.00193575
-0.0020453
-0.00215523
-0.0022653
-0.00237521
-0.00248465
-0.00259327
-0.0027007
-0.00280653
-0.00291032
-0.00301163
-0.00310996
-0.00320482
-0.00329567
-0.00338198
-0.0034632
-0.00353876
-0.0036081
-0.00367065
-0.00372586
-0.00377318
-0.00381207
-0.00384202
-0.00386257
-0.00387326
-0.00387369
-0.00386352
-0.00384245
-0.00381026
-0.00376678
-0.00371195
-0.00364576
-0.00356831
-0.0034798
-0.00338051
-0.00327084
-0.00315129
-0.00302247
-0.00288509
-0.00274001
-0.00258815
-0.00243044
-0.00226813
-0.00210241
-0.00193456
-0.00176596
-0.00159804
-0.00143229
-0.0012702
-0.00111333
-0.000963189
-0.000821315
-0.000689194
-0.000568268
-0.000459913
-0.000365419
-0.000285979
-0.000222665
-0.000176423
-0.00014805
-0.000138188
-0.000147313
-0.000175726
-0.000223551
-0.000290729
-0.000377017
-0.000481996
-0.000605069
-0.000745475
-0.000902291
-0.00107445
-0.00126076
-0.0014599
-0.00167046
-0.00189095
-0.0021198
-0.00235541
-0.00259617
-0.00284043
-0.00308657
-0.003333
-0.00357815
-0.00382053
-0.0040587
-0.0042913
-0.00451703
-0.00473472
-0.00494324
-0.00514157
-0.00532879
-0.00550403
-0.00566653
-0.00581559
-0.00595059
-0.00607096
-0.00617623
-0.00626599
-0.00633992
-0.00639782
-0.00643967
-0.00646566
-0.00647633
-0.00647273
-0.00645662
-0.0064309
-0.00640008
-0.00637103
-0.00635267
-7.41364e-06
-2.32062e-08
2.47473e-06
-4.36168e-06
-2.09962e-05
-4.72488e-05
-8.26577e-05
-0.000126522
-0.000178025
-0.00023633
-0.000300637
-0.00037021
-0.000444398
-0.00052263
-0.000604421
-0.000689361
-0.000777105
-0.000867368
-0.000959913
-0.00105455
-0.0011511
-0.00124941
-0.00134935
-0.00145078
-0.00155355
-0.00165753
-0.00176254
-0.00186841
-0.00197494
-0.00208189
-0.00218903
-0.00229607
-0.0024027
-0.0025086
-0.00261341
-0.00271673
-0.00281815
-0.00291724
-0.00301352
-0.00310653
-0.00319575
-0.00328067
-0.00336077
-0.0034355
-0.00350432
-0.0035667
-0.00362208
-0.00366995
-0.0037098
-0.00374113
-0.00376349
-0.00377644
-0.0037796
-0.00377263
-0.00375524
-0.00372721
-0.0036884
-0.0036387
-0.00357814
-0.00350679
-0.00342483
-0.00333253
-0.00323028
-0.00311854
-0.00299789
-0.00286903
-0.00273276
-0.00258992
-0.00244149
-0.00228862
-0.00213244
-0.00197418
-0.00181518
-0.0016568
-0.00150047
-0.00134762
-0.00119974
-0.00105831
-0.000924765
-0.000800555
-0.000687059
-0.000585596
-0.000497407
-0.000423633
-0.000365305
-0.000323326
-0.000298461
-0.000291322
-0.000302363
-0.000331871
-0.000379959
-0.000446567
-0.000531458
-0.000634224
-0.000754289
-0.000890917
-0.00104322
-0.00121017
-0.00139062
-0.00158329
-0.00178684
-0.00199983
-0.00222076
-0.0024481
-0.00268029
-0.00291575
-0.00315294
-0.00339032
-0.00362641
-0.00385977
-0.00408903
-0.00431287
-0.00453009
-0.00473954
-0.00494016
-0.00513098
-0.00531112
-0.00547979
-0.00563625
-0.00577986
-0.00591007
-0.00602638
-0.00612837
-0.00621571
-0.00628819
-0.00634569
-0.00638829
-0.00641628
-0.00643026
-0.00643128
-0.006421
-0.00640191
-0.00637752
-0.00635268
-0.00633431
-1.08186e-05
-2.55047e-06
-1.16886e-07
-7.36663e-06
-2.38116e-05
-4.90138e-05
-8.25636e-05
-0.000123892
-0.000172329
-0.000227178
-0.000287759
-0.000353439
-0.000423642
-0.000497857
-0.000575637
-0.000656604
-0.000740432
-0.00082685
-0.000915623
-0.00100655
-0.00109947
-0.00119422
-0.00129065
-0.00138863
-0.00148801
-0.00158864
-0.00169037
-0.001793
-0.00189635
-0.0020002
-0.0021043
-0.00220839
-0.00231217
-0.00241534
-0.00251753
-0.0026184
-0.00271753
-0.00281452
-0.00290892
-0.00300027
-0.00308809
-0.0031719
-0.00325118
-0.00332543
-0.00339411
-0.00345672
-0.00351272
-0.00356163
-0.00360294
-0.00363618
-0.0036609
-0.00367668
-0.00368316
-0.00367998
-0.00366688
-0.00364363
-0.00361008
-0.00356613
-0.00351177
-0.00344709
-0.00337223
-0.00328745
-0.0031931
-0.00308963
-0.00297759
-0.00285762
-0.00273048
-0.00259697
-0.00245808
-0.00231484
-0.00216834
-0.0020198
-0.00187046
-0.00172164
-0.00157471
-0.00143106
-0.0012921
-0.00115926
-0.00103393
-0.000917497
-0.000811287
-0.000716572
-0.000634545
-0.000566305
-0.000512843
-0.000475029
-0.000453596
-0.000449132
-0.000462073
-0.00049269
-0.000541089
-0.000607208
-0.000690815
-0.000791513
-0.000908742
-0.00104179
-0.0011898
-0.00135177
-0.00152659
-0.00171305
-0.00190984
-0.00211557
-0.0023288
-0.00254806
-0.00277185
-0.00299866
-0.00322701
-0.00345544
-0.0036825
-0.00390685
-0.00412716
-0.00434219
-0.00455078
-0.00475186
-0.00494442
-0.00512755
-0.00530044
-0.00546232
-0.00561255
-0.00575054
-0.00587579
-0.00598787
-0.00608644
-0.00617125
-0.00624215
-0.00629911
-0.00634226
-0.00637193
-0.00638871
-0.00639355
-0.00638784
-0.00637348
-0.00635271
-0.00632785
-0.00630525
-4.59217e-06
4.35675e-06
6.94658e-06
-5.06944e-07
-1.68939e-05
-4.15116e-05
-7.39006e-05
-0.000113528
-0.000159797
-0.000212094
-0.000269825
-0.000332433
-0.000399409
-0.000470295
-0.000544692
-0.000622249
-0.000702669
-0.000785696
-0.000871113
-0.00095873
-0.00104838
-0.00113991
-0.00123319
-0.00132807
-0.00142441
-0.00152207
-0.00162088
-0.00172069
-0.00182129
-0.00192247
-0.00202401
-0.00212565
-0.00222711
-0.00232809
-0.00242826
-0.00252726
-0.00262472
-0.00272024
-0.0028134
-0.00290375
-0.00299084
-0.0030742
-0.00315332
-0.00322772
-0.0032969
-0.00336034
-0.00341756
-0.00346804
-0.00351131
-0.0035469
-0.00357438
-0.00359332
-0.00360336
-0.00360415
-0.00359542
-0.00357693
-0.00354852
-0.00351009
-0.00346161
-0.00340313
-0.0033348
-0.00325684
-0.00316958
-0.00307343
-0.00296891
-0.00285664
-0.00273733
-0.00261177
-0.00248089
-0.00234567
-0.00220718
-0.00206658
-0.00192509
-0.00178398
-0.00164457
-0.00150823
-0.00137631
-0.00125021
-0.00113128
-0.00102087
-0.000920288
-0.000830758
-0.00075345
-0.000689435
-0.000639682
-0.000605039
-0.000586221
-0.000583803
-0.000598207
-0.000629699
-0.000678378
-0.000744183
-0.000826884
-0.00092609
-0.00104125
-0.00117167
-0.0013165
-0.00147478
-0.00164541
-0.0018272
-0.00201887
-0.00221909
-0.00242644
-0.00263948
-0.00285677
-0.00307685
-0.00329826
-0.00351959
-0.00373948
-0.00395659
-0.00416967
-0.00437753
-0.00457906
-0.00477323
-0.0049591
-0.00513581
-0.0053026
-0.00545877
-0.00560372
-0.00573691
-0.00585792
-0.00596637
-0.00606197
-0.00614453
-0.00621393
-0.00627019
-0.00631345
-0.00634399
-0.00636231
-0.00636915
-0.00636554
-0.00635281
-0.00633202
-0.0063035
-0.00627441
1.27943e-05
2.13478e-05
2.33355e-05
1.52692e-05
-1.45761e-06
-2.59811e-05
-5.77844e-05
-9.63396e-05
-0.000141088
-0.000191477
-0.000246977
-0.000307092
-0.000371372
-0.000439412
-0.000510855
-0.000585389
-0.000662747
-0.000742698
-0.000825042
-0.000909608
-0.000996241
-0.0010848
-0.00117516
-0.00126718
-0.00136073
-0.00145568
-0.00155187
-0.00164915
-0.00174732
-0.00184619
-0.00194554
-0.00204514
-0.0021447
-0.00224395
-0.00234256
-0.00244021
-0.00253653
-0.00263113
-0.00272362
-0.00281356
-0.00290051
-0.00298402
-0.0030636
-0.00313878
-0.00320907
-0.00327396
-0.00333296
-0.00338559
-0.00343137
-0.00346982
-0.00350052
-0.00352305
-0.00353702
-0.0035421
-0.00353798
-0.00352443
-0.00350127
-0.00346836
-0.00342568
-0.00337325
-0.00331119
-0.0032397
-0.00315907
-0.00306969
-0.00297205
-0.00286673
-0.00275441
-0.00263587
-0.00251197
-0.00238368
-0.00225203
-0.00211816
-0.00198323
-0.00184851
-0.00171528
-0.00158487
-0.00145863
-0.00133791
-0.00122405
-0.00111838
-0.00102218
-0.000936662
-0.000862977
-0.000802187
-0.000755245
-0.000722989
-0.000706129
-0.000705231
-0.000720712
-0.000752836
-0.000801701
-0.000867245
-0.000949241
-0.0010473
-0.00116088
-0.00128929
-0.0014317
-0.00158714
-0.00175455
-0.00193274
-0.00212046
-0.00231637
-0.00251911
-0.00272725
-0.00293937
-0.00315405
-0.00336986
-0.00358544
-0.00379943
-0.00401057
-0.00421763
-0.00441947
-0.00461503
-0.00480332
-0.00498345
-0.00515462
-0.00531611
-0.00546729
-0.0056076
-0.00573656
-0.00585379
-0.00595898
-0.00605188
-0.00613233
-0.00620024
-0.00625564
-0.00629864
-0.00632945
-0.00634844
-0.00635611
-0.00635314
-0.00634035
-0.00631786
-0.00628453
-0.00624873
4.15343e-05
4.84443e-05
4.87707e-05
3.94047e-05
2.17834e-05
-3.1786e-06
-3.4931e-05
-7.29511e-05
-0.000116713
-0.000165711
-0.000219471
-0.000277555
-0.000339565
-0.000405146
-0.000473987
-0.000545817
-0.000620402
-0.000697539
-0.000777057
-0.000858801
-0.000942639
-0.00102844
-0.0011161
-0.00120549
-0.00129649
-0.00138898
-0.00148282
-0.00157785
-0.00167391
-0.00177081
-0.00186833
-0.00196627
-0.00206435
-0.00216231
-0.00225985
-0.00235664
-0.00245234
-0.00254657
-0.00263896
-0.00272908
-0.0028165
-0.00290078
-0.00298145
-0.00305804
-0.00313007
-0.00319703
-0.00325845
-0.00331383
-0.0033627
-0.00340458
-0.00343904
-0.00346564
-0.00348399
-0.00349374
-0.00349457
-0.00348624
-0.00346852
-0.00344128
-0.00340446
-0.00335806
-0.00330216
-0.00323694
-0.00316266
-0.00307969
-0.00298847
-0.00288956
-0.00278362
-0.00267138
-0.00255368
-0.00243147
-0.00230575
-0.00217762
-0.00204825
-0.00191885
-0.00179071
-0.00166513
-0.00154343
-0.00142697
-0.00131707
-0.00121505
-0.00112218
-0.00103967
-0.000968657
-0.000910209
-0.000865274
-0.00083469
-0.000819165
-0.000819266
-0.000835413
-0.000867869
-0.000916735
-0.000981952
-0.0010633
-0.00116038
-0.00127266
-0.00139946
-0.00153994
-0.00169315
-0.00185802
-0.00203338
-0.00221797
-0.00241049
-0.00260956
-0.00281379
-0.00302176
-0.00323207
-0.00344332
-0.00365417
-0.00386329
-0.00406944
-0.00427144
-0.00446817
-0.00465863
-0.00484186
-0.00501702
-0.00518335
-0.00534019
-0.00548695
-0.00562313
-0.0057483
-0.00586212
-0.00596433
-0.00605472
-0.00613316
-0.00619958
-0.00625399
-0.00629646
-0.00632713
-0.00634622
-0.00635402
-0.00635091
-0.00633727
-0.00631254
-0.00627454
-0.00623282
8.12524e-05
8.53644e-05
8.29731e-05
7.15506e-05
5.24162e-05
2.64555e-05
-5.77759e-06
-4.37752e-05
-8.70457e-05
-0.000135129
-0.000187602
-0.00024408
-0.000304218
-0.00036771
-0.000434293
-0.000503735
-0.000575841
-0.000650443
-0.000727396
-0.000806576
-0.000887869
-0.000971172
-0.00105639
-0.00114341
-0.00123214
-0.00132246
-0.00141425
-0.00150738
-0.00160168
-0.00169698
-0.0017931
-0.00188981
-0.00198688
-0.00208405
-0.00218103
-0.00227751
-0.00237317
-0.00246764
-0.00256055
-0.00265149
-0.00274004
-0.00282577
-0.00290821
-0.00298689
-0.00306134
-0.00313107
-0.00319557
-0.00325436
-0.00330696
-0.00335287
-0.00339166
-0.00342286
-0.00344609
-0.00346095
-0.00346712
-0.00346431
-0.0034523
-0.00343091
-0.00340005
-0.0033597
-0.00330991
-0.00325082
-0.00318268
-0.0031058
-0.00302062
-0.00292765
-0.00282752
-0.00272095
-0.00260875
-0.00249184
-0.00237121
-0.00224793
-0.00212316
-0.0019981
-0.00187402
-0.00175221
-0.00163401
-0.00152074
-0.00141374
-0.00131432
-0.00122376
-0.00114326
-0.00107399
-0.00101699
-0.000973242
-0.000943577
-0.000928714
-0.000929229
-0.000945548
-0.00097794
-0.00102651
-0.00109121
-0.00117182
-0.00126795
-0.00137906
-0.00150447
-0.00164335
-0.00179475
-0.00195758
-0.0021307
-0.00231284
-0.00250268
-0.00269887
-0.00290001
-0.00310469
-0.00331151
-0.0035191
-0.00372612
-0.00393127
-0.00413332
-0.00433112
-0.00452359
-0.00470974
-0.00488867
-0.00505957
-0.00522173
-0.00537452
-0.00551742
-0.00564996
-0.00577176
-0.00588253
-0.00598204
-0.00607013
-0.00614668
-0.00621164
-0.00626499
-0.00630677
-0.00633703
-0.00635588
-0.00636341
-0.00635976
-0.00634501
-0.00631807
-0.0062761
-0.00622962
0.00013123
0.000131536
0.000125456
0.000111232
8.99626e-05
6.24464e-05
2.92175e-05
-9.24323e-06
-5.24843e-05
-0.000100093
-0.000151698
-0.000206966
-0.000265607
-0.000327364
-0.000392021
-0.000459393
-0.000529324
-0.000601682
-0.000676356
-0.000753251
-0.000832281
-0.000913368
-0.000996434
-0.0010814
-0.00116818
-0.00125668
-0.00134679
-0.00143839
-0.00153134
-0.00162549
-0.00172066
-0.00181665
-0.00191323
-0.00201016
-0.00210716
-0.00220395
-0.0023002
-0.00239557
-0.00248968
-0.00258215
-0.00267255
-0.00276046
-0.00284541
-0.00292695
-0.00300457
-0.0030778
-0.00314612
-0.00320904
-0.00326605
-0.00331667
-0.00336041
-0.00339681
-0.00342545
-0.00344592
-0.00345786
-0.00346096
-0.00345496
-0.00343966
-0.00341493
-0.00338071
-0.00333704
-0.00328401
-0.00322184
-0.00315081
-0.00307133
-0.0029839
-0.0028891
-0.00278763
-0.0026803
-0.00256798
-0.00245167
-0.00233242
-0.00221137
-0.00208973
-0.00196875
-0.00184973
-0.001734
-0.0016229
-0.00151777
-0.00141993
-0.00133066
-0.0012512
-0.0011827
-0.00112625
-0.00108282
-0.00105327
-0.00103833
-0.00103858
-0.00105448
-0.0010863
-0.00113416
-0.00119801
-0.00127765
-0.00137268
-0.00148258
-0.00160665
-0.00174408
-0.00189389
-0.00205502
-0.00222629
-0.00240644
-0.00259416
-0.00278806
-0.00298677
-0.00318885
-0.00339293
-0.00359761
-0.00380158
-0.00400353
-0.00420227
-0.00439664
-0.00458561
-0.00476819
-0.00494352
-0.00511084
-0.00526944
-0.00541876
-0.00555832
-0.0056877
-0.00580656
-0.00591463
-0.00601175
-0.00609776
-0.00617258
-0.00623615
-0.00628845
-0.00632947
-0.00635921
-0.00637766
-0.00638476
-0.00638048
-0.00636466
-0.0063359
-0.00629091
-0.00624096
0.000190555
0.000186192
0.000175561
0.00015784
0.000133845
0.000104243
6.95342e-05
3.01602e-05
-1.34753e-05
-6.10119e-05
-0.000112131
-0.000166557
-0.00022405
-0.000284409
-0.000347465
-0.000413081
-0.000481144
-0.000551562
-0.00062426
-0.000699176
-0.000776256
-0.000855447
-0.000936698
-0.00101995
-0.00110515
-0.00119221
-0.00128105
-0.00137157
-0.00146364
-0.00155713
-0.00165188
-0.00174769
-0.00184437
-0.00194168
-0.00203936
-0.00213713
-0.00223468
-0.00233167
-0.00242774
-0.00252251
-0.00261555
-0.00270644
-0.00279472
-0.00287992
-0.00296154
-0.00303907
-0.00311201
-0.00317984
-0.00324203
-0.00329808
-0.00334748
-0.00338974
-0.0034244
-0.00345104
-0.00346925
-0.0034787
-0.00347909
-0.00347018
-0.00345181
-0.00342389
-0.0033864
-0.00333943
-0.00328314
-0.0032178
-0.00314379
-0.00306155
-0.00297168
-0.00287484
-0.00277182
-0.00266348
-0.00255079
-0.00243482
-0.00231669
-0.00219761
-0.00207883
-0.00196166
-0.00184744
-0.00173753
-0.00163327
-0.001536
-0.00144702
-0.00136759
-0.0012989
-0.00124204
-0.00119801
-0.00116769
-0.00115184
-0.00115107
-0.00116584
-0.00119645
-0.00124303
-0.00130556
-0.00138381
-0.00147743
-0.00158589
-0.00170849
-0.0018444
-0.00199267
-0.0021522
-0.00232183
-0.00250027
-0.0026862
-0.00287824
-0.00307498
-0.003275
-0.00347689
-0.00367928
-0.00388082
-0.00408024
-0.00427632
-0.00446794
-0.00465406
-0.00483373
-0.0050061
-0.00517044
-0.0053261
-0.00547252
-0.00560923
-0.00573587
-0.0058522
-0.00595796
-0.00605299
-0.00613718
-0.00621046
-0.00627278
-0.00632411
-0.00636441
-0.00639363
-0.00641167
-0.00641838
-0.00641359
-0.00639699
-0.00636698
-0.00632002
-0.00626788
0.00025822
0.00024845
0.000232513
0.00021067
0.000183405
0.000151231
0.000114598
7.38995e-05
2.94842e-05
-1.83459e-05
-6.93308e-05
-0.000123251
-0.000179925
-0.000239207
-0.000300979
-0.000365153
-0.000431662
-0.000500457
-0.000571502
-0.000644771
-0.000720243
-0.000797896
-0.000877706
-0.000959645
-0.00104367
-0.00112974
-0.00121778
-0.00130771
-0.00139942
-0.00149281
-0.00158772
-0.00168398
-0.00178141
-0.00187978
-0.00197886
-0.00207836
-0.00217798
-0.0022774
-0.00237626
-0.00247417
-0.00257072
-0.00266548
-0.00275797
-0.00284772
-0.00293423
-0.00301696
-0.00309539
-0.00316898
-0.00323719
-0.00329947
-0.00335529
-0.00340414
-0.00344551
-0.00347895
-0.00350401
-0.00352032
-0.00352755
-0.00352541
-0.00351371
-0.00349231
-0.00346117
-0.00342034
-0.00336994
-0.00331021
-0.00324149
-0.00316422
-0.00307895
-0.00298634
-0.00288715
-0.00278224
-0.00267257
-0.0025592
-0.00244325
-0.00232593
-0.00220851
-0.00209231
-0.00197867
-0.00186898
-0.0017646
-0.00166689
-0.00157719
-0.00149678
-0.00142686
-0.00136858
-0.00132296
-0.00129092
-0.00127323
-0.00127055
-0.00128335
-0.00131197
-0.00135655
-0.00141708
-0.00149338
-0.00158509
-0.00169167
-0.00181245
-0.0019466
-0.00209314
-0.00225099
-0.00241897
-0.00259577
-0.00278007
-0.00297046
-0.00316552
-0.00336382
-0.00356393
-0.00376447
-0.00396408
-0.00416148
-0.00435546
-0.00454488
-0.00472873
-0.00490606
-0.00507605
-0.00523797
-0.0053912
-0.00553522
-0.0056696
-0.00579402
-0.00590822
-0.00601202
-0.00610528
-0.00618793
-0.0062599
-0.00632116
-0.00637167
-0.00641138
-0.00644019
-0.00645796
-0.00646445
-0.00645942
-0.00644246
-0.00641186
-0.00636399
-0.00631085
0.000333159
0.000317353
0.000295456
0.000268936
0.000237916
0.000202731
0.000163774
0.000121383
7.58405e-05
2.7386e-05
-2.37841e-05
-7.75124e-05
-0.000133678
-0.00019219
-0.00025299
-0.000316038
-0.000381316
-0.000448821
-0.000518558
-0.00059054
-0.00066478
-0.00074129
-0.000820078
-0.000901142
-0.00098447
-0.00107004
-0.0011578
-0.00124769
-0.00133964
-0.00143355
-0.00152928
-0.00162669
-0.00172559
-0.00182579
-0.00192705
-0.0020291
-0.00213166
-0.00223439
-0.00233694
-0.00243893
-0.00253994
-0.00263952
-0.0027372
-0.00283247
-0.00292483
-0.00301373
-0.00309861
-0.0031789
-0.00325404
-0.00332343
-0.00338653
-0.00344277
-0.00349162
-0.00353256
-0.00356513
-0.0035889
-0.0036035
-0.0036086
-0.00360396
-0.00358941
-0.00356486
-0.00353032
-0.00348589
-0.00343178
-0.00336828
-0.00329582
-0.00321492
-0.00312622
-0.00303048
-0.00292853
-0.00282134
-0.00270995
-0.00259551
-0.00247922
-0.00236236
-0.00224626
-0.0021323
-0.00202188
-0.00191639
-0.00181722
-0.00172575
-0.00164328
-0.00157107
-0.00151028
-0.00146199
-0.00142715
-0.00140658
-0.00140096
-0.00141081
-0.00143649
-0.00147818
-0.00153589
-0.00160946
-0.00169854
-0.00180262
-0.00192102
-0.00205293
-0.00219736
-0.00235323
-0.00251932
-0.00269436
-0.00287696
-0.00306573
-0.00325921
-0.00345595
-0.00365452
-0.0038535
-0.00405152
-0.0042473
-0.0044396
-0.0046273
-0.00480935
-0.00498485
-0.00515295
-0.00531295
-0.00546426
-0.00560637
-0.00573889
-0.00586152
-0.00597402
-0.00607625
-0.0061681
-0.00624952
-0.00632046
-0.00638091
-0.00643083
-0.00647015
-0.00649876
-0.00651648
-0.00652303
-0.00651812
-0.00650129
-0.00647081
-0.00642303
-0.00636998
0.000414271
0.000391887
0.000363465
0.000331785
0.000296582
0.000258
0.000216367
0.000171955
0.000124977
7.56008e-05
2.39536e-05
-2.98734e-05
-8.58229e-05
-0.000143867
-0.000204001
-0.000266244
-0.000330626
-0.000397191
-0.000465989
-0.000537072
-0.000610492
-0.000686297
-0.000764525
-0.000845206
-0.000928355
-0.00101397
-0.00110204
-0.00119253
-0.00128537
-0.00138049
-0.00147777
-0.00157709
-0.00167828
-0.00178114
-0.00188546
-0.00199098
-0.00209741
-0.00220442
-0.00231166
-0.00241874
-0.00252524
-0.00263069
-0.0027346
-0.00283647
-0.00293575
-0.00303186
-0.00312422
-0.00321224
-0.0032953
-0.00337279
-0.0034441
-0.00350863
-0.00356579
-0.00361505
-0.00365587
-0.00368778
-0.00371037
-0.00372326
-0.00372617
-0.00371887
-0.00370126
-0.00367328
-0.003635
-0.00358659
-0.00352833
-0.00346062
-0.00338394
-0.00329894
-0.00320632
-0.00310695
-0.00300177
-0.00289182
-0.00277826
-0.0026623
-0.00254523
-0.00242842
-0.00231324
-0.00220114
-0.00209354
-0.00199186
-0.00189752
-0.00181187
-0.00173621
-0.00167174
-0.0016196
-0.00158077
-0.00155613
-0.0015464
-0.00155215
-0.00157377
-0.00161148
-0.00166534
-0.00173519
-0.00182073
-0.00192146
-0.00203672
-0.00216568
-0.00230739
-0.00246074
-0.00262452
-0.00279742
-0.00297807
-0.00316504
-0.00335685
-0.00355203
-0.00374911
-0.00394666
-0.0041433
-0.00433771
-0.00452865
-0.00471497
-0.00489563
-0.0050697
-0.00523636
-0.00539491
-0.00554476
-0.00568542
-0.00581653
-0.0059378
-0.00604903
-0.00615009
-0.00624091
-0.00632144
-0.00639169
-0.00645162
-0.00650122
-0.00654043
-0.00656912
-0.00658709
-0.00659406
-0.00658969
-0.00657352
-0.00654383
-0.00649706
-0.00644507
0.000500426
0.000470995
0.000435558
0.000398299
0.000358545
0.000316231
0.000271615
0.000224897
0.000176211
0.000125646
7.32556e-05
1.90592e-05
-3.69544e-05
-9.48215e-05
-0.0001546
-0.000216362
-0.000280195
-0.00034619
-0.000414443
-0.000485049
-0.000558099
-0.000633676
-0.000711855
-0.000792697
-0.000876246
-0.000962533
-0.00105156
-0.00114333
-0.00123779
-0.00133489
-0.00143453
-0.00153661
-0.00164096
-0.00174742
-0.00185576
-0.00196573
-0.00207706
-0.00218941
-0.00230242
-0.0024157
-0.00252881
-0.00264127
-0.00275257
-0.00286218
-0.00296952
-0.003074
-0.00317498
-0.00327184
-0.00336392
-0.00345056
-0.0035311
-0.00360491
-0.00367134
-0.0037298
-0.00377972
-0.00382056
-0.00385185
-0.00387319
-0.00388423
-0.0038847
-0.00387445
-0.00385339
-0.00382155
-0.00377905
-0.00372615
-0.00366321
-0.00359071
-0.00350925
-0.00341954
-0.00332243
-0.00321886
-0.00310987
-0.00299662
-0.00288034
-0.00276233
-0.00264398
-0.00252671
-0.00241197
-0.00230122
-0.00219595
-0.0020976
-0.00200757
-0.00192722
-0.0018578
-0.0018005
-0.00175636
-0.00172632
-0.00171114
-0.00171145
-0.0017277
-0.00176016
-0.00180891
-0.00187386
-0.00195471
-0.00205101
-0.00216211
-0.0022872
-0.00242534
-0.00257541
-0.00273621
-0.00290641
-0.00308463
-0.0032694
-0.00345925
-0.00365266
-0.00384815
-0.00404426
-0.00423956
-0.00443273
-0.00462248
-0.00480767
-0.00498724
-0.00516023
-0.00532582
-0.00548332
-0.00563213
-0.00577178
-0.00590192
-0.00602227
-0.00613265
-0.00623296
-0.00632314
-0.00640318
-0.00647308
-0.00653285
-0.00658247
-0.00662189
-0.00665099
-0.00666958
-0.00667735
-0.00667398
-0.00665901
-0.00663077
-0.00658585
-0.00653574
0.000590462
0.000553573
0.000510699
0.000467504
0.000422882
0.000376552
0.00032869
0.00027942
0.000228787
0.000176796
0.00012342
6.86e-05
1.22536e-05
-4.57247e-05
-0.000105456
-0.000167074
-0.000230719
-0.000296535
-0.000364665
-0.000435247
-0.000508415
-0.000584289
-0.000662978
-0.000744578
-0.000829164
-0.000916795
-0.00100751
-0.00110131
-0.00119819
-0.00129811
-0.00140101
-0.00150677
-0.00161526
-0.00172631
-0.00183972
-0.00195524
-0.00207258
-0.00219142
-0.00231138
-0.00243206
-0.002553
-0.0026737
-0.00279364
-0.00291224
-0.0030289
-0.00314297
-0.00325381
-0.00336072
-0.003463
-0.00355995
-0.00365086
-0.00373504
-0.00381178
-0.00388044
-0.00394039
-0.00399105
-0.00403188
-0.00406243
-0.00408229
-0.00409116
-0.00408882
-0.00407515
-0.00405013
-0.00401385
-0.00396653
-0.0039085
-0.00384022
-0.00376226
-0.00367533
-0.00358024
-0.00347795
-0.0033695
-0.00325605
-0.00313883
-0.00301919
-0.00289851
-0.00277825
-0.00265989
-0.00254495
-0.00243495
-0.00233138
-0.0022357
-0.00214931
-0.00207355
-0.00200966
-0.00195874
-0.00192179
-0.00189966
-0.00189303
-0.0019024
-0.0019281
-0.00197028
-0.00202889
-0.00210368
-0.00219422
-0.00229991
-0.00241996
-0.00255343
-0.00269922
-0.00285613
-0.00302283
-0.0031979
-0.00337989
-0.00356728
-0.00375854
-0.00395214
-0.0041466
-0.00434047
-0.00453237
-0.00472101
-0.00490521
-0.00508387
-0.00525604
-0.00542088
-0.00557767
-0.00572582
-0.00586487
-0.00599445
-0.0061143
-0.00622427
-0.00632425
-0.00641422
-0.00649417
-0.00656414
-0.00662413
-0.00667415
-0.00671417
-0.00674406
-0.00676366
-0.00677267
-0.00677076
-0.00675751
-0.00673133
-0.00668899
-0.0066415
0.000683181
0.000638479
0.000587803
0.000538366
0.00048861
0.000438024
0.000386698
0.000334665
0.000281878
0.000228249
0.000173664
0.000117982
6.10421e-05
2.66656e-06
-5.7333e-05
-0.000119152
-0.000182988
-0.000249039
-0.000317496
-0.000388543
-0.000462356
-0.000539094
-0.000618905
-0.000701915
-0.000788234
-0.000877949
-0.000971123
-0.0010678
-0.00116798
-0.00127165
-0.00137875
-0.00148921
-0.0016029
-0.00171965
-0.00183927
-0.00196151
-0.00208608
-0.00221265
-0.00234083
-0.0024702
-0.00260029
-0.00273057
-0.00286048
-0.00298941
-0.00311673
-0.00324175
-0.00336377
-0.00348205
-0.00359583
-0.00370436
-0.00380688
-0.00390261
-0.00399083
-0.0040708
-0.00414184
-0.00420331
-0.00425463
-0.00429526
-0.00432476
-0.00434277
-0.00434901
-0.00434332
-0.00432562
-0.00429599
-0.00425458
-0.0042017
-0.00413779
-0.00406338
-0.00397918
-0.00388598
-0.00378472
-0.00367645
-0.00356233
-0.00344362
-0.00332165
-0.00319786
-0.00307373
-0.00295077
-0.00283055
-0.00271464
-0.00260457
-0.00250187
-0.00240802
-0.00232441
-0.00225234
-0.00219302
-0.00214751
-0.00211672
-0.00210142
-0.00210219
-0.00211942
-0.00215333
-0.00220393
-0.00227103
-0.00235424
-0.00245301
-0.00256658
-0.00269403
-0.00283429
-0.00298615
-0.00314829
-0.0033193
-0.00349767
-0.00368189
-0.00387039
-0.00406163
-0.00425407
-0.00444623
-0.00463671
-0.00482417
-0.00500739
-0.00518526
-0.00535678
-0.00552109
-0.00567747
-0.0058253
-0.00596411
-0.00609353
-0.00621331
-0.0063233
-0.0064234
-0.00651359
-0.00659389
-0.00666435
-0.00672499
-0.00677583
-0.00681685
-0.00684796
-0.00686899
-0.00687968
-0.00687971
-0.00686869
-0.00684512
-0.006806
-0.00676175
0.000777347
0.000724521
0.000665731
0.000609797
0.000554687
0.000499648
0.000444674
0.000389702
0.000334583
0.000279127
0.000223128
0.000166355
0.000108566
4.9506e-05
-1.10829e-05
-7.34611e-05
-0.000137886
-0.00020461
-0.000273875
-0.000345912
-0.000420939
-0.000499157
-0.000580749
-0.000665878
-0.000754685
-0.000847289
-0.000943782
-0.00104423
-0.00114866
-0.00125708
-0.00136945
-0.0014857
-0.00160572
-0.00172936
-0.00185642
-0.00198665
-0.00211975
-0.00225539
-0.00239317
-0.00253263
-0.00267328
-0.00281457
-0.0029559
-0.00309662
-0.00323605
-0.00337347
-0.0035081
-0.00363916
-0.00376585
-0.00388734
-0.0040028
-0.00411142
-0.00421237
-0.00430488
-0.0043882
-0.00446161
-0.00452448
-0.0045762
-0.00461628
-0.00464429
-0.00465991
-0.0046629
-0.00465317
-0.00463072
-0.00459569
-0.00454833
-0.00448904
-0.00441835
-0.00433692
-0.00424555
-0.00414515
-0.00403678
-0.00392159
-0.00380086
-0.00367593
-0.00354827
-0.00341937
-0.00329081
-0.00316419
-0.00304112
-0.00292322
-0.00281206
-0.0027092
-0.0026161
-0.00253416
-0.00246465
-0.00240872
-0.00236739
-0.0023415
-0.00233172
-0.00233853
-0.00236222
-0.00240289
-0.0024604
-0.00253445
-0.00262452
-0.00272991
-0.00284972
-0.00298293
-0.00312833
-0.0032846
-0.00345034
-0.00362405
-0.00380416
-0.0039891
-0.00417728
-0.00436715
-0.00455717
-0.00474591
-0.00493198
-0.00511412
-0.00529118
-0.00546213
-0.00562608
-0.00578227
-0.00593006
-0.00606896
-0.00619861
-0.00631873
-0.00642916
-0.00652982
-0.00662069
-0.0067018
-0.0067732
-0.00683495
-0.00688706
-0.00692953
-0.0069623
-0.00698521
-0.00699804
-0.00700047
-0.00699215
-0.00697171
-0.00693638
-0.00689586
0.000871679
0.000810463
0.000743293
0.000680649
0.000620009
0.000560359
0.000501588
0.000443531
0.000385924
0.000328473
0.000270867
0.000212783
0.000153891
9.38568e-05
3.23479e-05
-3.09632e-05
-9.63956e-05
-0.000164257
-0.000234843
-0.000308431
-0.000385283
-0.000465642
-0.000549728
-0.00063774
-0.000729853
-0.000826216
-0.000926948
-0.00103214
-0.00114185
-0.0012561
-0.00137486
-0.00149809
-0.00162568
-0.00175749
-0.00189331
-0.00203289
-0.00217593
-0.00232208
-0.00247091
-0.00262196
-0.00277469
-0.00292852
-0.00308282
-0.00323689
-0.00338999
-0.00354135
-0.00369015
-0.00383554
-0.00397665
-0.00411259
-0.00424246
-0.00436539
-0.00448048
-0.00458688
-0.00468378
-0.00477039
-0.004846
-0.00490996
-0.00496169
-0.00500071
-0.00502663
-0.00503917
-0.00503817
-0.00502358
-0.00499549
-0.00495413
-0.00489985
-0.00483315
-0.00475466
-0.00466515
-0.00456554
-0.00445685
-0.00434026
-0.00421703
-0.00408854
-0.00395626
-0.00382173
-0.00368655
-0.00355238
-0.00342088
-0.00329373
-0.00317258
-0.00305906
-0.00295472
-0.00286104
-0.0027794
-0.00271105
-0.00265709
-0.00261847
-0.00259597
-0.00259017
-0.00260145
-0.00262999
-0.00267576
-0.00273852
-0.00281784
-0.00291305
-0.00302333
-0.00314767
-0.00328492
-0.00343376
-0.00359279
-0.00376051
-0.00393534
-0.00411568
-0.00429992
-0.00448646
-0.00467372
-0.00486023
-0.00504455
-0.00522538
-0.00540151
-0.00557187
-0.00573553
-0.00589168
-0.00603966
-0.00617896
-0.00630917
-0.00643002
-0.00654132
-0.00664299
-0.006735
-0.0068174
-0.00689022
-0.00695354
-0.0070074
-0.0070518
-0.00708668
-0.00711194
-0.00712737
-0.00713265
-0.00712748
-0.00711063
-0.00707956
-0.00704322
0.000964851
0.000895016
0.000819246
0.000749724
0.000683412
0.000619027
0.000556343
0.00049508
0.000434853
0.000375252
0.000315857
0.000256247
0.000195998
0.000134693
7.19212e-05
7.28661e-06
-5.95939e-05
-0.000129086
-0.000201537
-0.000277275
-0.000356606
-0.000439814
-0.000527158
-0.000618874
-0.00071517
-0.000816225
-0.000922188
-0.00103317
-0.00114927
-0.0012705
-0.00139688
-0.00152835
-0.00166483
-0.00180616
-0.00195216
-0.00210255
-0.00225703
-0.00241522
-0.00257667
-0.0027409
-0.00290733
-0.00307535
-0.00324426
-0.00341334
-0.00358178
-0.00374876
-0.00391338
-0.00407475
-0.00423191
-0.00438391
-0.0045298
-0.00466859
-0.00479934
-0.00492112
-0.00503304
-0.00513424
-0.00522394
-0.00530141
-0.00536601
-0.00541718
-0.00545448
-0.00547756
-0.00548619
-0.00548028
-0.00545987
-0.00542512
-0.00537636
-0.00531403
-0.00523874
-0.00515125
-0.00505243
-0.00494331
-0.00482504
-0.00469891
-0.0045663
-0.00442869
-0.00428766
-0.00414485
-0.00400196
-0.00386071
-0.00372285
-0.0035901
-0.00346418
-0.00334673
-0.00323933
-0.00314346
-0.00306048
-0.00299161
-0.00293792
-0.0029003
-0.00287944
-0.00287585
-0.00288982
-0.00292141
-0.00297048
-0.00303668
-0.00311944
-0.00321799
-0.00333138
-0.00345849
-0.00359804
-0.00374863
-0.00390878
-0.0040769
-0.00425136
-0.00443054
-0.00461277
-0.00479647
-0.00498009
-0.00516214
-0.00534127
-0.00551622
-0.00568586
-0.00584921
-0.00600541
-0.00615375
-0.00629369
-0.00642478
-0.00654671
-0.00665929
-0.00676241
-0.00685604
-0.0069402
-0.00701495
-0.00708035
-0.00713644
-0.00718325
-0.00722073
-0.00724882
-0.00726728
-0.00727585
-0.00727428
-0.00726142
-0.00723502
-0.0072032
0.00105549
0.000976845
0.000892296
0.000815763
0.000743676