/*--------------------------------*- C++ -*----------------------------------*\
  =========                 |
  \\      /  F ield         | OpenFOAM: The Open Source CFD Toolbox
   \\    /   O peration     | Website:  https://openfoam.org
    \\  /    A nd           | Version:  12
     \\/     M anipulation  |
\*---------------------------------------------------------------------------*/
FoamFile
{
    format      ascii;
    class       volVectorField;
    location    "8.5";
    object      U;
}
// * * * * * * * * * * * * * * * * * * * * * * * * * * * * * * * * * * * * * //

dimensions      [0 1 -1 0 0 0 0];

internalField   nonuniform List<vector> 
18225
(
(2.51579e-07 -2.50389e-07 0)
(1.14566e-05 -3.57903e-06 0)
(3.45273e-05 -6.0163e-06 0)
(6.4928e-05 -7.0803e-06 0)
(9.74776e-05 -7.22818e-06 0)
(0.000128563 -6.78267e-06 0)
(0.000155752 -5.96891e-06 0)
(0.000177423 -4.94516e-06 0)
(0.000192556 -3.81721e-06 0)
(0.000200568 -2.65352e-06 0)
(0.000201186 -1.49768e-06 0)
(0.000194356 -3.76297e-07 0)
(0.000180162 6.95662e-07 0)
(0.000158786 1.71075e-06 0)
(0.000130461 2.66739e-06 0)
(9.54439e-05 3.56808e-06 0)
(5.39938e-05 4.41627e-06 0)
(6.35896e-06 5.21783e-06 0)
(-4.72334e-05 5.97933e-06 0)
(-0.000106586 6.70881e-06 0)
(-0.00017153 7.41361e-06 0)
(-0.00024193 8.10042e-06 0)
(-0.000317678 8.77491e-06 0)
(-0.000398692 9.4425e-06 0)
(-0.000484914 1.01078e-05 0)
(-0.000576307 1.07746e-05 0)
(-0.000672845 1.14456e-05 0)
(-0.000774513 1.21227e-05 0)
(-0.000881297 1.28071e-05 0)
(-0.000993185 1.34988e-05 0)
(-0.00111015 1.41973e-05 0)
(-0.00123218 1.49012e-05 0)
(-0.0013592 1.56086e-05 0)
(-0.00149117 1.63168e-05 0)
(-0.00162798 1.70225e-05 0)
(-0.00176952 1.77219e-05 0)
(-0.00191564 1.84108e-05 0)
(-0.00206616 1.90844e-05 0)
(-0.00222086 1.97376e-05 0)
(-0.00237949 2.03649e-05 0)
(-0.00254176 2.09602e-05 0)
(-0.00270732 2.15176e-05 0)
(-0.00287579 2.20305e-05 0)
(-0.00304676 2.24922e-05 0)
(-0.00321976 2.28959e-05 0)
(-0.00339427 2.32346e-05 0)
(-0.00356973 2.35012e-05 0)
(-0.00374555 2.36885e-05 0)
(-0.00392108 2.37895e-05 0)
(-0.00409564 2.37973e-05 0)
(-0.0042685 2.3705e-05 0)
(-0.00443891 2.3506e-05 0)
(-0.00460606 2.31942e-05 0)
(-0.00476913 2.27638e-05 0)
(-0.00492728 2.22096e-05 0)
(-0.00507963 2.15269e-05 0)
(-0.00522529 2.07118e-05 0)
(-0.00536335 1.97614e-05 0)
(-0.00549293 1.86733e-05 0)
(-0.0056131 1.74465e-05 0)
(-0.00572299 1.6081e-05 0)
(-0.0058217 1.45779e-05 0)
(-0.0059084 1.29397e-05 0)
(-0.00598225 1.11702e-05 0)
(-0.00604248 9.27424e-06 0)
(-0.00608835 7.25497e-06 0)
(-0.00611921 5.12112e-06 0)
(-0.00613438 2.9058e-06 0)
(-0.00613348 5.76039e-07 0)
(-0.00611591 -1.82031e-06 0)
(-0.00608138 -4.28388e-06 0)
(-0.00602961 -6.79714e-06 0)
(-0.00596045 -9.34325e-06 0)
(-0.00587385 -1.19047e-05 0)
(-0.00576987 -1.44629e-05 0)
(-0.00564871 -1.69985e-05 0)
(-0.00551067 -1.94915e-05 0)
(-0.00535619 -2.19214e-05 0)
(-0.00518582 -2.42677e-05 0)
(-0.00500024 -2.65098e-05 0)
(-0.00480027 -2.86274e-05 0)
(-0.00458681 -3.0601e-05 0)
(-0.00436092 -3.24118e-05 0)
(-0.00412373 -3.40421e-05 0)
(-0.00387647 -3.54758e-05 0)
(-0.0036205 -3.66982e-05 0)
(-0.00335721 -3.76966e-05 0)
(-0.00308809 -3.84606e-05 0)
(-0.00281466 -3.89819e-05 0)
(-0.00253851 -3.92547e-05 0)
(-0.00226124 -3.92759e-05 0)
(-0.00198445 -3.90449e-05 0)
(-0.00170975 -3.8564e-05 0)
(-0.00143873 -3.78381e-05 0)
(-0.00117294 -3.68747e-05 0)
(-0.000913883 -3.56841e-05 0)
(-0.000662996 -3.42786e-05 0)
(-0.000421635 -3.26731e-05 0)
(-0.000191067 -3.08843e-05 0)
(2.75434e-05 -2.89306e-05 0)
(0.000233145 -2.68319e-05 0)
(0.000424807 -2.46093e-05 0)
(0.000601725 -2.22852e-05 0)
(0.000763222 -1.98772e-05 0)
(0.00090876 -1.74107e-05 0)
(0.00103794 -1.49097e-05 0)
(0.0011505 -1.23935e-05 0)
(0.00124629 -9.88242e-06 0)
(0.00132532 -7.39591e-06 0)
(0.0013877 -4.95198e-06 0)
(0.00143367 -2.56713e-06 0)
(0.00146357 -2.56407e-07 0)
(0.00147785 1.96682e-06 0)
(0.00147705 4.09003e-06 0)
(0.00146182 6.10387e-06 0)
(0.00143285 8.00129e-06 0)
(0.00139094 9.77166e-06 0)
(0.00133696 1.14078e-05 0)
(0.00127184 1.29021e-05 0)
(0.00119659 1.42463e-05 0)
(0.00111232 1.54302e-05 0)
(0.0010202 1.64407e-05 0)
(0.000921544 1.72604e-05 0)
(0.000817785 1.78655e-05 0)
(0.000710524 1.82235e-05 0)
(0.000601572 1.82905e-05 0)
(0.000492998 1.80067e-05 0)
(0.000387185 1.72922e-05 0)
(0.000286897 1.60421e-05 0)
(0.000195337 1.41239e-05 0)
(0.000116168 1.13838e-05 0)
(5.34418e-05 7.6664e-06 0)
(1.12009e-05 2.88681e-06 0)
(-7.91498e-06 -2.47388e-06 0)
(-5.59174e-06 -5.59291e-06 0)
(3.61295e-06 -1.14775e-05 0)
(3.61158e-05 -3.59789e-05 0)
(9.0629e-05 -5.32489e-05 0)
(0.000158175 -6.1214e-05 0)
(0.000228463 -6.14837e-05 0)
(0.000293886 -5.60791e-05 0)
(0.000348874 -4.67159e-05 0)
(0.000389426 -3.4729e-05 0)
(0.000412825 -2.11206e-05 0)
(0.000417363 -6.62159e-06 0)
(0.000402096 8.24502e-06 0)
(0.000366631 2.31226e-05 0)
(0.000310979 3.77668e-05 0)
(0.00023542 5.20267e-05 0)
(0.000140404 6.58188e-05 0)
(2.64782e-05 7.91102e-05 0)
(-0.000105779 9.19082e-05 0)
(-0.00025579 0.000104243 0)
(-0.00042302 0.000116162 0)
(-0.000606971 0.000127717 0)
(-0.000807211 0.000138968 0)
(-0.00102338 0.000149972 0)
(-0.00125516 0.000160784 0)
(-0.00150234 0.000171453 0)
(-0.0017647 0.000182021 0)
(-0.00204211 0.000192517 0)
(-0.00233444 0.000202965 0)
(-0.00264159 0.000213376 0)
(-0.00296344 0.000223751 0)
(-0.00329989 0.000234082 0)
(-0.0036508 0.000244349 0)
(-0.00401598 0.000254526 0)
(-0.00439521 0.000264576 0)
(-0.00478821 0.000274454 0)
(-0.00519462 0.00028411 0)
(-0.00561401 0.000293485 0)
(-0.00604587 0.000302515 0)
(-0.00648957 0.000311128 0)
(-0.00694439 0.000319252 0)
(-0.00740952 0.000326806 0)
(-0.00788402 0.000333708 0)
(-0.00836683 0.000339874 0)
(-0.0088568 0.000345216 0)
(-0.00935262 0.000349645 0)
(-0.00985289 0.000353072 0)
(-0.0103561 0.000355408 0)
(-0.0108606 0.000356564 0)
(-0.0113645 0.000356454 0)
(-0.0118662 0.000354994 0)
(-0.0123635 0.000352104 0)
(-0.0128543 0.000347709 0)
(-0.0133366 0.000341737 0)
(-0.0138081 0.000334127 0)
(-0.0142664 0.000324823 0)
(-0.0147092 0.000313779 0)
(-0.015134 0.000300957 0)
(-0.0155385 0.000286332 0)
(-0.01592 0.000269891 0)
(-0.0162763 0.000251633 0)
(-0.0166047 0.000231571 0)
(-0.016903 0.000209732 0)
(-0.0171688 0.00018616 0)
(-0.0173998 0.000160914 0)
(-0.0175939 0.000134069 0)
(-0.017749 0.000105714 0)
(-0.0178633 7.59461e-05 0)
(-0.017935 4.48743e-05 0)
(-0.0179626 1.28349e-05 0)
(-0.0179449 -2.0323e-05 0)
(-0.0178807 -5.42471e-05 0)
(-0.0177693 -8.87728e-05 0)
(-0.0176099 -0.000123701 0)
(-0.0174024 -0.000158818 0)
(-0.0171468 -0.000193897 0)
(-0.0168433 -0.000228704 0)
(-0.0164926 -0.000262998 0)
(-0.0160957 -0.000296532 0)
(-0.0156539 -0.000329057 0)
(-0.0151687 -0.000360326 0)
(-0.0146421 -0.000390092 0)
(-0.0140764 -0.000418116 0)
(-0.013474 -0.000444167 0)
(-0.0128379 -0.000468025 0)
(-0.0121711 -0.000489485 0)
(-0.011477 -0.00050836 0)
(-0.0107592 -0.000524481 0)
(-0.0100216 -0.000537701 0)
(-0.009268 -0.000547901 0)
(-0.00850263 -0.000554984 0)
(-0.00772969 -0.000558884 0)
(-0.00695344 -0.000559565 0)
(-0.00617821 -0.000557019 0)
(-0.0054083 -0.00055127 0)
(-0.00464797 -0.000542374 0)
(-0.00390138 -0.000530414 0)
(-0.00317257 -0.000515507 0)
(-0.00246541 -0.000497794 0)
(-0.00178359 -0.000477444 0)
(-0.00113054 -0.00045465 0)
(-0.000509459 -0.000429624 0)
(7.6763e-05 -0.000402598 0)
(0.000625536 -0.000373818 0)
(0.0011346 -0.00034354 0)
(0.00160203 -0.000312035 0)
(0.00202628 -0.000279572 0)
(0.00240612 -0.000246419 0)
(0.00274071 -0.000212844 0)
(0.00302953 -0.000179111 0)
(0.00327245 -0.000145472 0)
(0.00346964 -0.000112171 0)
(0.00362162 -7.94378e-05 0)
(0.0037292 -4.74888e-05 0)
(0.00379349 -1.6525e-05 0)
(0.00381587 1.32691e-05 0)
(0.003798 4.17047e-05 0)
(0.00374176 6.8645e-05 0)
(0.00364927 9.39238e-05 0)
(0.00352288 0.000117385 0)
(0.00336518 0.000138876 0)
(0.00317897 0.000158234 0)
(0.00296731 0.000175279 0)
(0.00273356 0.000189802 0)
(0.00248135 0.000201554 0)
(0.00221472 0.000210232 0)
(0.00193809 0.000215465 0)
(0.00165644 0.000216799 0)
(0.00137529 0.000213679 0)
(0.00110087 0.000205448 0)
(0.000840135 0.000191349 0)
(0.00060079 0.000170584 0)
(0.000391173 0.000142469 0)
(0.000219843 0.000106802 0)
(9.47315e-05 6.47371e-05 0)
(2.133e-05 2.12959e-05 0)
(-2.47175e-06 -7.91807e-06 0)
(6.12096e-06 -3.47323e-05 0)
(5.37304e-05 -9.06279e-05 0)
(0.000127012 -0.000126437 0)
(0.000213783 -0.000141598 0)
(0.000300821 -0.00013945 0)
(0.000378398 -0.000123981 0)
(0.000439118 -9.87899e-05 0)
(0.000477441 -6.68473e-05 0)
(0.000489428 -3.04955e-05 0)
(0.000472466 8.47974e-06 0)
(0.000424986 4.87502e-05 0)
(0.000346223 8.93565e-05 0)
(0.000235995 0.000129634 0)
(9.45342e-05 0.000169145 0)
(-7.76548e-05 0.000207632 0)
(-0.000279899 0.00024497 0)
(-0.000511438 0.000281129 0)
(-0.000771491 0.00031615 0)
(-0.0010593 0.00035012 0)
(-0.00137417 0.000383157 0)
(-0.00171547 0.000415392 0)
(-0.00208265 0.000446959 0)
(-0.00247526 0.000477986 0)
(-0.00289289 0.000508584 0)
(-0.00333522 0.000538847 0)
(-0.00380196 0.000568843 0)
(-0.00429285 0.000598619 0)
(-0.00480766 0.000628192 0)
(-0.00534614 0.000657554 0)
(-0.005908 0.000686672 0)
(-0.00649292 0.000715483 0)
(-0.00710052 0.000743905 0)
(-0.0077303 0.000771829 0)
(-0.00838171 0.000799126 0)
(-0.00905405 0.000825647 0)
(-0.0097465 0.000851226 0)
(-0.0104581 0.00087568 0)
(-0.0111878 0.000898812 0)
(-0.0119342 0.000920413 0)
(-0.0126959 0.000940264 0)
(-0.0134713 0.000958136 0)
(-0.0142587 0.000973795 0)
(-0.0150559 0.000987002 0)
(-0.0158609 0.000997517 0)
(-0.0166713 0.0010051 0)
(-0.0174846 0.0010095 0)
(-0.018298 0.0010105 0)
(-0.0191087 0.00100786 0)
(-0.0199136 0.00100137 0)
(-0.0207096 0.000990815 0)
(-0.0214932 0.000976006 0)
(-0.0222611 0.00095677 0)
(-0.0230096 0.000932951 0)
(-0.0237351 0.000904418 0)
(-0.0244338 0.000871066 0)
(-0.025102 0.000832818 0)
(-0.0257358 0.000789626 0)
(-0.0263314 0.000741479 0)
(-0.026885 0.0006884 0)
(-0.027393 0.000630448 0)
(-0.0278516 0.000567726 0)
(-0.0282573 0.000500374 0)
(-0.0286067 0.000428576 0)
(-0.0288966 0.00035256 0)
(-0.029124 0.000272595 0)
(-0.0292862 0.00018899 0)
(-0.0293807 0.000102102 0)
(-0.0294053 1.23923e-05 0)
(-0.0293581 -7.97604e-05 0)
(-0.0292377 -0.000173872 0)
(-0.029043 -0.000269414 0)
(-0.0287732 -0.000365831 0)
(-0.0284282 -0.000462544 0)
(-0.0280082 -0.000558946 0)
(-0.0275137 -0.000654409 0)
(-0.026946 -0.00074829 0)
(-0.0263066 -0.000839937 0)
(-0.0255977 -0.000928693 0)
(-0.0248219 -0.0010139 0)
(-0.0239821 -0.00109493 0)
(-0.0230819 -0.00117114 0)
(-0.0221254 -0.00124193 0)
(-0.0211168 -0.00130674 0)
(-0.0200611 -0.00136502 0)
(-0.0189633 -0.00141629 0)
(-0.0178291 -0.00146012 0)
(-0.0166641 -0.00149613 0)
(-0.0154745 -0.00152399 0)
(-0.0142665 -0.00154347 0)
(-0.0130465 -0.0015544 0)
(-0.011821 -0.00155667 0)
(-0.0105966 -0.00155026 0)
(-0.00937989 -0.00153524 0)
(-0.00817726 -0.00151175 0)
(-0.00699508 -0.00148 0)
(-0.00583954 -0.00144028 0)
(-0.00471656 -0.00139296 0)
(-0.0036318 -0.00133849 0)
(-0.00259056 -0.00127734 0)
(-0.00159778 -0.00121008 0)
(-0.000657987 -0.00113732 0)
(0.000224769 -0.00105968 0)
(0.00104691 -0.000977856 0)
(0.00180535 -0.000892539 0)
(0.00249754 -0.000804443 0)
(0.00312147 -0.000714288 0)
(0.00367565 -0.000622791 0)
(0.00415914 -0.000530658 0)
(0.00457153 -0.000438576 0)
(0.00491292 -0.00034721 0)
(0.00518392 -0.000257195 0)
(0.00538563 -0.000169133 0)
(0.0055196 -8.35944e-05 0)
(0.00558783 -1.11481e-06 0)
(0.00559276 7.78027e-05 0)
(0.00553721 0.000152687 0)
(0.0054244 0.000223072 0)
(0.00525794 0.000288503 0)
(0.00504179 0.000348519 0)
(0.00478034 0.000402639 0)
(0.00447837 0.000450338 0)
(0.0041411 0.000491028 0)
(0.00377423 0.000524028 0)
(0.00338403 0.000548541 0)
(0.00297736 0.000563625 0)
(0.0025618 0.000568171 0)
(0.00214567 0.000560892 0)
(0.00173816 0.000540337 0)
(0.00134927 0.00050496 0)
(0.000989793 0.000453297 0)
(0.000670978 0.000384363 0)
(0.000403964 0.000298441 0)
(0.000199 0.000198673 0)
(6.49279e-05 9.47441e-05 0)
(2.90528e-06 1.12392e-05 0)
(7.27953e-06 -6.55449e-05 0)
(6.20275e-05 -0.000158581 0)
(0.000142513 -0.000213336 0)
(0.000233921 -0.00023327 0)
(0.000321017 -0.000224319 0)
(0.000392825 -0.000192774 0)
(0.000440931 -0.000144353 0)
(0.000458897 -8.38966e-05 0)
(0.000442028 -1.53275e-05 0)
(0.000387104 5.82774e-05 0)
(0.000292102 0.000134572 0)
(0.000155928 0.000211825 0)
(-2.17964e-05 0.0002888 0)
(-0.000240937 0.000364661 0)
(-0.000501 0.000438884 0)
(-0.000801264 0.000511187 0)
(-0.00114089 0.000581472 0)
(-0.00151897 0.000649772 0)
(-0.00193464 0.000716213 0)
(-0.00238705 0.000780974 0)
(-0.00287544 0.000844267 0)
(-0.00339911 0.000906307 0)
(-0.00395746 0.000967301 0)
(-0.00454996 0.00102743 0)
(-0.00517613 0.00108685 0)
(-0.00583554 0.00114566 0)
(-0.00652777 0.00120393 0)
(-0.00725243 0.00126166 0)
(-0.00800907 0.00131884 0)
(-0.0087972 0.00137536 0)
(-0.00961625 0.0014311 0)
(-0.0104656 0.00148589 0)
(-0.0113444 0.00153951 0)
(-0.0122517 0.0015917 0)
(-0.0131865 0.00164215 0)
(-0.0141476 0.00169056 0)
(-0.0151334 0.00173655 0)
(-0.0161422 0.00177976 0)
(-0.0171723 0.00181976 0)
(-0.0182215 0.00185614 0)
(-0.0192874 0.00188847 0)
(-0.0203675 0.00191629 0)
(-0.021459 0.00193916 0)
(-0.0225587 0.00195661 0)
(-0.0236635 0.00196821 0)
(-0.0247698 0.00197349 0)
(-0.0258739 0.00197203 0)
(-0.0269717 0.0019634 0)
(-0.0280592 0.00194722 0)
(-0.0291319 0.0019231 0)
(-0.0301854 0.00189071 0)
(-0.0312151 0.00184974 0)
(-0.0322161 0.00179993 0)
(-0.0331835 0.00174106 0)
(-0.0341125 0.00167296 0)
(-0.034998 0.00159552 0)
(-0.035835 0.0015087 0)
(-0.0366186 0.0014125 0)
(-0.0373439 0.001307 0)
(-0.038006 0.00119236 0)
(-0.0386003 0.00106881 0)
(-0.0391224 0.000936644 0)
(-0.0395679 0.000796253 0)
(-0.0399328 0.000648098 0)
(-0.0402134 0.00049272 0)
(-0.0404064 0.000330738 0)
(-0.0405086 0.000162858 0)
(-0.0405175 -1.01158e-05 0)
(-0.040431 -0.000187366 0)
(-0.0402472 -0.000367976 0)
(-0.0399651 -0.000550959 0)
(-0.0395841 -0.000735271 0)
(-0.0391039 -0.000919822 0)
(-0.038525 -0.00110348 0)
(-0.0378486 -0.00128507 0)
(-0.0370763 -0.00146341 0)
(-0.0362104 -0.00163729 0)
(-0.0352537 -0.00180549 0)
(-0.0342097 -0.00196682 0)
(-0.0330825 -0.00212011 0)
(-0.0318768 -0.00226419 0)
(-0.0305978 -0.00239797 0)
(-0.0292511 -0.00252041 0)
(-0.027843 -0.00263054 0)
(-0.0263803 -0.00272747 0)
(-0.02487 -0.0028104 0)
(-0.0233195 -0.00287864 0)
(-0.0217367 -0.00293163 0)
(-0.0201296 -0.00296892 0)
(-0.0185064 -0.00299018 0)
(-0.0168754 -0.00299524 0)
(-0.0152451 -0.00298405 0)
(-0.0136238 -0.00295672 0)
(-0.0120199 -0.0029135 0)
(-0.0104415 -0.00285477 0)
(-0.0088966 -0.00278106 0)
(-0.00739288 -0.00269304 0)
(-0.00593765 -0.00259148 0)
(-0.00453783 -0.0024773 0)
(-0.00319987 -0.00235149 0)
(-0.00192973 -0.00221515 0)
(-0.000732767 -0.00206945 0)
(0.00038622 -0.00191565 0)
(0.00142308 -0.00175502 0)
(0.00237432 -0.00158888 0)
(0.00323712 -0.00141857 0)
(0.00400933 -0.00124542 0)
(0.00468949 -0.00107076 0)
(0.00527684 -0.000895877 0)
(0.00577128 -0.00072204 0)
(0.00617337 -0.000550459 0)
(0.00648432 -0.000382295 0)
(0.00670594 -0.000218645 0)
(0.00684065 -6.05661e-05 0)
(0.00689147 9.09449e-05 0)
(0.00686193 0.000234941 0)
(0.00675614 0.0003705 0)
(0.00657872 0.00049671 0)
(0.0063348 0.000612646 0)
(0.00603009 0.00071735 0)
(0.0056708 0.000809797 0)
(0.00526377 0.000888859 0)
(0.00481644 0.00095326 0)
(0.00433693 0.00100155 0)
(0.00383412 0.00103204 0)
(0.00331768 0.00104285 0)
(0.00279812 0.00103182 0)
(0.00228685 0.000996641 0)
(0.00179611 0.00093498 0)
(0.00133882 0.000844789 0)
(0.000928308 0.000724935 0)
(0.000577654 0.000576309 0)
(0.000299488 0.000403793 0)
(0.000107306 0.000220159 0)
(7.72112e-06 5.36456e-05 0)
(7.5118e-06 -9.86716e-05 0)
(6.22971e-05 -0.000229237 0)
(0.000139646 -0.000300123 0)
(0.000222977 -0.000320097 0)
(0.000295858 -0.00029845 0)
(0.000346594 -0.000244101 0)
(0.00036625 -0.000165035 0)
(0.000347951 -6.80554e-05 0)
(0.000286616 4.12473e-05 0)
(0.000178698 0.000158414 0)
(2.19006e-05 0.000279987 0)
(-0.000185069 0.000403362 0)
(-0.000442736 0.000526651 0)
(-0.000751053 0.000648543 0)
(-0.00110957 0.000768196 0)
(-0.00151756 0.000885131 0)
(-0.00197415 0.000999148 0)
(-0.00247839 0.00111025 0)
(-0.00302932 0.00121857 0)
(-0.00362602 0.00132436 0)
(-0.00426762 0.00142789 0)
(-0.00495331 0.00152945 0)
(-0.00568238 0.00162933 0)
(-0.00645416 0.00172778 0)
(-0.00726803 0.00182499 0)
(-0.00812341 0.00192108 0)
(-0.00901972 0.00201614 0)
(-0.00995633 0.00211014 0)
(-0.0109326 0.00220301 0)
(-0.0119478 0.00229458 0)
(-0.0130011 0.00238461 0)
(-0.0140914 0.00247281 0)
(-0.0152177 0.0025588 0)
(-0.0163786 0.00264216 0)
(-0.0175726 0.00272239 0)
(-0.0187979 0.00279895 0)
(-0.0200525 0.00287127 0)
(-0.0213342 0.00293873 0)
(-0.0226404 0.00300066 0)
(-0.0239684 0.0030564 0)
(-0.025315 0.00310523 0)
(-0.0266769 0.00314646 0)
(-0.0280504 0.00317937 0)
(-0.0294315 0.00320323 0)
(-0.0308162 0.00321734 0)
(-0.0321997 0.003221 0)
(-0.0335775 0.00321354 0)
(-0.0349445 0.00319433 0)
(-0.0362955 0.00316275 0)
(-0.0376252 0.00311825 0)
(-0.0389278 0.00306033 0)
(-0.0401977 0.00298854 0)
(-0.0414291 0.00290251 0)
(-0.0426159 0.00280193 0)
(-0.0437521 0.0026866 0)
(-0.0448318 0.00255639 0)
(-0.045849 0.00241127 0)
(-0.0467977 0.00225133 0)
(-0.0476721 0.00207674 0)
(-0.0484666 0.0018878 0)
(-0.0491756 0.00168493 0)
(-0.049794 0.00146867 0)
(-0.0503168 0.00123966 0)
(-0.0507394 0.000998689 0)
(-0.0510575 0.000746656 0)
(-0.0512674 0.00048458 0)
(-0.0513657 0.000213606 0)
(-0.0513495 -6.50052e-05 0)
(-0.0512165 -0.000349908 0)
(-0.050965 -0.000639641 0)
(-0.0505938 -0.000932648 0)
(-0.0501025 -0.00122729 0)
(-0.049491 -0.00152185 0)
(-0.0487604 -0.00181456 0)
(-0.047912 -0.00210361 0)
(-0.046948 -0.00238714 0)
(-0.0458714 -0.00266328 0)
(-0.0446857 -0.00293017 0)
(-0.0433952 -0.00318596 0)
(-0.0420049 -0.00342883 0)
(-0.0405204 -0.00365702 0)
(-0.0389479 -0.00386885 0)
(-0.0372944 -0.00406272 0)
(-0.0355671 -0.00423715 0)
(-0.0337742 -0.00439077 0)
(-0.0319239 -0.00452237 0)
(-0.0300252 -0.0046309 0)
(-0.0280871 -0.00471547 0)
(-0.0261192 -0.00477541 0)
(-0.0241312 -0.00481021 0)
(-0.0221328 -0.0048196 0)
(-0.0201341 -0.0048035 0)
(-0.018145 -0.00476205 0)
(-0.0161752 -0.00469563 0)
(-0.0142346 -0.00460481 0)
(-0.0123325 -0.0044904 0)
(-0.010478 -0.00435337 0)
(-0.00868007 -0.00419493 0)
(-0.00694684 -0.00401645 0)
(-0.00528615 -0.00381944 0)
(-0.00370521 -0.0036056 0)
(-0.00221058 -0.00337672 0)
(-0.000808144 -0.00313471 0)
(0.000496922 -0.00288155 0)
(0.00170021 -0.00261929 0)
(0.0027981 -0.00235 0)
(0.00378775 -0.00207577 0)
(0.00466715 -0.00179868 0)
(0.00543509 -0.00152078 0)
(0.00609115 -0.00124405 0)
(0.00663573 -0.000970443 0)
(0.00706999 -0.000701817 0)
(0.00739587 -0.000439965 0)
(0.00761604 -0.000186599 0)
(0.00773385 5.66619e-05 0)
(0.0077534 0.000288227 0)
(0.00767946 0.000506578 0)
(0.00751744 0.000710206 0)
(0.00727342 0.00089758 0)
(0.00695417 0.00106713 0)
(0.00656711 0.0012172 0)
(0.0061204 0.00134598 0)
(0.00562288 0.0014515 0)
(0.00508423 0.00153154 0)
(0.00451491 0.0015836 0)
(0.00392626 0.00160492 0)
(0.00333049 0.00159248 0)
(0.0027407 0.00154312 0)
(0.00217081 0.00145375 0)
(0.0016354 0.00132178 0)
(0.00114948 0.0011459 0)
(0.000728046 0.000927263 0)
(0.000386443 0.000671524 0)
(0.000143407 0.000392231 0)
(1.14862e-05 0.000116738 0)
(7.1054e-06 -0.000130254 0)
(5.6216e-05 -0.000294242 0)
(0.000121539 -0.000375823 0)
(0.000185682 -0.000389363 0)
(0.000231853 -0.00034792 0)
(0.000248102 -0.000263287 0)
(0.000225346 -0.000145825 0)
(0.000156615 -4.34022e-06 0)
(3.67429e-05 0.000153885 0)
(-0.000137906 0.000322987 0)
(-0.00036971 0.000498369 0)
(-0.000660041 0.000676525 0)
(-0.00100949 0.000854876 0)
(-0.00141805 0.00103161 0)
(-0.00188529 0.00120553 0)
(-0.00241052 0.00137593 0)
(-0.00299284 0.00154249 0)
(-0.00363127 0.00170515 0)
(-0.00432483 0.00186407 0)
(-0.00507252 0.00201952 0)
(-0.00587341 0.00217182 0)
(-0.00672662 0.00232135 0)
(-0.00763131 0.00246845 0)
(-0.00858671 0.00261341 0)
(-0.00959205 0.00275645 0)
(-0.0106466 0.00289771 0)
(-0.0117496 0.00303723 0)
(-0.0129001 0.00317496 0)
(-0.0140974 0.00331072 0)
(-0.0153403 0.00344425 0)
(-0.0166277 0.00357517 0)
(-0.0179583 0.00370301 0)
(-0.0193305 0.00382721 0)
(-0.0207426 0.00394711 0)
(-0.0221924 0.004062 0)
(-0.0236778 0.00417107 0)
(-0.0251961 0.00427347 0)
(-0.0267444 0.00436829 0)
(-0.0283196 0.00445459 0)
(-0.0299181 0.00453137 0)
(-0.0315361 0.00459763 0)
(-0.0331694 0.00465236 0)
(-0.0348134 0.00469452 0)
(-0.0364634 0.00472311 0)
(-0.0381142 0.00473712 0)
(-0.0397604 0.00473559 0)
(-0.0413964 0.00471757 0)
(-0.043016 0.0046822 0)
(-0.0446132 0.00462864 0)
(-0.0461816 0.00455614 0)
(-0.0477146 0.00446403 0)
(-0.0492054 0.00435175 0)
(-0.0506473 0.00421881 0)
(-0.0520333 0.00406486 0)
(-0.0533566 0.00388967 0)
(-0.0546103 0.00369312 0)
(-0.0557875 0.00347526 0)
(-0.0568815 0.00323628 0)
(-0.0578859 0.00297652 0)
(-0.0587941 0.00269647 0)
(-0.0596002 0.0023968 0)
(-0.0602984 0.00207835 0)
(-0.0608833 0.00174212 0)
(-0.0613497 0.00138928 0)
(-0.0616933 0.00102116 0)
(-0.0619098 0.000639261 0)
(-0.0619957 0.000245257 0)
(-0.0619482 -0.000159038 0)
(-0.0617648 -0.000571675 0)
(-0.0614438 -0.00099056 0)
(-0.0609843 -0.00141348 0)
(-0.060386 -0.00183811 0)
(-0.0596491 -0.00226203 0)
(-0.0587751 -0.00268275 0)
(-0.0577656 -0.00309772 0)
(-0.0566236 -0.00350434 0)
(-0.0553523 -0.00390002 0)
(-0.0539561 -0.00428215 0)
(-0.0524399 -0.00464815 0)
(-0.0508095 -0.00499553 0)
(-0.0490712 -0.00532182 0)
(-0.0472323 -0.0056247 0)
(-0.0453004 -0.00590196 0)
(-0.0432841 -0.00615154 0)
(-0.0411922 -0.00637157 0)
(-0.0390342 -0.00656035 0)
(-0.03682 -0.00671644 0)
(-0.03456 -0.00683861 0)
(-0.0322649 -0.00692589 0)
(-0.0299454 -0.00697759 0)
(-0.0276128 -0.00699332 0)
(-0.0252781 -0.00697294 0)
(-0.0229526 -0.00691664 0)
(-0.0206473 -0.00682491 0)
(-0.0183732 -0.00669853 0)
(-0.016141 -0.00653857 0)
(-0.0139612 -0.00634638 0)
(-0.0118436 -0.00612358 0)
(-0.00979794 -0.00587206 0)
(-0.00783304 -0.00559392 0)
(-0.00595728 -0.00529147 0)
(-0.00417831 -0.00496721 0)
(-0.00250305 -0.00462378 0)
(-0.000937618 -0.00426394 0)
(0.000512688 -0.00389056 0)
(0.00184344 -0.00350655 0)
(0.00305109 -0.00311484 0)
(0.00413301 -0.0027184 0)
(0.00508748 -0.00232012 0)
(0.00591369 -0.00192286 0)
(0.00661175 -0.00152942 0)
(0.00718266 -0.00114249 0)
(0.00762832 -0.000764672 0)
(0.00795146 -0.000398469 0)
(0.00815573 -4.63093e-05 0)
(0.00824551 0.000289494 0)
(0.00822606 0.000606677 0)
(0.0081034 0.000903002 0)
(0.00788434 0.00117621 0)
(0.00757647 0.00142399 0)
(0.0071882 0.00164394 0)
(0.00672871 0.00183349 0)
(0.00620801 0.00198986 0)
(0.00563699 0.00210998 0)
(0.00502738 0.0021905 0)
(0.00439184 0.00222776 0)
(0.0037439 0.00221787 0)
(0.003098 0.00215682 0)
(0.00246939 0.00204076 0)
(0.00187409 0.0018665 0)
(0.00132868 0.00163228 0)
(0.000850101 0.00133898 0)
(0.00045661 0.000991829 0)
(0.000172014 0.000603158 0)
(1.42745e-05 0.000196522 0)
(6.25373e-06 -0.000157442 0)
(4.51788e-05 -0.00034686 0)
(9.09891e-05 -0.000431196 0)
(0.000126324 -0.000430172 0)
(0.000134813 -0.00036071 0)
(0.000104702 -0.000237571 0)
(2.70983e-05 -7.3542e-05 0)
(-0.000104777 0.000120562 0)
(-0.000295926 0.000335788 0)
(-0.000549859 0.00056489 0)
(-0.000868871 0.000802149 0)
(-0.00125428 0.00104317 0)
(-0.00170665 0.00128469 0)
(-0.00222596 0.00152438 0)
(-0.00281178 0.0017607 0)
(-0.0034634 0.00199271 0)
(-0.00417992 0.00221993 0)
(-0.00496037 0.00244227 0)
(-0.00580371 0.00265985 0)
(-0.00670893 0.00287297 0)
(-0.00767503 0.00308201 0)
(-0.00870108 0.00328737 0)
(-0.00978614 0.00348944 0)
(-0.0109293 0.00368854 0)
(-0.0121297 0.00388489 0)
(-0.0133864 0.00407861 0)
(-0.0146985 0.0042697 0)
(-0.0160648 0.00445799 0)
(-0.0174842 0.00464322 0)
(-0.0189553 0.00482495 0)
(-0.0204767 0.00500265 0)
(-0.0220466 0.00517562 0)
(-0.023663 0.00534307 0)
(-0.0253237 0.00550409 0)
(-0.0270261 0.00565766 0)
(-0.0287673 0.00580268 0)
(-0.0305442 0.00593798 0)
(-0.0323531 0.00606232 0)
(-0.0341903 0.00617442 0)
(-0.0360514 0.00627293 0)
(-0.0379318 0.00635652 0)
(-0.0398266 0.00642382 0)
(-0.0417303 0.00647346 0)
(-0.0436373 0.00650411 0)
(-0.0455416 0.00651446 0)
(-0.0474369 0.00650323 0)
(-0.0493165 0.00646923 0)
(-0.0511737 0.00641131 0)
(-0.0530013 0.00632845 0)
(-0.0547919 0.00621969 0)
(-0.0565383 0.00608423 0)
(-0.0582327 0.00592136 0)
(-0.0598676 0.00573055 0)
(-0.0614352 0.00551141 0)
(-0.0629279 0.00526371 0)
(-0.064338 0.00498742 0)
(-0.0656581 0.00468268 0)
(-0.0668808 0.00434986 0)
(-0.0679991 0.00398949 0)
(-0.069006 0.00360234 0)
(-0.0698949 0.0031894 0)
(-0.0706599 0.00275186 0)
(-0.071295 0.00229114 0)
(-0.0717951 0.00180886 0)
(-0.0721554 0.00130687 0)
(-0.0723716 0.000787238 0)
(-0.0724402 0.000252206 0)
(-0.0723582 -0.000295775 0)
(-0.0721233 -0.00085408 0)
(-0.071734 -0.00141992 0)
(-0.0711894 -0.00199035 0)
(-0.0704896 -0.0025623 0)
(-0.0696351 -0.00313258 0)
(-0.0686276 -0.00369792 0)
(-0.0674693 -0.00425496 0)
(-0.0661634 -0.00480033 0)
(-0.0647139 -0.00533062 0)
(-0.0631256 -0.00584245 0)
(-0.0614039 -0.00633248 0)
(-0.0595552 -0.00679743 0)
(-0.0575868 -0.00723414 0)
(-0.0555063 -0.00763958 0)
(-0.0533223 -0.00801088 0)
(-0.051044 -0.00834539 0)
(-0.0486811 -0.00864065 0)
(-0.046244 -0.00889449 0)
(-0.0437435 -0.00910501 0)
(-0.0411909 -0.00927061 0)
(-0.0385976 -0.00939001 0)
(-0.0359756 -0.00946232 0)
(-0.033337 -0.00948696 0)
(-0.0306939 -0.00946377 0)
(-0.0280585 -0.00939294 0)
(-0.0254431 -0.00927506 0)
(-0.0228596 -0.00911111 0)
(-0.0203199 -0.00890245 0)
(-0.0178355 -0.00865078 0)
(-0.0154173 -0.00835819 0)
(-0.0130761 -0.00802707 0)
(-0.0108218 -0.00766013 0)
(-0.00866374 -0.00726035 0)
(-0.00661067 -0.00683097 0)
(-0.00467045 -0.00637542 0)
(-0.00285012 -0.0058973 0)
(-0.00115584 -0.00540035 0)
(0.000407157 -0.0048884 0)
(0.00183459 -0.00436534 0)
(0.00312316 -0.00383507 0)
(0.0042706 -0.00330145 0)
(0.00527561 -0.00276831 0)
(0.00613792 -0.0022394 0)
(0.00685828 -0.00171838 0)
(0.00743841 -0.00120877 0)
(0.00788101 -0.000713991 0)
(0.00818976 -0.000237362 0)
(0.00836926 0.00021791 0)
(0.00842506 0.000648704 0)
(0.00836364 0.00105195 0)
(0.00819233 0.00142452 0)
(0.00791936 0.00176328 0)
(0.00755384 0.00206498 0)
(0.00710579 0.00232619 0)
(0.00658615 0.00254325 0)
(0.00600673 0.0027122 0)
(0.0053803 0.00282879 0)
(0.00472054 0.00288844 0)
(0.00404205 0.00288636 0)
(0.00336037 0.00281767 0)
(0.0026919 0.0026777 0)
(0.00205394 0.00246248 0)
(0.0014646 0.00216948 0)
(0.000942802 0.00179863 0)
(0.000509603 0.00135374 0)
(0.00019327 0.000844455 0)
(1.6231e-05 0.000288954 0)
(5.08864e-06 -0.000178041 0)
(3.02457e-05 -0.000381558 0)
(5.0278e-05 -0.000458329 0)
(4.85158e-05 -0.000432976 0)
(9.69768e-06 -0.000326138 0)
(-7.73041e-05 -0.000155528 0)
(-0.000220877 6.36826e-05 0)
(-0.000427345 0.000318715 0)
(-0.000701321 0.000598998 0)
(-0.001046 0.000895964 0)
(-0.00146345 0.00120282 0)
(-0.0019548 0.00151433 0)
(-0.00252048 0.00182658 0)
(-0.00316041 0.00213677 0)
(-0.0038741 0.002443 0)
(-0.0046608 0.0027441 0)
(-0.0055196 0.00303948 0)
(-0.00644951 0.00332896 0)
(-0.00744948 0.00361265 0)
(-0.00851847 0.00389086 0)
(-0.00965545 0.00416398 0)
(-0.0108594 0.00443247 0)
(-0.0121293 0.0046967 0)
(-0.0134642 0.004957 0)
(-0.014863 0.00521357 0)
(-0.0163246 0.00546646 0)
(-0.0178479 0.00571558 0)
(-0.0194315 0.00596067 0)
(-0.0210739 0.00620128 0)
(-0.0227735 0.0064368 0)
(-0.0245285 0.00666646 0)
(-0.0263365 0.00688932 0)
(-0.0281953 0.0071043 0)
(-0.0301019 0.00731018 0)
(-0.0320534 0.00750562 0)
(-0.0340462 0.00768919 0)
(-0.0360765 0.00785933 0)
(-0.0381401 0.00801445 0)
(-0.0402324 0.00815287 0)
(-0.0423484 0.0082729 0)
(-0.0444826 0.00837279 0)
(-0.0466294 0.00845083 0)
(-0.0487825 0.00850528 0)
(-0.0509354 0.00853447 0)
(-0.0530813 0.00853676 0)
(-0.055213 0.00851057 0)
(-0.0573231 0.00845444 0)
(-0.0594039 0.00836698 0)
(-0.0614475 0.00824694 0)
(-0.0634457 0.00809323 0)
(-0.0653903 0.00790488 0)
(-0.0672731 0.00768112 0)
(-0.0690856 0.00742137 0)
(-0.0708195 0.00712524 0)
(-0.0724664 0.00679258 0)
(-0.0740183 0.00642347 0)
(-0.075467 0.0060182 0)
(-0.0768048 0.00557736 0)
(-0.0780241 0.00510175 0)
(-0.0791177 0.00459247 0)
(-0.0800787 0.00405088 0)
(-0.0809007 0.00347859 0)
(-0.0815779 0.00287749 0)
(-0.0821047 0.00224975 0)
(-0.0824764 0.00159777 0)
(-0.0826888 0.000924218 0)
(-0.0827381 0.000232004 0)
(-0.0826216 -0.000475739 0)
(-0.0823372 -0.00119566 0)
(-0.0818833 -0.00192423 0)
(-0.0812594 -0.00265772 0)
(-0.0804657 -0.00339226 0)
(-0.0795032 -0.00412386 0)
(-0.0783736 -0.0048484 0)
(-0.0770798 -0.00556171 0)
(-0.0756251 -0.00625957 0)
(-0.0740141 -0.00693776 0)
(-0.0722518 -0.00759206 0)
(-0.0703443 -0.00821833 0)
(-0.0682985 -0.00881251 0)
(-0.0661219 -0.00937068 0)
(-0.0638231 -0.00988908 0)
(-0.0614109 -0.0103642 0)
(-0.0588953 -0.0107926 0)
(-0.0562866 -0.0111714 0)
(-0.0535959 -0.0114979 0)
(-0.0508345 -0.0117696 0)
(-0.0480146 -0.0119845 0)
(-0.0451483 -0.0121411 0)
(-0.0422485 -0.0122382 0)
(-0.0393278 -0.012275 0)
(-0.0363995 -0.0122514 0)
(-0.0334765 -0.0121674 0)
(-0.030572 -0.0120238 0)
(-0.0276989 -0.0118217 0)
(-0.0248699 -0.0115627 0)
(-0.0220974 -0.011249 0)
(-0.0193936 -0.010883 0)
(-0.01677 -0.0104676 0)
(-0.0142375 -0.0100063 0)
(-0.0118065 -0.00950255 0)
(-0.0094866 -0.00896048 0)
(-0.00728665 -0.00838431 0)
(-0.00521456 -0.00777853 0)
(-0.00327736 -0.00714781 0)
(-0.00148111 -0.00649695 0)
(0.000169177 -0.00583083 0)
(0.0016695 -0.00515439 0)
(0.00301695 -0.00447254 0)
(0.00420969 -0.00379017 0)
(0.00524702 -0.00311207 0)
(0.00612928 -0.00244295 0)
(0.00685795 -0.00178739 0)
(0.00743556 -0.00114982 0)
(0.00786573 -0.000534561 0)
(0.00815311 5.41897e-05 0)
(0.00830339 0.000612302 0)
(0.00832325 0.00113574 0)
(0.00822054 0.00162051 0)
(0.00800388 0.00206247 0)
(0.00768289 0.00245749 0)
(0.00726824 0.00280117 0)
(0.00677154 0.00308891 0)
(0.0062054 0.00331581 0)
(0.00558334 0.00347668 0)
(0.00491991 0.003566 0)
(0.00423058 0.00357802 0)
(0.00353181 0.00350695 0)
(0.00284104 0.00334716 0)
(0.00217677 0.00309371 0)
(0.00155858 0.0027429 0)
(0.00100724 0.00229318 0)
(0.000546358 0.00174614 0)
(0.000207826 0.00110782 0)
(1.75023e-05 0.000390354 0)
(3.69548e-06 -0.000190331 0)
(1.21979e-05 -0.000393772 0)
(1.19198e-06 -0.000450481 0)