/*--------------------------------*- C++ -*----------------------------------*\
  =========                 |
  \\      /  F ield         | OpenFOAM: The Open Source CFD Toolbox
   \\    /   O peration     | Website:  https://openfoam.org
    \\  /    A nd           | Version:  12
     \\/     M anipulation  |
\*---------------------------------------------------------------------------*/
FoamFile
{
    format      ascii;
    class       volScalarField;
    location    "1";
    object      epsilon;
}
// * * * * * * * * * * * * * * * * * * * * * * * * * * * * * * * * * * * * * //

dimensions      [0 2 -3 0 0 0 0];

internalField   nonuniform List<scalar> 
5625
(
5.39571e-06
2.69091e-05
5.85441e-05
9.59027e-05
0.000136782
0.000179685
0.000223428
0.000267008
0.000309568
0.00035038
0.000388841
0.000424481
0.000456956
0.000486056
0.000511694
0.000533904
0.000552825
0.000568683
0.000581778
0.000592456
0.000601093
0.000608069
0.000613753
0.000618484
0.00062256
0.000626226
0.000629672
0.000633031
0.000636375
0.000639726
0.000643055
0.000646293
0.000649336
0.000652051
0.000654285
0.000655868
0.000656627
0.000656433
0.000655105
0.000652478
0.000648411
0.000642782
0.000635494
0.00062647
0.000615664
0.000603054
0.000588651
0.000572493
0.000554648
0.000535212
0.000514306
0.000492076
0.000468685
0.000444314
0.000419155
0.000393405
0.000367266
0.000340935
0.000314603
0.000288451
0.000262643
0.00023733
0.000212644
0.000188698
0.000165589
0.000143398
0.000122199
0.000102053
8.30257e-05
6.51959e-05
4.86705e-05
3.3612e-05
2.02959e-05
9.26492e-06
1.85396e-06
2.6948e-05
2.18706e-05
3.2743e-05
4.86733e-05
6.70627e-05
8.67569e-05
0.000107032
0.000127346
0.000147258
0.000166405
0.000184493
0.000201289
0.000216626
0.000230399
0.000242562
0.000253127
0.000262153
0.000269744
0.000276035
0.000281188
0.000285374
0.000288769
0.000291546
0.000293862
0.000295854
0.00029764
0.000299307
0.000300918
0.000302507
0.000304086
0.00030564
0.000307139
0.000308534
0.000309762
0.000310755
0.00031143
0.000311713
0.000311538
0.000310824
0.000309495
0.000307485
0.00030474
0.000301214
0.000296873
0.000291696
0.000285675
0.000278817
0.000271139
0.000262675
0.00025347
0.00024358
0.000233074
0.000222028
0.000210525
0.000198655
0.00018651
0.000174181
0.000161762
0.00014934
0.000137
0.000124819
0.000112868
0.000101208
8.98954e-05
7.89769e-05
6.84939e-05
5.84842e-05
4.89832e-05
4.00308e-05
3.16791e-05
2.40068e-05
1.71518e-05
1.14039e-05
7.55897e-06
9.2614e-06
5.89741e-05
3.30134e-05
3.3759e-05
4.15993e-05
5.25651e-05
6.51332e-05
7.84962e-05
9.21298e-05
0.00010565
0.000118758
0.000131219
0.000142852
0.000153524
0.00016315
0.000171689
0.000179138
0.000185532
0.000190935
0.000195437
0.000199143
0.000202169
0.000204635
0.000206656
0.000208341
0.000209784
0.000211066
0.000212247
0.000213372
0.000214465
0.000215533
0.000216569
0.000217551
0.000218447
0.000219213
0.000219803
0.000220157
0.000220236
0.000219985
0.000219351
0.000218284
0.000216743
0.000214689
0.000212094
0.000208937
0.000205206
0.000200896
0.000196013
0.000190572
0.000184596
0.000178116
0.000171173
0.000163813
0.000156087
0.000148053
0.00013977
0.000131301
0.000122708
0.000114054
0.000105399
9.68002e-05
8.83106e-05
7.99799e-05
7.18527e-05
6.39692e-05
5.6366e-05
4.90774e-05
4.21374e-05
3.55831e-05
2.94613e-05
2.38393e-05
1.8828e-05
1.46346e-05
1.17157e-05
1.13727e-05
2.02547e-05
9.75888e-05
4.96599e-05
4.22188e-05
4.45331e-05
5.0977e-05
5.95483e-05
6.92586e-05
7.95121e-05
8.99002e-05
0.000100122
0.000109947
0.000119201
0.000127756
0.000135525
0.000142461
0.000148551
0.000153812
0.000158288
0.000162044
0.000165159
0.000167723
0.000169827
0.000171564
0.000173017
0.000174263
0.000175364
0.00017637
0.000177315
0.000178219
0.000179088
0.000179916
0.000180686
0.00018137
0.000181937
0.000182345
0.00018255
0.000182524
0.000182217
0.00018159
0.000180606
0.000179232
0.000177438
0.000175205
0.000172517
0.000169364
0.000165746
0.000161668
0.000157144
0.000152194
0.000146842
0.000141123
0.000135073
0.000128735
0.000122153
0.000115376
0.000108454
0.000101436
9.43731e-05
8.73131e-05
8.03024e-05
7.33852e-05
6.66024e-05
5.99924e-05
5.35914e-05
4.7434e-05
4.15552e-05
3.59933e-05
3.07944e-05
2.60206e-05
2.17651e-05
1.81833e-05
1.5566e-05
1.45554e-05
1.70363e-05
3.34387e-05
0.000141213
6.94824e-05
5.43255e-05
5.20212e-05
5.49866e-05
6.06806e-05
6.79006e-05
7.59515e-05
8.43765e-05
9.28481e-05
0.000101121
0.00010901
0.000116377
0.000123129
0.000129206
0.000134584
0.000139268
0.000143286
0.000146689
0.000149539
0.00015191
0.00015388
0.000155524
0.000156916
0.00015812
0.00015919
0.000160167
0.000161082
0.00016195
0.000162777
0.000163557
0.000164272
0.000164901
0.000165414
0.000165772
0.000165939
0.000165892
0.000165585
0.000164985
0.000164058
0.000162777
0.000161117
0.00015906
0.000156593
0.000153708
0.000150406
0.000146692
0.000142579
0.000138084
0.000133232
0.000128052
0.000122578
0.000116849
0.000110905
0.000104791
9.85513e-05
9.22317e-05
8.58777e-05
7.95335e-05
7.32421e-05
6.70444e-05
6.09792e-05
5.50838e-05
4.93945e-05
4.39479e-05
3.87833e-05
3.39461e-05
2.94943e-05
2.55078e-05
2.21073e-05
1.94946e-05
1.80477e-05
1.86053e-05
2.37218e-05
4.81935e-05
0.000189031
9.16307e-05
6.87446e-05
6.22055e-05
6.21936e-05
6.55477e-05
7.08353e-05
7.72543e-05
8.4283e-05
9.15524e-05
9.87958e-05
0.00010581
0.000112443
0.000118585
0.000124168
0.000129154
0.000133535
0.000137331
0.000140578
0.000143331
0.000145652
0.00014761
0.000149273
0.000150705
0.000151966
0.000153102
0.000154151
0.00015514
0.000156082
0.000156981
0.000157828
0.000158609
0.000159301
0.000159875
0.000160296
0.000160522
0.000160539
0.000160302
0.000159778
0.000158935
0.000157745
0.000156185
0.000154236
0.000151886
0.000149127
0.000145958
0.000142386
0.000138421
0.000134081
0.00012939
0.000124377
0.000119076
0.000113525
0.000107766
0.000101843
9.58008e-05
8.96864e-05
8.35456e-05
7.74237e-05
7.13644e-05
6.54098e-05
5.96005e-05
5.39757e-05
4.85748e-05
4.34386e-05
3.86123e-05
3.415e-05
3.01214e-05
2.66246e-05
2.3809e-05
2.19229e-05
2.14322e-05
2.33911e-05
3.11048e-05
6.41593e-05
0.000240546
0.000115696
8.48705e-05
7.42396e-05
7.15191e-05
7.28464e-05
7.65277e-05
8.16341e-05
8.75819e-05
9.39673e-05
0.000100489
0.000106918
0.000113083
0.00011886
0.000124164
0.000128945
0.000133188
0.000136901
0.000140115
0.000142876
0.000145239
0.000147269
0.000149029
0.000150578
0.00015197
0.000153251
0.000154454
0.000155604
0.000156712
0.00015778
0.000158799
0.000159751
0.000160612
0.000161353
0.000161941
0.000162331
0.000162494
0.000162404
0.000162018
0.000161302
0.000160228
0.00015877
0.000156908
0.000154628
0.00015192
0.000148782
0.000145218
0.00014124
0.000136865
0.000132117
0.000127028
0.000121633
0.000115973
0.000110094
0.000104043
9.78694e-05
9.16248e-05
8.53595e-05
7.91231e-05
7.29639e-05
6.69283e-05
6.10612e-05
5.54065e-05
5.00082e-05
4.49128e-05
4.01727e-05
3.58509e-05
3.20299e-05
2.88259e-05
2.64158e-05
2.50951e-05
2.54234e-05
2.86901e-05
3.90133e-05
8.10921e-05
0.000295427
0.000141442
0.00010238
8.76782e-05
8.23885e-05
8.188e-05
8.41656e-05
8.81838e-05
9.32742e-05
9.89822e-05
0.000104973
0.000110994
0.000116856
0.000122416
0.000127577
0.000132279
0.000136493
0.00014022
0.000143485
0.000146327
0.000148802
0.000150968
0.000152886
0.000154616
0.000156209
0.000157708
0.000159147
0.000160545
0.000161912
0.000163247
0.000164539
0.000165767
0.000166906
0.000167921
0.000168778
0.000169437
0.000169846
0.000169979
0.000169802
0.000169273
0.000168359
0.00016703
0.000165262
0.000163037
0.000160342
0.000157173
0.000153533
0.000149431
0.000144887
0.000139925
0.000134579
0.00012889
0.000122903
0.000116669
0.000110243
0.000103682
9.70449e-05
9.03894e-05
8.37731e-05
7.72517e-05
7.08788e-05
6.47061e-05
5.8784e-05
5.31632e-05
4.78972e-05
4.30459e-05
3.86822e-05
3.4901e-05
3.18365e-05
2.96938e-05
2.88167e-05
2.98646e-05
3.4379e-05
4.73402e-05
9.88155e-05
0.000353433
0.000168715
0.00012108
0.00010226
9.44626e-05
9.22412e-05
9.32741e-05
9.63572e-05
0.000100747
0.000105935
0.000111551
0.000117314
0.00012301
0.000128479
0.000133608
0.000138326
0.000142595
0.000146411
0.000149793
0.000152781
0.000155425
0.000157785
0.000159922
0.000161894
0.000163752
0.000165538
0.000167284
0.000169008
0.000170717
0.000172406
0.000174063
0.000175662
0.000177173
0.00017856
0.00017978
0.000180792
0.000181547
0.000181985
0.000182086
0.000181808
0.000181105
0.000179941
0.000178287
0.000176118
0.000173419
0.000170181
0.000166404
0.000162098
0.000157282
0.000151983
0.000146239
0.000140095
0.000133604
0.000126824
0.00011982
0.000112659
0.000105409
9.81399e-05
9.0919e-05
8.38124e-05
7.68834e-05
7.01927e-05
6.37994e-05
5.77624e-05
5.21433e-05
4.70107e-05
4.24475e-05
3.85616e-05
3.55053e-05
3.35125e-05
3.29775e-05
3.46652e-05
4.03828e-05
5.60131e-05
0.000117201
0.000414376
0.000197404
0.000140843
0.000117816
0.00010753
0.000103669
0.000103553
0.000105816
0.000109625
0.000114416
0.000119775
0.00012539
0.000131023
0.000136494
0.000141676
0.000146485
0.000150877
0.000154843
0.000158399
0.000161584
0.00016445
0.000167058
0.000169468
0.000171741
0.000173928
0.00017607
0.000178197
0.000180327
0.000182464
0.000184599
0.000186714
0.000188782
0.000190765
0.000192622
0.000194305
0.000195764
0.000196946
0.000197798
0.000198239
0.000198274
0.000197836
0.000196879
0.000195365
0.000193264
0.000190555
0.000187224
0.000183269
0.000178699
0.000173532
0.000167798
0.00016154
0.000154809
0.000147666
0.000140178
0.000132422
0.000124476
0.000116422
0.000108341
0.000100316
9.24241e-05
8.47413e-05
7.73397e-05
7.0289e-05
6.36581e-05
5.7518e-05
5.19471e-05
4.70391e-05
4.2915e-05
3.97461e-05
3.77969e-05
3.75129e-05
3.97708e-05
4.66547e-05
6.49831e-05
0.000136157
0.000478099
0.000227421
0.000161576
0.000134233
0.000121449
0.000115986
0.000114801
0.000116334
0.000119661
0.000124153
0.000129353
0.000134914
0.00014057
0.000146123
0.000151428
0.000156393
0.000160966
0.000165134
0.000168914
0.000172345
0.000175482
0.000178387
0.000181125
0.000183757
0.000186336
0.000188903
0.000191487
0.000194103
0.000196752
0.000199423
0.00020209
0.000204721
0.000207273
0.000209696
0.000211936
0.000213934
0.000215629
0.000216961
0.000217854
0.000218242
0.000218124
0.000217417
0.000216075
0.000214061
0.000211345
0.00020791
0.00020375
0.000198872
0.000193294
0.00018705
0.000180185
0.000172758
0.000164838
0.000156504
0.000147844
0.000138951
0.00012992
0.00012085
0.000111837
0.000102974
9.43528e-05
8.60583e-05
7.81731e-05
7.07781e-05
6.39554e-05
5.77946e-05
5.2401e-05
4.79099e-05
4.45122e-05
4.25051e-05
4.23862e-05
4.51494e-05
5.31659e-05
7.4219e-05
0.000155625
0.000544459
0.000258688
0.000183208
0.000151424
0.000136116
0.000129074
0.000126877
0.000127753
0.00013068
0.00013496
0.000140085
0.000145672
0.000151428
0.000157131
0.000162623
0.0001678
0.000172605
0.000177023
0.000181072
0.000184794
0.000188248
0.000191499
0.000194617
0.000197666
0.0002007
0.000203761
0.000206876
0.000210057
0.000213303
0.000216595
0.000219904
0.000223189
0.000226401
0.000229481
0.000232366
0.000234989
0.000237278
0.000239164
0.000240575
0.000241403
0.000241633
0.000241224
0.00024009
0.000238186
0.000235477
0.000231938
0.00022756
0.000222347
0.000216318
0.000209507
0.000201964
0.000193755
0.000184957
0.000175661
0.000165967
0.000155983
0.000145823
0.000135599
0.000125428
0.00011542
0.000105683
9.63187e-05
8.74259e-05
7.90991e-05
7.14337e-05
6.45318e-05
5.8512e-05
5.35252e-05
4.97829e-05
4.76175e-05
4.75796e-05
5.07852e-05
5.99017e-05
8.37038e-05
0.000175572
0.000613317
0.000291135
0.000205675
0.000169323
0.000151452
0.000142842
0.000139678
0.000139957
0.000142556
0.000146699
0.000151825
0.000157512
0.000163435
0.00016935
0.000175084
0.000180523
0.000185606
0.000190318
0.000194678
0.000198733
0.000202547
0.000206193
0.000209744
0.000213266
0.000216817
0.000220438
0.000224155
0.000227978
0.000231899
0.000235895
0.000239929
0.000243953
0.000247908
0.000251728
0.000255339
0.000258663
0.00026162
0.000264129
0.000266109
0.000267463
0.000268076
0.000268006
0.000267118
0.000265354
0.000262673
0.000259043
0.000254449
0.000248893
0.000242392
0.000234981
0.000226714
0.00021766
0.000207907
0.000197556
0.00018672
0.000175524
0.000164096
0.000152571
0.000141082
0.000129763
0.000118739
0.000108133
9.80601e-05
8.8633e-05
7.99626e-05
7.21658e-05
6.53762e-05
5.9762e-05
5.55569e-05
5.31308e-05
5.30889e-05
5.66739e-05
6.68583e-05
9.3434e-05
0.000195991
0.00068453
0.000324689
0.000228919
0.000187872
0.000167395
0.000157224
0.000153121
0.000152861
0.000155194
0.000159268
0.000164464
0.000170315
0.000176466
0.00018265
0.000188676
0.000194422
0.000199825
0.00020487
0.00020958
0.000214008
0.000218225
0.00022231
0.000226342
0.000230393
0.000234519
0.000238764
0.000243151
0.000247686
0.000252355
0.000257129
0.000261963
0.0002668
0.000271573
0.000276203
0.000280608
0.000284699
0.000288386
0.000291577
0.000294179
0.0002961
0.000297185
0.00029746
0.000296862
0.000295277
0.000292655
0.000288959
0.000284169
0.000278282
0.000271311
0.000263293
0.00025428
0.000244349
0.000233591
0.000222119
0.000210059
0.000197549
0.000184737
0.000171778
0.000158826
0.000146037
0.000133561
0.000121542
0.000110117
9.94187e-05
8.95766e-05
8.07258e-05
7.30174e-05
6.66386e-05
6.18478e-05
5.90546e-05
5.89211e-05
6.28208e-05
7.40405e-05
0.000103416
0.000216898
0.000757945
0.000359277
0.000252884
0.000207018
0.000183893
0.00017216
0.000167144
0.000166395
0.000168519
0.000172585
0.000177912
0.000183988
0.000190423
0.000196925
0.000203289
0.000209384
0.000215144
0.000220556
0.000225651
0.000230489
0.000235148
0.000239715
0.000244275
0.000248903
0.00025366
0.000258586
0.000263703
0.000269012
0.000274493
0.000280108
0.000285806
0.000291517
0.000297165
0.000302663
0.000307916
0.000312826
0.000317292
0.000321211
0.000324481
0.000327001
0.000328627
0.000329271
0.000329003
0.000327638
0.000325117
0.000321396
0.000316449
0.000310264
0.000302853
0.000294247
0.0002845
0.000273688
0.000261909
0.000249281
0.000235942
0.000222045
0.000207756
0.00019325
0.000178704
0.0001643
0.000150212
0.000136612
0.000123661
0.000111516
0.000100331
9.02597e-05
8.14757e-05
7.4188e-05
6.86817e-05
6.5409e-05
6.50921e-05
6.9239e-05
8.14607e-05
0.000113664
0.000238322
0.000833394
0.000394819
0.000277511
0.00022671
0.000200895
0.000187599
0.000181696
0.000180501
0.000182466
0.000186581
0.000192096
0.000198451
0.000205219
0.000212085
0.000218827
0.000225307
0.000231457
0.00023727
0.000242781
0.00024806
0.000253196
0.000258283
0.000263411
0.000268661
0.000274094
0.000279751
0.000285649
0.000291783
0.000298127
0.000304633
0.000311241
0.000317871
0.000324437
0.000330841
0.000336979
0.000342741
0.000348017
0.000352696
0.000356665
0.000359812
0.000362023
0.00036309
0.000363173
0.000362077
0.00035971
0.00035602
0.000350972
0.000344549
0.000336754
0.000327613
0.000317176
0.000305517
0.000292736
0.000278954
0.000264318
0.000248994
0.000233163
0.00021702
0.00020077
0.000184617
0.000168768
0.000153422
0.000138772
0.000125003
0.000112296
0.000100831
9.08059e-05
8.24557e-05
7.60957e-05
7.22235e-05
7.16257e-05
7.59483e-05
8.91377e-05
0.000124203
0.000260312
0.000910692
0.000431225
0.000302739
0.000246897
0.000218355
0.000203496
0.000196728
0.000195126
0.00019698
0.000201194
0.000206949
0.000213632
0.000220779
0.000228048
0.000235203
0.000242099
0.000248668
0.000254906
0.00026086
0.000266609
0.00027225
0.000277887
0.000283619
0.000289527
0.000295674
0.0003021
0.000308817
0.000315813
0.000323053
0.000330483
0.000338029
0.000345603
0.000353108
0.000360436
0.000367473
0.000374101
0.000380201
0.000385654
0.000390339
0.000394138
0.000396938
0.000398516
0.00039895
0.000398181
0.000396031
0.000392442
0.000387371
0.000380792
0.000372699
0.000363109
0.000352065
0.000339633
0.000325909
0.000311018
0.000295107
0.000278352
0.00026095
0.000243114
0.000225072
0.000207059
0.000189311
0.000172064
0.000155544
0.00013997
0.000125557
0.000112516
0.000101074
9.14982e-05
8.41363e-05
7.95355e-05
7.85525e-05
8.29745e-05
9.70957e-05
0.00013506
0.000282927
0.000989631
0.0004684
0.000328501
0.000267527
0.000236224
0.000219804
0.000212194
0.000210221
0.000212008
0.000216368
0.000222408
0.000229462
0.000237026
0.000244733
0.000252331
0.000259668
0.000266678
0.000273364
0.000279781
0.00028602
0.000292188
0.0002984
0.000304758
0.00031135
0.000318237
0.000325456
0.000333014
0.000340892
0.000349046
0.00035741
0.0003659
0.000374421
0.000382862
0.000391108
0.000399037
0.000406522
0.000413438
0.000419661
0.000425064
0.000429524
0.000432922
0.000435061
0.000435873
0.000435484
0.000433619
0.000430215
0.000425217
0.000418589
0.000410313
0.000400394
0.000388861
0.000375771
0.000361212
0.000345299
0.000328183
0.00031004
0.000291079
0.00027153
0.000251643
0.000231683
0.000211921
0.000192629
0.000174074
0.000156516
0.000140208
0.000125401
0.000112359
0.000101382
9.28586e-05
8.73893e-05
8.59089e-05
9.03482e-05
0.000105363
0.000146272
0.000306237
0.00106998
0.000506237
0.000354726
0.000288542
0.000254455
0.000236478
0.00022805
0.000225738
0.000227497
0.000232044
0.000238409
0.000245871
0.000253885
0.000262058
0.000270122
0.00027792
0.000285387
0.000292535
0.000299428
0.00030617
0.00031288
0.00031968
0.000326679
0.000333966
0.000341605
0.000349626
0.00035803
0.000366789
0.00037585
0.000385137
0.000394556
0.000403999
0.00041335
0.000422484
0.000431272
0.000439583
0.000447286
0.000454254
0.000460357
0.000465469
0.000469468
0.000472201
0.000473441
0.000473465
0.00047196
0.000468833
0.00046402
0.00045747
0.000449152
0.000439055
0.000427191
0.000413601
0.000398357
0.000381563
0.00036336
0.000343925
0.000323467
0.000302232
0.000280488
0.00025853
0.000236664
0.000215203
0.00019446
0.000174743
0.000156352
0.000139583
0.000124744
0.00011218
0.000102325
9.58358e-05
9.37366e-05
9.8104e-05
0.000113973
0.000157875
0.00033032
0.0011515
0.00054462
0.000381335
0.000309884
0.000272997
0.000253472
0.000244248
0.000241629
0.000243394
0.000248162
0.000254887
0.000262787
0.000271277
0.000279937
0.000288483
0.000296754
0.000304688
0.000312304
0.00031968
0.00032693
0.000334184
0.000341574
0.000349214
0.000357197
0.000365581
0.000374394
0.000383628
0.000393248
0.000403188
0.000413362
0.000423666
0.000433985
0.000444193
0.000454159
0.000463749
0.00047283
0.00048127
0.00048894
0.000495709
0.000501451
0.000506043
0.000509363
0.000511138
0.000511559
0.000510499
0.000507749
0.000503241
0.000496912
0.000488714
0.000478616
0.000466612
0.000452718
0.000436985
0.000419499
0.000400383
0.000379804
0.000357969
0.000335128
0.000311567
0.000287603
0.00026358
0.000239855
0.000216791
0.000194751
0.000174089
0.00015516
0.000138323
0.000123975
0.000112604
0.000104931
0.000102082
0.00010628
0.000122959
0.000169911
0.000355255
0.0012339
0.00058342
0.000408245
0.000331488
0.000291796
0.000270736
0.00026074
0.00025784
0.00025964
0.00026466
0.000271771
0.000280132
0.000289117
0.000298277
0.000307315
0.000316063
0.000324465
0.000332549
0.000340403
0.000348154
0.000355946
0.000363915
0.000372184
0.000380843
0.00038995
0.000399526
0.000409555
0.00041999
0.000430756
0.000441758
0.000452882
0.000464003
0.000474991
0.000485709
0.000496024
0.000505799
0.000514905
0.000523215
0.000530601
0.000536939
0.000542109
0.000545998
0.000548366
0.000549211
0.000548665
0.00054639
0.00054231
0.000536352
0.000528448
0.000518547
0.000506616
0.000492647
0.000476662
0.000458718
0.000438916
0.0004174
0.000394367
0.000370062
0.00034478
0.000318858
0.000292673
0.000266627
0.000241138
0.000216628
0.00019352
0.000172232
0.00015319
0.000136851
0.00012377
0.000114736
0.000110994
0.000114917
0.000132359
0.000182421
0.000381125
0.00131689
0.000622501
0.000435364
0.000353287
0.000310797
0.000288219
0.000277473
0.000274317
0.000276177
0.00028147
0.000288986
0.000297824
0.000307314
0.000316979
0.000326509
0.000335732
0.000344595
0.000353135
0.000361454
0.00036969
0.000377998
0.000386524
0.000395392
0.000404693
0.000414482
0.000424771
0.000435536
0.000446721
0.00045824
0.000469986
0.000481839
0.000493668
0.000505337
0.000516709
0.00052765
0.000538026
0.000547711
0.000556586
0.000564526
0.000571412
0.00057713
0.000581571
0.000584567
0.000585892
0.000585894
0.000584184
0.000580655
0.000575215
0.000567782
0.000558281
0.000546652
0.000532857
0.000516885
0.000498757
0.000478541
0.000456352
0.000432361
0.000406799
0.000379959
0.00035219
0.000323896
0.000295522
0.000267542
0.000240447
0.000214733
0.000190896
0.000169439
0.000150898
0.0001359
0.000125314
0.000120526
0.000124059
0.000142208
0.000195447
0.000408011
0.00140015
0.000661715
0.000462597
0.000375207
0.000329938
0.000305866
0.000294392
0.000291001
0.000292939
0.00029852
0.000306452
0.000315772
0.000325768
0.000335937
0.000345951
0.000355636
0.000364943
0.000373919
0.000382678
0.000391372
0.000400164
0.000409207
0.00041863
0.000428522
0.000438932
0.000449866
0.00046129
0.000473137
0.000485313
0.000497701
0.000510174
0.000522597
0.000534832
0.000546743
0.000558198
0.00056907
0.00057924
0.000588594
0.000597016
0.000604395
0.000610624
0.000615595
0.000619198
0.000621148
0.00062165
0.000620599
0.000617729
0.000612947
0.000606152
0.000597249
0.000586151
0.000572786
0.000557107
0.000539095
0.000518774
0.00049622
0.000471568
0.000445021
0.000416854
0.00038742
0.000357138
0.00032649
0.000296006
0.000266249
0.000237798
0.000211237
0.000187163
0.000166201
0.000149072
0.000136732
0.000130735
0.000133748
0.000152547
0.00020903
0.000435991
0.00148333
0.000700905
0.00048984
0.000397172
0.000349156
0.000323617
0.000311439
0.000307828
0.000309857
0.000315733
0.000324082
0.000333882
0.000344376
0.000355035
0.000365516
0.000375641
0.000385367
0.000394749
0.000403913
0.000413024
0.000422254
0.000431762
0.00044168
0.000452094
0.000463049
0.000474541
0.000486529
0.000498934
0.000511653
0.000524564
0.000537534
0.000550425
0.0005631
0.000575427
0.000587279
0.000598537
0.000609092
0.000618838
0.000627669
0.000635485
0.000642186
0.000647673
0.000651848
0.000654494
0.000655527
0.000655183
0.000653063
0.000649055
0.000643045
0.000634919
0.000624563
0.000611874
0.000596764
0.000579173
0.000559076
0.000536499
0.000511529
0.000484326
0.000455134
0.000424289
0.000392215
0.000359419
0.000326483
0.00029404
0.000262758
0.000233325
0.000206442
0.000182845
0.000163362
0.00014906
0.000141675
0.000144031
0.00016341
0.000223208
0.000465138
0.00156608
0.000739907
0.000516985
0.0004191
0.000368383
0.000341411
0.000328551
0.000324733
0.000326857
0.000333026
0.000341785
0.000352051
0.000363027
0.000374153
0.000385074
0.000395609
0.000405718
0.000415465
0.000424989
0.000434464
0.000444074
0.000453982
0.00046432
0.000475174
0.00048658
0.00049853
0.00051097
0.000523815
0.000536953
0.000550257
0.000563591
0.000576818
0.000589804
0.000602423
0.000614556
0.000626094
0.000636938
0.000646995
0.00065617
0.000664371
0.000671508
0.000677488
0.000682213
0.000685574
0.000687273
0.000687586
0.000686291
0.000683151
0.000678045
0.000670842
0.000661407
0.000649607
0.00063532
0.00061844
0.000598892
0.000576645
0.000551727
0.000524242
0.000494385
0.000462456
0.000428863
0.000394126
0.000358864
0.000323776
0.000289624
0.000257205
0.000227345
0.000200906
0.000178847
0.000162366
0.000153405
0.000154952
0.000174836
0.000238019
0.000495519
0.00164803
0.00077855
0.000543922
0.000440908
0.00038755
0.000359182
0.000345663
0.000341646
0.000343862
0.000350313
0.000359464
0.000370173
0.000381602
0.000393164
0.00040449
0.000415394
0.00042584
0.000435902
0.00044573
0.000455508
0.000465426
0.000475656
0.000486328
0.000497525
0.000509279
0.000521573
0.000534345
0.000547502
0.000560928
0.000574491
0.000588057
0.000601489
0.000614661
0.000627455
0.000639763
0.000651486
0.000662539
0.00067284
0.000682305
0.000690853
0.000698402
0.000704866
0.000710154
0.000714169
0.000716678
0.000717628
0.000717198
0.00071499
0.00071087
0.000704695
0.000696314
0.000685573
0.000672315
0.000656395
0.000637691
0.000616111
0.000591619
0.000564248
0.000534129
0.000501503
0.000466741
0.00043035
0.000392969
0.000355355
0.000318358
0.000282892
0.00024992
0.000220452
0.000195597
0.000176715
0.000165979
0.000166555
0.000186859
0.000253495
0.000527193
0.00172879
0.000816657
0.000570534
0.000462509
0.000406582
0.000376864
0.000362705
0.000358492
0.00036079
0.000367504
0.000377019
0.000388138
0.000399982
0.000411938
0.000423623
0.000434847
0.000445576
0.000455895
0.00046596
0.000475968
0.000486117
0.00049658
0.000507489
0.000518924
0.000530912
0.000543428
0.000556405
0.000569745
0.000583326
0.000597018
0.000610686
0.000624203
0.000637449
0.000650317
0.000662711
0.000674546
0.000685747
0.000696247
0.000705972
0.00071485
0.000722806
0.000729758
0.000735617
0.000740282
0.000743636
0.000745372
0.000745725
0.000744498
0.000741412
0.000736326
0.00072908
0.000719503
0.000707417
0.000692646
0.000675022
0.000654401
0.000630677
0.000603811
0.000573847
0.000540951
0.00050543
0.000467751
0.000428548
0.000388613
0.000348873
0.000310361
0.000274188
0.000241531
0.000213677
0.000192172
0.000179441
0.000178882
0.00019951
0.000269665
0.000560211
0.00180797
0.00085405
0.000596703
0.000483812
0.000425406
0.000394387
0.000379608
0.000375197
0.00037756
0.000384505
0.000394347
0.000405833
0.000418044
0.000430343
0.000442333
0.000453819
0.000464769
0.000475276
0.000485506
0.000495664
0.000505955
0.000516556
0.000527598
0.00053916
0.000551264
0.000563879
0.000576934
0.000590327
0.000603937
0.000617635
0.000631291
0.000644787
0.000658014
0.000670877
0.000683293
0.000695192
0.000706511
0.000717194
0.000727177
0.000736396
0.00074478
0.00075225
0.000758716
0.000764078
0.000768224
0.000770925
0.000772028
0.000771785
0.000769754
0.000765778
0.000759693
0.000751322
0.000740476
0.000726957
0.000710568
0.000691119
0.000668445
0.000642426
0.000613019
0.000580293
0.000544463
0.000505925
0.000465276
0.000423312
0.000381019
0.00033954
0.000300136
0.00026417
0.000233136
0.000208794
0.000193838
0.000191974
0.000212822
0.000286555
0.000594613
0.00188519
0.000890549
0.00062231
0.000504728
0.000443943
0.000411679
0.000396299
0.000391684
0.000394087
0.000401226
0.000411346
0.000423144
0.000435666
0.000448249
0.00046048
0.000472162
0.000483265
0.000493886
0.000504201
0.000514423
0.000524762
0.000535401
0.000546469
0.000558044
0.000570144
0.000582737
0.000595748
0.000609074
0.000622597
0.000636193
0.00064974
0.000663131
0.00067627
0.000689075
0.00070148
0.000713427
0.000724865
0.000735747
0.000746021
0.000755625
0.000764491
0.000772538
0.000779672
0.000785784
0.000790754
0.000794442
0.000796532
0.000797128
0.000796169
0.000793296
0.000788355
0.000781171
0.000771552
0.000759298
0.000744198
0.000726033
0.00070459
0.000679681
0.000651173
0.000619025
0.000583343
0.000544416
0.000502763
0.000459149
0.000414585
0.000370302
0.00032771
0.00028837
0.000254002
0.000226623
0.000209219
0.000205868
0.00022682
0.000304187
0.00063043
0.00196006
0.000925977
0.000647239
0.000525165
0.000462118
0.000428668
0.000412706
0.000407877
0.000410287
0.000417573
0.000427914
0.000439963
0.000452728
0.000465526
0.000477929
0.000489735
0.000500916
0.000511573
0.000521889
0.000532085
0.000542377
0.000552951
0.000563937
0.000575413
0.000587395
0.000599849
0.000612702
0.000625854
0.00063919
0.000652594
0.000665957
0.000679184
0.000692192
0.000704917
0.000717307
0.000729317
0.00074091
0.000752044
0.000762676
0.000772746
0.000782184
0.000790904
0.000798801
0.000805759
0.000811643
0.000816307
0.000819547
0.000821028
0.000821096
0.000819313
0.000815473
0.000809409
0.00080094
0.000789875
0.000776008
0.000759117
0.000738963
0.000715307
0.000687936
0.000656705
0.00062159
0.000582746
0.000540575
0.00049576
0.000449294
0.000402463
0.00035681
0.000314093
0.000276286
0.000245688
0.000225621
0.000220598
0.000241529
0.000322574
0.000667682
0.0020322
0.00096016
0.000671371
0.000545034
0.000479853
0.000445282
0.000428757
0.0004237
0.000426079
0.000433455
0.000443953
0.00045618
0.000469115
0.000482052
0.000494552
0.000506405
0.000517585
0.000528195
0.000538426
0.000548506
0.000558656
0.000569064
0.000579863
0.000591132
0.000602889
0.0006151
0.000627695
0.000640579
0.000653647
0.000666792
0.000679918
0.000692946
0.00070581
0.000718461
0.000730861
0.000742982
0.000754794
0.000766266
0.000777355
0.000788006
0.000798143
0.00080767
0.000816471
0.000824412
0.000831339
0.000837084
0.000841473
0.00084415
0.000845085
0.000844401
0.000841626
0.000836597
0.000829152
0.000819127
0.00080634
0.000790589
0.000771639
0.000749232
0.000723099
0.000693002
0.000658787
0.000620457
0.000578255
0.000532735
0.000484813
0.000435782
0.000387284
0.000341267
0.000299969
0.000266008
0.000243073
0.000236191
0.000256967
0.000341727
0.000706374
0.00210125
0.000992931
0.000694594
0.000564246
0.000497072
0.000461451
0.000444381
0.000439078
0.000441382
0.000448788
0.000459368
0.000471695
0.000484719
0.000497714
0.00051023
0.00052205
0.000533146
0.000543627
0.000553688
0.000563562
0.000573477
0.000583623
0.000594138
0.000605102
0.000616535
0.000628411
0.000640663
0.000653206
0.000665943
0.000678782
0.000691644
0.000704463
0.000717193
0.000729799
0.000742262
0.000754564
0.000766687
0.000778605
0.00079028
0.000801652
0.000812643
0.000823147
0.000833031
0.000842139
0.000850294
0.000857298
0.000862935
0.000866985
0.000868962
0.000869254
0.000867517
0.000863445
0.000856888
0.00084771
0.000835774
0.00082092
0.00080295
0.000781625
0.000756659
0.000727751
0.000694634
0.000657154
0.000615365
0.000569643
0.000520764
0.000469962
0.000418929
0.000369776
0.000325004
0.000287576
0.000261589
0.000252668
0.000273149
0.00036165
0.0007465
0.00216689
0.00102413
0.000716802
0.000582716
0.000513701
0.000477105
0.000459509
0.000453941
0.000456122
0.000463489
0.000474074
0.000486415
0.000499441
0.000512409
0.000524856
0.00053656
0.000547492
0.000557762
0.00056757
0.000577154
0.000586746
0.000596541
0.000606682
0.000617253
0.00062828
0.000639743
0.000651584
0.000663728
0.000676093
0.000688601
0.00070119
0.000713812
0.000726436
0.000739049
0.000751642
0.000764211
0.00077675
0.000789238
0.000801639
0.000813891
0.000825908
0.000837575
0.000848742
0.00085923
0.000868831
0.000877312
0.000884427
0.000889924
0.000893337
0.000894582
0.000893918
0.000890756
0.000884966
0.000876442
0.000865089
0.000850811
0.000833479
0.000812913
0.00078886
0.000761005
0.000729003
0.000692558
0.000651528
0.000606066
0.000556745
0.000504664
0.000451494
0.000399458
0.000351308
0.000310368