/*--------------------------------*- C++ -*----------------------------------*\
  =========                 |
  \\      /  F ield         | OpenFOAM: The Open Source CFD Toolbox
   \\    /   O peration     | Website:  https://openfoam.org
    \\  /    A nd           | Version:  12
     \\/     M anipulation  |
\*---------------------------------------------------------------------------*/
FoamFile
{
    format      ascii;
    class       volScalarField;
    location    "1";
    object      nut;
}
// * * * * * * * * * * * * * * * * * * * * * * * * * * * * * * * * * * * * * //

dimensions      [0 2 -1 0 0 0 0];

internalField   nonuniform List<scalar> 
5625
(
9.13e-14
4.55327e-13
9.90654e-13
1.62289e-12
2.31479e-12
3.04111e-12
3.78184e-12
4.52012e-12
5.24153e-12
5.93386e-12
6.58704e-12
7.19322e-12
7.74673e-12
8.24409e-12
8.68396e-12
9.06698e-12
9.39554e-12
9.67352e-12
9.90596e-12
1.00987e-11
1.02579e-11
1.03901e-11
1.05012e-11
1.05968e-11
1.06818e-11
1.07601e-11
1.08348e-11
1.09079e-11
1.09804e-11
1.10526e-11
1.11237e-11
1.11924e-11
1.12569e-11
1.13147e-11
1.13632e-11
1.13996e-11
1.14203e-11
1.14237e-11
1.14064e-11
1.13658e-11
1.12992e-11
1.12048e-11
1.10808e-11
1.09259e-11
1.07394e-11
1.05209e-11
1.02708e-11
9.98976e-12
9.67895e-12
9.34012e-12
8.97545e-12
8.58749e-12
8.17915e-12
7.75362e-12
7.31427e-12
6.86458e-12
6.40809e-12
5.94827e-12
5.48846e-12
5.03181e-12
4.58124e-12
4.13937e-12
3.70849e-12
3.2906e-12
2.88738e-12
2.50025e-12
2.13047e-12
1.77911e-12
1.44732e-12
1.13645e-12
8.48353e-13
5.85855e-13
3.53748e-13
1.6148e-13
3.2313e-14
4.55987e-13
4.14854e-11
1.39794e-10
2.55863e-10
3.79634e-10
5.0761e-10
6.36997e-10
7.65249e-10
8.90079e-10
1.00951e-09
1.12188e-09
1.2259e-09
1.32063e-09
1.40553e-09
1.48039e-09
1.54537e-09
1.60091e-09
1.64772e-09
1.6867e-09
1.71888e-09
1.74536e-09
1.76727e-09
1.78567e-09
1.80153e-09
1.81568e-09
1.82883e-09
1.84148e-09
1.85397e-09
1.8665e-09
1.87907e-09
1.89156e-09
1.90375e-09
1.91528e-09
1.92575e-09
1.93469e-09
1.94161e-09
1.94582e-09
1.94707e-09
1.94471e-09
1.93832e-09
1.92748e-09
1.91184e-09
1.89109e-09
1.86501e-09
1.83347e-09
1.7964e-09
1.75385e-09
1.70592e-09
1.65284e-09
1.5949e-09
1.53247e-09
1.466e-09
1.396e-09
1.32302e-09
1.24765e-09
1.1705e-09
1.09218e-09
1.01331e-09
9.34453e-10
8.56169e-10
7.78956e-10
7.03263e-10
6.29482e-10
5.57944e-10
4.88927e-10
4.22652e-10
3.59292e-10
2.99017e-10
2.41969e-10
1.88293e-10
1.38154e-10
9.17754e-11
4.9646e-11
1.46454e-11
1.61419e-13
9.97924e-13
1.40251e-10
7.03924e-10
1.56766e-09
2.54824e-09
3.5672e-09
4.59036e-09
5.59641e-09
6.56859e-09
7.49285e-09
8.35758e-09
9.1538e-09
9.87523e-09
1.05184e-08
1.10825e-08
1.15694e-08
1.19832e-08
1.23298e-08
1.26168e-08
1.28525e-08
1.30458e-08
1.32055e-08
1.334e-08
1.34568e-08
1.35625e-08
1.36623e-08
1.37599e-08
1.3858e-08
1.39578e-08
1.40592e-08
1.41611e-08
1.42615e-08
1.43578e-08
1.44466e-08
1.45241e-08
1.45869e-08
1.46284e-08
1.46482e-08
1.46409e-08
1.46026e-08
1.45302e-08
1.44206e-08
1.42715e-08
1.40811e-08
1.38483e-08
1.35724e-08
1.32536e-08
1.2893e-08
1.2492e-08
1.2053e-08
1.15788e-08
1.10731e-08
1.05397e-08
9.98313e-09
9.40795e-09
8.81902e-09
8.22116e-09
7.61915e-09
7.01754e-09
6.42058e-09
5.83213e-09
5.25559e-09
4.69387e-09
4.14934e-09
3.62389e-09
3.11887e-09
2.63522e-09
2.17355e-09
1.73424e-09
1.31769e-09
9.25238e-10
5.62403e-10
2.50566e-10
4.9623e-11
3.53023e-13
1.65139e-12
2.58812e-10
1.57575e-09
4.1231e-09
7.4263e-09
1.10549e-08
1.47653e-08
1.84239e-08
2.19484e-08
2.52814e-08
2.83807e-08
3.12158e-08
3.37672e-08
3.60258e-08
3.79922e-08
3.96761e-08
4.10953e-08
4.2274e-08
4.32411e-08
4.40287e-08
4.46699e-08
4.51975e-08
4.56421e-08
4.60309e-08
4.63871e-08
4.67292e-08
4.70704e-08
4.74193e-08
4.77795e-08
4.81504e-08
4.85275e-08
4.89034e-08
4.92677e-08
4.96083e-08
4.99125e-08
5.01666e-08
5.03443e-08
5.04496e-08
5.04602e-08
5.03623e-08
5.01437e-08
4.97938e-08
4.93037e-08
4.86668e-08
4.78784e-08
4.69365e-08
4.58415e-08
4.45965e-08
4.32071e-08
4.16814e-08
4.00299e-08
3.82651e-08
3.64015e-08
3.44549e-08
3.24421e-08
3.03804e-08
2.82874e-08
2.618e-08
2.40745e-08
2.1986e-08
1.99279e-08
1.79119e-08
1.59477e-08
1.40428e-08
1.22029e-08
1.04314e-08
8.73037e-09
7.10094e-09
5.54491e-09
4.06883e-09
2.69431e-09
1.48157e-09
5.6196e-10
9.15309e-11
5.82807e-13
2.3897e-12
3.89192e-10
2.5884e-09
7.48846e-09
1.4648e-08
2.31287e-08
3.21551e-08
4.12218e-08
5.00132e-08
5.8328e-08
6.60345e-08
7.30477e-08
7.93187e-08
8.48292e-08
8.95876e-08
9.36257e-08
9.69951e-08
9.97631e-08
1.02008e-07
1.03814e-07
1.05267e-07
1.06451e-07
1.07444e-07
1.08314e-07
1.09118e-07
1.09901e-07
1.10695e-07
1.11519e-07
1.12381e-07
1.13279e-07
1.14201e-07
1.15127e-07
1.1603e-07
1.16881e-07
1.1765e-07
1.18301e-07
1.18767e-07
1.19061e-07
1.1913e-07
1.18939e-07
1.18456e-07
1.17657e-07
1.16519e-07
1.15028e-07
1.1317e-07
1.10943e-07
1.08345e-07
1.05386e-07
1.02078e-07
9.84418e-08
9.45021e-08
9.02898e-08
8.58398e-08
8.11902e-08
7.6382e-08
7.14568e-08
6.64568e-08
6.14228e-08
5.63936e-08
5.14046e-08
4.64875e-08
4.16691e-08
3.69713e-08
3.24106e-08
2.79987e-08
2.37427e-08
1.9648e-08
1.57212e-08
1.198e-08
8.47117e-09
5.30355e-09
2.68928e-09
9.21838e-10
1.37209e-10
8.3996e-13
3.19908e-12
5.30018e-10
3.68337e-09
1.13048e-08
2.34258e-08
3.87922e-08
5.5911e-08
7.35764e-08
9.09525e-08
1.07492e-07
1.22835e-07
1.36764e-07
1.4916e-07
1.59983e-07
1.69256e-07
1.77052e-07
1.83488e-07
1.8871e-07
1.92886e-07
1.96193e-07
1.98811e-07
2.00911e-07
2.02649e-07
2.04164e-07
2.05566e-07
2.06945e-07
2.08362e-07
2.09852e-07
2.11429e-07
2.13086e-07
2.14796e-07
2.16519e-07
2.18206e-07
2.19795e-07
2.21224e-07
2.22437e-07
2.23289e-07
2.23809e-07
2.23906e-07
2.23502e-07
2.22545e-07
2.20985e-07
2.18784e-07
2.15913e-07
2.1235e-07
2.08089e-07
2.03133e-07
1.97497e-07
1.91208e-07
1.84304e-07
1.76833e-07
1.68854e-07
1.60432e-07
1.51639e-07
1.42551e-07
1.33247e-07
1.23803e-07
1.14296e-07
1.04797e-07
9.53711e-08
8.6075e-08
7.69575e-08
6.80574e-08
5.9404e-08
5.10185e-08
4.2917e-08
3.51175e-08
2.76525e-08
2.05943e-08
1.40947e-08
8.43684e-09
4.043e-09
1.30586e-09
1.85872e-10
1.1182e-12
4.07117e-12
6.80589e-10
4.84521e-09
1.54086e-08
3.31871e-08
5.69351e-08
8.44957e-08
1.13764e-07
1.43073e-07
1.71234e-07
1.97462e-07
2.21274e-07
2.42405e-07
2.60762e-07
2.76382e-07
2.89402e-07
3.00035e-07
3.0855e-07
3.1525e-07
3.20458e-07
3.24491e-07
3.27652e-07
3.30213e-07
3.32411e-07
3.34437e-07
3.36439e-07
3.38518e-07
3.40731e-07
3.43094e-07
3.45593e-07
3.4818e-07
3.50788e-07
3.53329e-07
3.55704e-07
3.57804e-07
3.59534e-07
3.60692e-07
3.61285e-07
3.61195e-07
3.60289e-07
3.58483e-07
3.55704e-07
3.51894e-07
3.47009e-07
3.41023e-07
3.33929e-07
3.25735e-07
3.1647e-07
3.06179e-07
2.94925e-07
2.82788e-07
2.69858e-07
2.56241e-07
2.42049e-07
2.274e-07
2.12417e-07
1.97218e-07
1.8192e-07
1.66633e-07
1.51455e-07
1.36475e-07
1.21765e-07
1.07385e-07
9.33806e-08
7.97887e-08
6.66443e-08
5.39968e-08
4.19373e-08
3.06441e-08
2.04423e-08
1.18443e-08
5.46891e-09
1.70555e-09
2.37014e-10
1.41326e-12
5.0004e-12
8.40354e-10
6.06958e-09
1.97385e-08
4.36321e-08
7.67899e-08
1.16559e-07
1.59866e-07
2.04003e-07
2.4689e-07
2.87079e-07
3.23638e-07
3.56044e-07
3.84089e-07
4.07803e-07
4.27399e-07
4.43228e-07
4.55731e-07
4.65401e-07
4.72754e-07
4.78296e-07
4.82504e-07
4.85803e-07
4.88556e-07
4.91057e-07
4.93523e-07
4.96104e-07
4.98883e-07
5.0188e-07
5.05068e-07
5.08374e-07
5.11692e-07
5.14891e-07
5.17824e-07
5.20332e-07
5.22254e-07
5.23352e-07
5.23627e-07
5.22899e-07
5.20983e-07
5.17765e-07
5.1315e-07
5.07064e-07
4.99457e-07
4.903e-07
4.79591e-07
4.67351e-07
4.53628e-07
4.3849e-07
4.22032e-07
4.04365e-07
3.85619e-07
3.6594e-07
3.45483e-07
3.24411e-07
3.02886e-07
2.81073e-07
2.59128e-07
2.37198e-07
2.15414e-07
1.93895e-07
1.72737e-07
1.52022e-07
1.31816e-07
1.12176e-07
9.31703e-08
7.49007e-08
5.75508e-08
4.145e-08
2.71402e-08
1.53771e-08
6.93276e-09
2.11706e-09
2.90225e-10
1.72205e-12
5.98272e-12
1.00885e-09
7.35466e-09
2.42731e-08
5.46254e-08
9.79172e-08
1.51176e-07
2.10386e-07
2.71665e-07
3.31831e-07
3.88549e-07
4.40268e-07
4.86086e-07
5.25615e-07
5.58857e-07
5.86113e-07
6.07894e-07
6.24852e-07
6.3772e-07
6.47259e-07
6.5421e-07
6.59266e-07
6.63038e-07
6.66045e-07
6.68697e-07
6.71299e-07
6.74054e-07
6.77068e-07
6.80364e-07
6.83896e-07
6.87558e-07
6.91202e-07
6.94648e-07
6.97693e-07
7.00129e-07
7.01741e-07
7.02167e-07
7.01531e-07
6.99566e-07
6.9598e-07
6.90668e-07
6.83519e-07
6.74452e-07
6.63417e-07
6.50391e-07
6.35386e-07
6.18441e-07
5.99626e-07
5.7904e-07
5.56806e-07
5.33074e-07
5.08011e-07
4.81801e-07
4.54639e-07
4.26727e-07
3.9827e-07
3.69467e-07
3.40509e-07
3.11575e-07
2.82827e-07
2.54405e-07
2.2643e-07
1.99001e-07
1.72206e-07
1.46128e-07
1.20877e-07
9.66249e-08
7.36705e-08
5.2521e-08
3.39518e-08
1.89543e-08
8.41781e-09
2.53807e-09
3.4518e-10
2.04231e-12
7.01502e-12
1.18569e-09
8.69908e-09
2.90048e-08
6.61069e-08
1.20091e-07
1.87787e-07
2.6429e-07
3.44476e-07
4.23905e-07
4.99185e-07
5.67986e-07
6.28913e-07
6.81326e-07
7.25173e-07
7.60843e-07
7.89036e-07
8.10659e-07
8.26727e-07
8.38291e-07
8.46372e-07
8.51915e-07
8.55747e-07
8.58562e-07
8.60904e-07
8.6317e-07
8.6562e-07
8.68383e-07
8.71481e-07
8.74844e-07
8.7833e-07
8.81742e-07
8.84849e-07
8.87395e-07
8.89117e-07
8.89754e-07
8.88853e-07
8.86488e-07
8.82653e-07
8.76713e-07
8.68612e-07
8.5825e-07
8.4555e-07
8.30469e-07
8.13002e-07
7.93175e-07
7.71053e-07
7.46732e-07
7.20341e-07
6.92036e-07
6.62e-07
6.30434e-07
5.9756e-07
5.63605e-07
5.28807e-07
4.93401e-07
4.57618e-07
4.21676e-07
3.85778e-07
3.50108e-07
3.14825e-07
2.80065e-07
2.45945e-07
2.1257e-07
1.80052e-07
1.48544e-07
1.18296e-07
8.97327e-08
6.35447e-08
4.07393e-08
2.2533e-08
9.91519e-09
2.96697e-09
4.01638e-10
2.3724e-12
8.09467e-12
1.37049e-09
1.01014e-08
3.39296e-08
7.80486e-08
1.43199e-07
2.26066e-07
3.20917e-07
4.21332e-07
5.21511e-07
6.16866e-07
7.04165e-07
7.81419e-07
8.47679e-07
9.02815e-07
9.4731e-07
9.82078e-07
1.00832e-06
1.02736e-06
1.04061e-06
1.04938e-06
1.05492e-06
1.05828e-06
1.06035e-06
1.06183e-06
1.0632e-06
1.06479e-06
1.06673e-06
1.06905e-06
1.07165e-06
1.07435e-06
1.0769e-06
1.07902e-06
1.0804e-06
1.08072e-06
1.07969e-06
1.07676e-06
1.07204e-06
1.06549e-06
1.05668e-06
1.04517e-06
1.03102e-06
1.01415e-06
9.94548e-07
9.72223e-07
9.47226e-07
9.19646e-07
8.89608e-07
8.57271e-07
8.22821e-07
7.86472e-07
7.48456e-07
7.09023e-07
6.68432e-07
6.26946e-07
5.84826e-07
5.42326e-07
4.99684e-07
4.57122e-07
4.14837e-07
3.73001e-07
3.31762e-07
2.91247e-07
2.51575e-07
2.12885e-07
1.75371e-07
1.39358e-07
1.05391e-07
7.43385e-08
4.74267e-08
2.60903e-08
1.142e-08
3.40272e-09
4.59433e-10
2.71127e-12
9.21929e-12
1.56293e-09
1.156e-08
3.90439e-08
9.04363e-08
1.67174e-07
2.65823e-07
3.79845e-07
5.01485e-07
6.235e-07
7.40007e-07
8.46771e-07
9.41138e-07
1.02181e-06
1.08855e-06
1.14196e-06
1.1832e-06
1.21377e-06
1.23538e-06
1.24981e-06
1.25872e-06
1.26365e-06
1.26594e-06
1.26668e-06
1.26669e-06
1.26657e-06
1.2667e-06
1.26724e-06
1.26819e-06
1.26943e-06
1.27073e-06
1.27179e-06
1.27229e-06
1.27186e-06
1.27015e-06
1.26682e-06
1.26123e-06
1.25355e-06
1.24372e-06
1.23139e-06
1.21612e-06
1.19772e-06
1.1763e-06
1.15186e-06
1.12442e-06
1.09407e-06
1.06092e-06
1.02513e-06
9.86868e-07
9.46363e-07
9.0385e-07
8.59589e-07
8.13855e-07
7.66928e-07
7.19094e-07
6.70633e-07
6.21815e-07
5.72894e-07
5.24103e-07
4.75649e-07
4.27712e-07
3.80446e-07
3.33984e-07
2.88457e-07
2.44019e-07
2.00904e-07
1.59499e-07
1.20456e-07
8.48052e-08
5.39753e-08
2.96151e-08
1.29298e-08
3.84472e-09
5.18474e-10
3.0583e-12
1.03866e-11
1.76264e-09
1.30729e-08
4.43426e-08
1.03257e-07
1.9197e-07
3.06933e-07
4.40792e-07
5.84415e-07
7.29046e-07
8.6743e-07
9.94259e-07
1.10616e-06
1.20146e-06
1.27982e-06
1.34197e-06
1.38932e-06
1.42375e-06
1.44738e-06
1.46237e-06
1.47077e-06
1.47446e-06
1.47504e-06
1.47382e-06
1.47177e-06
1.46958e-06
1.46769e-06
1.46625e-06
1.46528e-06
1.4646e-06
1.46394e-06
1.46297e-06
1.46128e-06
1.45849e-06
1.45419e-06
1.44802e-06
1.43926e-06
1.42814e-06
1.41466e-06
1.39825e-06
1.37896e-06
1.35605e-06
1.32985e-06
1.30039e-06
1.26773e-06
1.23199e-06
1.19329e-06
1.15182e-06
1.10778e-06
1.06142e-06
1.013e-06
9.62786e-07
9.11088e-07
8.58199e-07
8.04422e-07
7.50051e-07
6.95368e-07
6.40638e-07
5.86102e-07
5.31974e-07
4.78439e-07
4.25651e-07
3.7375e-07
3.22869e-07
2.73178e-07
2.24933e-07
1.78574e-07
1.34841e-07
9.49016e-08
6.03689e-08
3.3103e-08
1.44438e-08
4.29282e-09
5.78723e-10
3.41333e-12
1.15941e-11
1.96924e-09
1.46375e-08
4.9819e-08
1.16493e-07
2.17544e-07
3.49302e-07
5.0354e-07
6.69726e-07
8.37522e-07
9.98235e-07
1.14543e-06
1.275e-06
1.38486e-06
1.4746e-06
1.54509e-06
1.59803e-06
1.63571e-06
1.66068e-06
1.67554e-06
1.68275e-06
1.68454e-06
1.68277e-06
1.67899e-06
1.67431e-06
1.66952e-06
1.66508e-06
1.66119e-06
1.6578e-06
1.65473e-06
1.65164e-06
1.64815e-06
1.64382e-06
1.63821e-06
1.6309e-06
1.62147e-06
1.60914e-06
1.59426e-06
1.57683e-06
1.55612e-06
1.53239e-06
1.50499e-06
1.47388e-06
1.43936e-06
1.4015e-06
1.36042e-06
1.3163e-06
1.26933e-06
1.21974e-06
1.16779e-06
1.11376e-06
1.05794e-06
1.00065e-06
9.42202e-07
8.82902e-07
8.23059e-07
7.62965e-07
7.02893e-07
6.4309e-07
5.83773e-07
5.25132e-07
4.67323e-07
4.10484e-07
3.54754e-07
3.00306e-07
2.47414e-07
1.96551e-07
1.48526e-07
1.04619e-07
6.66054e-08
3.65547e-08
1.59628e-08
4.74726e-09
6.40212e-10
3.77655e-12
1.28394e-11
2.18231e-09
1.62512e-08
5.54641e-08
1.30124e-07
2.43849e-07
3.92833e-07
5.67899e-07
7.57092e-07
9.48417e-07
1.1317e-06
1.29934e-06
1.44646e-06
1.57061e-06
1.6713e-06
1.74955e-06
1.80742e-06
1.84764e-06
1.87322e-06
1.88723e-06
1.89255e-06
1.89177e-06
1.88707e-06
1.88017e-06
1.87235e-06
1.86449e-06
1.85708e-06
1.85031e-06
1.84411e-06
1.83826e-06
1.83236e-06
1.826e-06
1.81867e-06
1.80991e-06
1.79926e-06
1.78629e-06
1.7701e-06
1.75126e-06
1.72968e-06
1.7046e-06
1.67618e-06
1.64434e-06
1.60834e-06
1.5688e-06
1.52583e-06
1.47958e-06
1.43023e-06
1.37799e-06
1.32312e-06
1.26589e-06
1.20659e-06
1.14552e-06
1.08302e-06
1.0194e-06
9.54986e-07
8.90089e-07
8.25009e-07
7.60026e-07
6.95392e-07
6.31331e-07
5.68034e-07
5.05659e-07
4.44345e-07
3.84231e-07
3.2549e-07
2.68404e-07
2.13467e-07
1.61533e-07
1.13969e-07
7.26922e-08
3.99738e-08
1.74884e-08
5.20864e-09
7.03031e-10
4.14844e-12
1.41196e-11
2.40137e-09
1.79105e-08
6.1267e-08
1.44124e-07
2.70832e-07
4.37414e-07
6.33685e-07
8.4621e-07
1.06128e-06
1.26719e-06
1.45517e-06
1.61957e-06
1.75756e-06
1.86861e-06
1.95394e-06
2.01601e-06
2.058e-06
2.08343e-06
2.09585e-06
2.09861e-06
2.09466e-06
2.08645e-06
2.07595e-06
2.06457e-06
2.05325e-06
2.04251e-06
2.03254e-06
2.02323e-06
2.01431e-06
2.00533e-06
1.99583e-06
1.98526e-06
1.97311e-06
1.95891e-06
1.94222e-06
1.92201e-06
1.89912e-06
1.8733e-06
1.84383e-06
1.81069e-06
1.77438e-06
1.73368e-06
1.68925e-06
1.64135e-06
1.59012e-06
1.53578e-06
1.47856e-06
1.41871e-06
1.35651e-06
1.29228e-06
1.22632e-06
1.15897e-06
1.09055e-06
1.02139e-06
9.51818e-07
8.82132e-07
8.12619e-07
7.43537e-07
6.75116e-07
6.07551e-07
5.41005e-07
4.75617e-07
4.11524e-07
3.489e-07
2.88026e-07
2.29403e-07
1.7391e-07
1.22978e-07
7.86424e-08
4.33666e-08
1.90235e-08
5.67788e-09
7.6731e-10
4.52975e-12
1.54315e-11
2.62591e-09
1.96115e-08
6.7214e-08
1.5846e-07
2.98425e-07
4.82925e-07
7.00699e-07
9.36778e-07
1.17568e-06
1.40415e-06
1.61222e-06
1.79348e-06
1.94474e-06
2.06547e-06
2.15715e-06
2.22262e-06
2.26558e-06
2.2901e-06
2.30024e-06
2.2998e-06
2.29211e-06
2.27994e-06
2.26542e-06
2.25012e-06
2.23504e-06
2.22072e-06
2.20731e-06
2.19468e-06
2.18249e-06
2.17026e-06
2.15744e-06
2.14348e-06
2.12781e-06
2.10995e-06
2.08944e-06
2.06514e-06
2.03822e-06
2.00818e-06
1.97434e-06
1.93668e-06
1.89574e-06
1.85071e-06
1.80155e-06
1.74892e-06
1.69298e-06
1.63392e-06
1.57199e-06
1.50747e-06
1.44063e-06
1.37179e-06
1.30127e-06
1.22941e-06
1.15653e-06
1.08296e-06
1.00904e-06
9.35078e-07
8.61357e-07
7.88148e-07
7.15686e-07
6.44174e-07
5.7378e-07
5.04648e-07
4.36916e-07
3.70753e-07
3.06436e-07
2.44463e-07
1.85721e-07
1.31681e-07
8.44732e-08
4.67408e-08
2.05715e-08
6.15608e-09
8.33214e-10
4.9215e-12
1.67717e-11
2.85532e-09
2.13496e-08
7.32892e-08
1.73093e-07
3.2655e-07
5.29225e-07
7.68723e-07
1.02848e-06
1.2912e-06
1.54204e-06
1.76983e-06
1.96743e-06
2.13133e-06
2.26101e-06
2.35823e-06
2.4263e-06
2.46946e-06
2.49234e-06
2.49954e-06
2.49533e-06
2.48343e-06
2.46688e-06
2.44802e-06
2.42854e-06
2.40948e-06
2.3914e-06
2.37441e-06
2.35834e-06
2.34277e-06
2.32718e-06
2.31098e-06
2.29355e-06
2.27432e-06
2.25277e-06
2.22845e-06
2.20006e-06
2.16921e-06
2.13502e-06
2.09694e-06
2.05494e-06
2.00946e-06
1.96035e-06
1.90672e-06
1.84962e-06
1.78922e-06
1.72573e-06
1.6594e-06
1.5905e-06
1.51933e-06
1.44619e-06
1.37141e-06
1.29533e-06
1.21828e-06
1.14059e-06
1.0626e-06
9.84626e-07
9.06959e-07
8.29878e-07
7.53627e-07
6.7842e-07
6.04432e-07
5.31816e-07
4.60711e-07
3.91286e-07
3.23808e-07
2.58766e-07
1.97039e-07
1.40118e-07
9.02044e-08
5.01052e-08
2.21361e-08
6.64455e-09
9.00933e-10
5.32483e-12
1.81364e-11
3.08894e-09
2.31197e-08
7.94741e-08
1.87976e-07
3.55115e-07
5.76157e-07
8.37517e-07
1.12098e-06
1.40739e-06
1.68031e-06
1.92739e-06
2.14075e-06
2.31658e-06
2.45444e-06
2.55641e-06
2.6263e-06
2.66892e-06
2.68949e-06
2.69317e-06
2.6847e-06
2.66817e-06
2.64693e-06
2.62349e-06
2.59965e-06
2.57649e-06
2.55454e-06
2.53391e-06
2.51434e-06
2.49537e-06
2.47641e-06
2.45681e-06
2.43594e-06
2.41318e-06
2.38799e-06
2.35989e-06
2.32752e-06
2.29293e-06
2.25475e-06
2.2126e-06
2.1665e-06
2.11665e-06
2.06364e-06
2.0059e-06
1.94462e-06
1.88004e-06
1.8124e-06
1.74195e-06
1.66896e-06
1.59372e-06
1.51655e-06
1.43778e-06
1.35773e-06
1.27675e-06
1.19517e-06
1.11333e-06
1.03155e-06
9.50134e-07
8.69373e-07
7.89521e-07
7.10803e-07
6.33408e-07
5.57498e-07
4.83219e-07
4.1074e-07
3.40322e-07
2.72433e-07
2.0794e-07
1.4833e-07
9.58567e-08
5.34692e-08
2.37216e-08
7.14467e-09
9.70678e-10
5.74103e-12
1.95212e-11
3.32603e-09
2.49161e-08
8.57478e-08
2.03058e-07
3.84015e-07
6.23543e-07
9.06817e-07
1.21392e-06
1.52382e-06
1.81845e-06
2.0843e-06
2.31278e-06
2.49983e-06
2.64512e-06
2.75107e-06
2.82204e-06
2.86343e-06
2.88108e-06
2.88073e-06
2.86758e-06
2.84612e-06
2.81995e-06
2.79178e-06
2.76347e-06
2.73615e-06
2.71033e-06
2.68604e-06
2.663e-06
2.64066e-06
2.61838e-06
2.59547e-06
2.57123e-06
2.54505e-06
2.51638e-06
2.48455e-06
2.44844e-06
2.41034e-06
2.36837e-06
2.32241e-06
2.27247e-06
2.21862e-06
2.16165e-06
2.10039e-06
2.03515e-06
1.96668e-06
1.89517e-06
1.82085e-06
1.74402e-06
1.66495e-06
1.58397e-06
1.50141e-06
1.41759e-06
1.33285e-06
1.24755e-06
1.16202e-06
1.07658e-06
9.91562e-07
9.07251e-07
8.23923e-07
7.41815e-07
6.61135e-07
5.82058e-07
5.0474e-07
4.29354e-07
3.56153e-07
2.85589e-07
2.185e-07
1.56359e-07
1.01451e-07
5.68422e-08
2.5332e-08
7.65789e-09
1.04267e-09
6.17147e-12
2.09214e-11
3.56577e-09
2.67324e-08
9.20868e-08
2.18278e-07
4.13133e-07
6.71189e-07
9.76336e-07
1.30692e-06
1.63999e-06
1.9559e-06
2.23996e-06
2.48291e-06
2.68048e-06
2.83245e-06
2.94167e-06
3.01303e-06
3.05258e-06
3.06681e-06
3.06199e-06
3.04384e-06
3.01722e-06
2.98597e-06
2.95298e-06
2.92018e-06
2.88871e-06
2.85906e-06
2.8312e-06
2.80476e-06
2.77916e-06
2.75368e-06
2.72757e-06
2.70013e-06
2.67071e-06
2.63875e-06
2.60338e-06
2.56387e-06
2.52246e-06
2.47701e-06
2.42753e-06
2.37404e-06
2.31661e-06
2.25585e-06
2.19141e-06
2.12255e-06
2.05045e-06
1.97531e-06
1.89736e-06
1.81689e-06
1.73418e-06
1.64955e-06
1.56334e-06
1.47587e-06
1.3875e-06
1.29858e-06
1.20944e-06
1.12043e-06
1.03188e-06
9.44089e-07
8.57348e-07
7.71915e-07
6.88014e-07
6.05837e-07
5.25557e-07
4.47352e-07
3.71473e-07
2.98352e-07
2.28796e-07
1.64248e-07
1.07009e-07
6.0233e-08
2.69713e-08
8.18566e-09
1.11713e-09
6.61755e-12
2.2332e-11
3.80728e-09
2.85615e-08
9.84655e-08
2.33573e-07
4.42341e-07
7.18883e-07
1.04577e-06
1.39957e-06
1.75545e-06
2.09214e-06
2.39381e-06
2.65058e-06
2.85796e-06
3.01592e-06
3.12774e-06
3.1989e-06
3.2361e-06
3.24646e-06
3.23686e-06
3.21348e-06
3.18154e-06
3.14515e-06
3.10733e-06
3.07008e-06
3.03454e-06
3.00115e-06
2.96984e-06
2.94016e-06
2.91145e-06
2.88294e-06
2.85385e-06
2.82342e-06
2.791e-06
2.756e-06
2.71739e-06
2.67495e-06
2.63046e-06
2.58188e-06
2.52925e-06
2.47258e-06
2.41194e-06
2.34765e-06
2.28028e-06
2.20818e-06
2.13272e-06
2.05417e-06
1.97278e-06
1.88882e-06
1.80259e-06
1.71441e-06
1.62461e-06
1.53355e-06
1.44158e-06
1.34906e-06
1.25633e-06
1.16376e-06
1.07169e-06
9.80422e-07
8.90276e-07
8.01524e-07
7.1441e-07
6.29149e-07
5.4593e-07
4.64944e-07
3.8644e-07
3.10833e-07
2.38898e-07
1.72037e-07
1.12548e-07
6.365e-08
2.86433e-08
8.72933e-09
1.19428e-09
7.08068e-12
2.37476e-11
4.04962e-09
3.0396e-08
1.04856e-07
2.48872e-07
4.715e-07
7.66396e-07
1.11478e-06
1.49146e-06
1.86968e-06
2.2266e-06
2.54528e-06
2.81521e-06
3.03176e-06
3.19509e-06
3.30893e-06
3.37937e-06
3.41379e-06
3.41995e-06
3.40532e-06
3.37656e-06
3.33925e-06
3.29772e-06
3.25512e-06
3.21352e-06
3.17404e-06
3.13708e-06
3.10249e-06
3.06976e-06
3.03816e-06
3.00687e-06
2.97506e-06
2.94194e-06
2.90683e-06
2.86914e-06
2.8277e-06
2.78275e-06
2.73556e-06
2.68427e-06
2.6289e-06
2.56947e-06
2.50603e-06
2.43869e-06
2.36825e-06
2.29359e-06
2.21496e-06
2.13318e-06
2.04848e-06
1.96112e-06
1.87141e-06
1.77969e-06
1.68629e-06
1.5916e-06
1.49597e-06
1.39978e-06
1.30341e-06
1.20721e-06
1.11155e-06
1.01675e-06
9.23149e-07
8.31029e-07
7.40661e-07
6.52282e-07
5.661e-07
4.82323e-07
4.01201e-07
3.23139e-07
2.48874e-07
1.79763e-07
1.18088e-07
6.71003e-08
3.03511e-08
9.29018e-09
1.27433e-09
7.56219e-12
2.51623e-11
4.29176e-09
3.22277e-08
1.11228e-07
2.64101e-07
5.00465e-07
8.13489e-07
1.18305e-06
1.58216e-06
1.98219e-06
2.35876e-06
2.69382e-06
2.97629e-06
3.2014e-06
3.36954e-06
3.48491e-06
3.55422e-06
3.58553e-06
3.58726e-06
3.56746e-06
3.53326e-06
3.49058e-06
3.44398e-06
3.39673e-06
3.35093e-06
3.30769e-06
3.26735e-06
3.22972e-06
3.19419e-06
3.15998e-06
3.12622e-06
3.09202e-06
3.05658e-06
3.01918e-06
2.97924e-06
2.93545e-06
2.88847e-06
2.83905e-06
2.78553e-06
2.72791e-06
2.66617e-06
2.60034e-06
2.53048e-06
2.4571e-06
2.3802e-06
2.29867e-06
2.21382e-06
2.1259e-06
2.03517e-06
1.94195e-06
1.84661e-06
1.7495e-06
1.65103e-06
1.55159e-06
1.45158e-06
1.35139e-06
1.25142e-06
1.15202e-06
1.05356e-06
9.5638e-07
8.60788e-07
7.67074e-07
6.75495e-07
5.86283e-07
4.99663e-07
4.15893e-07
3.35366e-07
2.58788e-07
1.87463e-07
1.23642e-07
7.05899e-08
3.20976e-08
9.86933e-09
1.35747e-09
8.06339e-12
2.65699e-11
4.53263e-09
3.40482e-08
1.17551e-07
2.79179e-07
5.2908e-07
8.59914e-07
1.25021e-06
1.67121e-06
2.09247e-06
2.48805e-06
2.83889e-06
3.13331e-06
3.36645e-06
3.53893e-06
3.65543e-06
3.72331e-06
3.75128e-06
3.74844e-06
3.72341e-06
3.68379e-06
3.63582e-06
3.58428e-06
3.53255e-06
3.48274e-06
3.43597e-06
3.39252e-06
3.35211e-06
3.31409e-06
3.27761e-06
3.24174e-06
3.20557e-06
3.16825e-06
3.12906e-06
3.08739e-06
3.04184e-06
2.99334e-06
2.94226e-06
2.88708e-06
2.82774e-06
2.76422e-06
2.6965e-06
2.6246e-06
2.54863e-06
2.46937e-06
2.38552e-06
2.29769e-06
2.20657e-06
2.11243e-06
2.01559e-06
1.91646e-06
1.81543e-06
1.71293e-06
1.60941e-06
1.5053e-06
1.40103e-06
1.29701e-06
1.19365e-06
1.09132e-06
9.90371e-07
8.91141e-07
7.93934e-07
6.99029e-07
6.06679e-07
5.17125e-07
4.30637e-07
3.47603e-07
2.68696e-07
1.9517e-07
1.29224e-07
7.41243e-08
3.3885e-08
1.04677e-08
1.44389e-09
8.58544e-12
2.79642e-11
4.77113e-09
3.58485e-08
1.23792e-07
2.94026e-07
5.57188e-07
9.05416e-07
1.3159e-06
1.75819e-06
2.20001e-06
2.61397e-06
2.97996e-06
3.2858e-06
3.5265e-06
3.70293e-06
3.82028e-06
3.88652e-06
3.91104e-06
3.90358e-06
3.87335e-06
3.8284e-06
3.77529e-06
3.719e-06
3.663e-06
3.60944e-06
3.5594e-06
3.51312e-06
3.47027e-06
3.43012e-06
3.39176e-06
3.35422e-06
3.31656e-06
3.27789e-06
3.23748e-06
3.19469e-06
3.14809e-06
3.09862e-06
3.04654e-06
2.99034e-06
2.92992e-06
2.86519e-06
2.79609e-06
2.72258e-06
2.64468e-06
2.56292e-06
2.47713e-06
2.38646e-06
2.29214e-06
2.19447e-06
2.09383e-06
1.99064e-06
1.88535e-06
1.77847e-06
1.67047e-06
1.56186e-06
1.45311e-06
1.34469e-06
1.23702e-06
1.1305e-06
1.02552e-06
9.22419e-07
8.21516e-07
7.23109e-07
6.27469e-07
5.34855e-07
4.45548e-07
3.59931e-07
2.78652e-07
2.02911e-07
1.34848e-07
7.77088e-08
3.57151e-08
1.10862e-08
1.53372e-09
9.12942e-12
2.93385e-11
5.0061e-09
3.76197e-08
1.29917e-07
3.08559e-07
5.84628e-07
9.49738e-07
1.37978e-06
1.84264e-06
2.30431e-06
2.73597e-06
3.11654e-06
3.4333e-06
3.68117e-06
3.86128e-06
3.97929e-06
4.0438e-06
4.06485e-06
4.05282e-06
4.01748e-06
3.96736e-06
3.90933e-06
3.84853e-06
3.78851e-06
3.73147e-06
3.67847e-06
3.62971e-06
3.58478e-06
3.54291e-06
3.50313e-06
3.46443e-06
3.42583e-06
3.38643e-06
3.34545e-06
3.30224e-06
3.25542e-06
3.20557e-06
3.15324e-06
3.09675e-06
3.03594e-06
2.97066e-06
2.90077e-06
2.82618e-06
2.74686e-06
2.66286e-06
2.57492e-06
2.4819e-06
2.38431e-06
2.28297e-06
2.17826e-06
2.07066e-06
1.96069e-06
1.84892e-06
1.73593e-06
1.62228e-06
1.50853e-06
1.39519e-06
1.28275e-06
1.17163e-06
1.06225e-06
9.54957e-07
8.5009e-07
7.47952e-07
6.48828e-07
5.52989e-07
4.60728e-07
3.72425e-07
2.88704e-07
2.10711e-07
1.40522e-07
8.13503e-08
3.75889e-08
1.17253e-08
1.6271e-09
9.69624e-12
3.06863e-11
5.23639e-09
3.93524e-08
1.35892e-07
3.22693e-07
6.11239e-07
9.92623e-07
1.44149e-06
1.92413e-06
2.40489e-06
2.85357e-06
3.24814e-06
3.57538e-06
3.83012e-06
4.01373e-06
4.13234e-06
4.19512e-06
4.21278e-06
4.19631e-06
4.15603e-06
4.10098e-06
4.03829e-06
3.97325e-06
3.90952e-06
3.84933e-06
3.7937e-06
3.74282e-06
3.69623e-06
3.6531e-06
3.61241e-06
3.57313e-06
3.53422e-06
3.49476e-06
3.45394e-06
3.41108e-06
3.365e-06
3.31545e-06
3.26367e-06
3.20769e-06
3.14727e-06
3.08216e-06
3.01213e-06
2.93702e-06
2.8567e-06
2.77113e-06
2.68074e-06
2.58569e-06
2.48486e-06
2.37967e-06
2.27057e-06
2.15813e-06
2.04296e-06
1.92571e-06
1.80706e-06
1.6877e-06
1.56826e-06
1.44936e-06
1.33153e-06
1.21527e-06
1.10101e-06
9.89116e-07
8.79936e-07
7.73777e-07
6.70925e-07
5.7166e-07
4.76277e-07
3.85155e-07
2.98896e-07
2.18595e-07
1.46255e-07
8.50534e-08
3.95071e-08
1.23853e-08
1.72411e-09
1.02867e-11
3.20008e-11
5.46083e-09
4.10376e-08
1.41685e-07
3.36345e-07
6.36863e-07
1.03382e-06
1.50069e-06
2.00224e-06
2.50127e-06
2.96629e-06
3.37432e-06
3.71166e-06
3.97306e-06
4.16008e-06
4.27931e-06
4.3405e-06
4.35497e-06
4.33425e-06
4.28923e-06
4.22953e-06
4.16253e-06
4.09358e-06
4.02646e-06
3.96345e-06
3.90558e-06
3.85298e-06
3.80517e-06
3.76129e-06
3.72026e-06
3.68101e-06
3.64248e-06
3.60371e-06
3.56384e-06
3.52212e-06
3.47785e-06
3.42959e-06
3.37903e-06
3.32444e-06
3.26526e-06
3.20112e-06
3.13168e-06
3.05668e-06
2.97591e-06
2.88927e-06
2.79677e-06
2.69911e-06
2.5956e-06
2.48633e-06
2.37252e-06
2.25475e-06
2.13377e-06
2.01033e-06
1.88525e-06
1.75935e-06
1.63341e-06
1.50813e-06
1.38416e-06
1.26206e-06
1.14231e-06
1.02529e-06
9.11357e-07
8.00811e-07
6.93932e-07
5.90994e-07
4.9229e-07
3.9819e-07
3.09274e-07
2.26587e-07
1.52059e-07
8.88177e-08
4.14694e-08
1.30664e-08
1.82483e-09
1.09012e-11
3.32755e-11
5.67827e-09
4.2666e-08
1.47262e-07
3.49437e-07
6.61349e-07
1.0731e-06
1.55704e-06
2.07657e-06
2.59302e-06
3.07366e-06
3.49465e-06
3.84178e-06
4.10968e-06
4.30013e-06
4.42013e-06
4.47997e-06
4.49154e-06
4.46689e-06
4.41728e-06
4.35329e-06
4.28241e-06
4.20988e-06
4.13974e-06
4.07428e-06
4.01455e-06
3.96068e-06
3.91214e-06
3.86804e-06
3.82728e-06
3.78874e-06
3.75133e-06
3.71406e-06
3.67602e-06
3.63642e-06
3.59454e-06
3.5492e-06
3.50033e-06
3.44813e-06
3.39111e-06
3.3288e-06
3.26075e-06
3.18656e-06
3.10593e-06
3.01865e-06
2.92465e-06
2.82417e-06
2.71798e-06
2.6047e-06
2.48583e-06
2.36225e-06
2.2348e-06
2.10439e-06
1.97201e-06
1.83862e-06
1.70518e-06
1.57256e-06
1.44153e-06
1.31274e-06
1.18672e-06
1.06393e-06
9.44688e-07
8.29303e-07
7.18031e-07
6.11124e-07
5.0886e-07
4.11594e-07
3.1988e-07
2.34712e-07
1.57944e-07
9.26439e-08
4.34753e-08
1.37685e-08
1.92928e-09
1.15404e-11
3.45038e-11
5.88758e-09
4.4229e-08
1.52592e-07
3.61891e-07
6.84552e-07
1.11022e-06
1.61024e-06
2.14675e-06
2.67972e-06
3.17528e-06
3.60873e-06
3.96539e-06
4.23974e-06
4.43374e-06
4.55475e-06
4.61357e-06
4.6227e-06
4.59428e-06
4.5406e-06
4.47245e-06
4.39823e-06
4.3226e-06
4.24976e-06
4.18224e-06
4.12106e-06
4.06636e-06
4.0176e-06
3.97385e-06
3.93399e-06
3.89687e-06
3.86136e-06
3.82643e-06
3.79112e-06
3.75456e-06
3.71596e-06
3.67453e-06
3.62903e-06
3.57965e-06
3.52576e-06
3.46622e-06
3.40042e-06
3.32785e-06
3.24805e-06
3.1607e-06
3.06563e-06
2.96287e-06
2.8532e-06
2.73642e-06
2.61219e-06
2.48231e-06
2.34773e-06
2.20954e-06
2.06888e-06
1.92696e-06
1.78492e-06
1.64383e-06
1.50463e-06
1.36811e-06
1.23492e-06
1.10553e-06
9.80313e-07
8.59532e-07
7.43418e-07
6.32188e-07
5.26084e-07
4.25434e-07
3.30756e-07
2.42993e-07
1.63918e-07
9.65331e-08
4.55236e-08
1.44912e-08
2.03744e-09
1.22042e-11
3.56797e-11
6.08772e-09
4.57183e-08
1.57645e-07
3.73636e-07
7.0634e-07
1.14499e-06
1.66002e-06
2.21243e-06
2.761e-06
3.27077e-06
3.71622e-06
4.0822e-06
4.36302e-06
4.56075e-06
4.6831e-06
4.74132e-06
4.74835e-06
4.71651e-06
4.65911e-06
4.58785e-06
4.51051e-06
4.43201e-06
4.35696e-06
4.28773e-06
4.22552e-06
4.17045e-06
4.12197e-06
4.07915e-06
4.04085e-06
4.00587e-06
3.97305e-06
3.94131e-06
3.90964e-06
3.8771e-06
3.84279e-06
3.80584e-06
3.76541e-06
3.72008e-06
3.66987e-06
3.61406e-06
3.55145e-06
3.48135e-06
3.40315e-06
3.31641e-06
3.22083e-06
3.11634e-06
3.00314e-06
2.88255e-06
2.75315e-06
2.6165e-06
2.47416e-06
2.32736e-06
2.17745e-06
2.02587e-06
1.874e-06
1.72318e-06
1.57456e-06
1.42912e-06
1.28765e-06
1.1507e-06
1.01867e-06
8.91812e-07
7.70315e-07
6.54335e-07
5.44062e-07
4.39773e-07
3.41941e-07
2.5145e-07
1.6999e-07
1.00486e-07
4.76124e-08
1.52339e-08
2.14927e-09
1.28926e-11
3.67974e-11
6.27766e-09
4.71261e-08
1.62394e-07
3.84608e-07
7.26595e-07
1.17722e-06
1.70611e-06
2.27331e-06
2.83651e-06
3.35977e-06
3.8168e-06
4.19193e-06
4.47931e-06
4.68105e-06
4.80516e-06
4.86329e-06
4.86847e-06
4.83374e-06
4.77333e-06
4.69981e-06
4.61941e-06
4.53858e-06
4.46164e-06
4.3911e-06
4.32827e-06
4.27329e-06
4.22561e-06
4.1843e-06
4.14818e-06
4.11605e-06
4.0867e-06
4.059e-06
4.03188e-06
4.0043e-06
3.97528e-06
3.94383e-06
3.90895e-06
3.86964e-06
3.82432e-06
3.77261e-06
3.71415e-06
3.64743e-06
3.57169e-06
3.48628e-06
3.3908e-06
3.28504e-06
3.16907e-06
3.04398e-06
2.90988e-06
2.76619e-06
2.61553e-06
2.45934e-06
2.29921e-06
2.13682e-06
1.97385e-06
1.81193e-06
1.65249e-06
1.49678e-06
1.34574e-06
1.20009e-06
1.06026e-06
9.26507e-07
7.98972e-07
6.77734e-07
5.62902e-07
4.54681e-07