/*--------------------------------*- C++ -*----------------------------------*\
  =========                 |
  \\      /  F ield         | OpenFOAM: The Open Source CFD Toolbox
   \\    /   O peration     | Website:  https://openfoam.org
    \\  /    A nd           | Version:  12
     \\/     M anipulation  |
\*---------------------------------------------------------------------------*/
FoamFile
{
    format      ascii;
    class       surfaceScalarField;
    location    "1";
    object      phi;
}
// * * * * * * * * * * * * * * * * * * * * * * * * * * * * * * * * * * * * * //

dimensions      [0 3 -1 0 0 0 0];

internalField   nonuniform List<scalar> 
11100
(
3.35204e-10
-3.32924e-10
8.12756e-10
-4.77729e-10
1.15281e-09
-3.40283e-10
1.17496e-09
-2.23636e-11
8.14127e-10
3.60665e-10
5.53982e-11
7.58606e-10
-1.0853e-09
1.14061e-09
-2.57609e-09
1.49072e-09
-4.37827e-09
1.80212e-09
-6.45176e-09
2.07344e-09
-8.75824e-09
2.30643e-09
-1.12627e-08
2.50441e-09
-1.39341e-08
2.67134e-09
-1.67453e-08
2.8112e-09
-1.9673e-08
2.92767e-09
-2.26969e-08
3.02383e-09
-2.5799e-08
3.10209e-09
-2.89631e-08
3.16412e-09
-3.2174e-08
3.21084e-09
-3.54165e-08
3.24249e-09
-3.86752e-08
3.25868e-09
-4.19337e-08
3.2585e-09
-4.51743e-08
3.24058e-09
-4.83776e-08
3.20325e-09
-5.15222e-08
3.14461e-09
-5.45849e-08
3.06267e-09
-5.75403e-08
2.95542e-09
-6.03614e-08
2.82102e-09
-6.30192e-08
2.6578e-09
-6.54836e-08
2.46445e-09
-6.77237e-08
2.24005e-09
-6.97079e-08
1.98418e-09
-7.14049e-08
1.69699e-09
-7.27842e-08
1.37927e-09
-7.38165e-08
1.03239e-09
-7.44751e-08
6.58554e-10
-7.47373e-08
2.62176e-10
-7.45817e-08
-1.55576e-10
-7.39935e-08
-5.88279e-10
-7.29622e-08
-1.03128e-09
-7.14836e-08
-1.47865e-09
-6.95597e-08
-1.92391e-09
-6.71995e-08
-2.36016e-09
-6.44193e-08
-2.78018e-09
-6.12427e-08
-3.17661e-09
-5.77007e-08
-3.54208e-09
-5.38312e-08
-3.86948e-09
-4.96791e-08
-4.15208e-09
-4.52953e-08
-4.38379e-09
-4.0736e-08
-4.55931e-09
-3.60617e-08
-4.67434e-09
-3.1336e-08
-4.72571e-09
-2.66245e-08
-4.71151e-09
-2.19933e-08
-4.6312e-09
-1.75077e-08
-4.48563e-09
-1.32306e-08
-4.27706e-09
-9.22149e-09
-4.00913e-09
-5.53474e-09
-3.68676e-09
-2.21867e-09
-3.31608e-09
6.85596e-10
-2.90427e-09
3.14505e-09
-2.45946e-09
5.13556e-09
-1.99052e-09
6.64262e-09
-1.50707e-09
7.66197e-09
-1.01936e-09
8.20039e-09
-5.3842e-10
8.27659e-09
-7.62056e-11
7.92231e-09
3.54268e-10
7.18445e-09
7.37855e-10
6.12754e-09
1.05691e-09
4.83808e-09
1.28946e-09
3.42978e-09
1.4083e-09
2.05005e-09
1.37972e-09
8.86119e-10
1.16393e-09
1.57697e-10
7.28417e-10
1.57695e-10
5.37582e-10
-8.70515e-10
1.14868e-09
-1.08896e-09
1.25906e-09
-4.50875e-10
5.72064e-10
6.64427e-10
-1.06454e-09
1.9971e-09
-3.69315e-09
3.38708e-09
-7.28918e-09
4.73655e-09
-1.17887e-08
5.99018e-09
-1.71075e-08
7.1208e-09
-2.31533e-08
8.1192e-09
-2.98341e-08
8.98715e-09
-3.70623e-08
9.73263e-09
-4.47577e-08
1.03666e-08
-5.28475e-08
1.0901e-08
-6.12669e-08
1.1347e-08
-6.99574e-08
1.17143e-08
-7.8866e-08
1.20107e-08
-8.79433e-08
1.22414e-08
-9.7142e-08
1.24095e-08
-1.06415e-07
1.25157e-08
-1.15715e-07
1.25585e-08
-1.24991e-07
1.25347e-08
-1.3419e-07
1.24396e-08
-1.43255e-07
1.22677e-08
-1.52122e-07
1.20123e-08
-1.60726e-07
1.16668e-08
-1.68996e-07
1.12245e-08
-1.76854e-07
1.06795e-08
-1.84223e-07
1.00263e-08
-1.91019e-07
9.26111e-09
-1.97161e-07
8.38131e-09
-2.02563e-07
7.38629e-09
-2.07143e-07
6.27753e-09
-2.10823e-07
5.05879e-09
-2.13527e-07
3.73624e-09
-2.15186e-07
2.3182e-09
-2.15743e-07
8.19069e-10
-2.15149e-07
-7.49868e-10
-2.13366e-07
-2.37083e-09
-2.10373e-07
-4.02433e-09
-2.06163e-07
-5.68878e-09
-2.00746e-07
-7.34074e-09
-1.94151e-07
-8.95533e-09
-1.86425e-07
-1.05067e-08
-1.77633e-07
-1.19685e-08
-1.6786e-07
-1.33147e-08
-1.5721e-07
-1.452e-08
-1.45801e-07
-1.55608e-08
-1.33769e-07
-1.64155e-08
-1.21263e-07
-1.70657e-08
-1.08441e-07
-1.74961e-08
-9.54715e-08
-1.76956e-08
-8.25254e-08
-1.76576e-08
-6.97766e-08
-1.738e-08
-5.73962e-08
-1.6866e-08
-4.55499e-08
-1.61234e-08
-3.4394e-08
-1.5165e-08
-2.40723e-08
-1.40085e-08
-1.4713e-08
-1.26754e-08
-6.42549e-09
-1.11918e-08
7.01724e-10
-9.58668e-09
6.6038e-09
-7.8926e-09
1.12413e-08
-6.14462e-09
1.46026e-08
-4.38064e-09
1.67055e-08
-2.64126e-09
1.75994e-08
-9.70204e-10
1.73692e-08
5.84528e-10
1.61374e-08
1.96963e-09
1.40703e-08
3.12402e-09
1.13832e-08
3.97651e-09
8.34715e-09
4.44435e-09
5.29368e-09
4.43319e-09
2.61289e-09
3.84471e-09
7.24981e-10
2.61632e-09
8.82673e-10
3.77309e-10
-1.24772e-09
5.18279e-10
-1.22997e-09
-2.22544e-10
2.89815e-10
-2.18934e-09
2.63106e-09
-5.55848e-09
5.36608e-09
-1.03835e-08
8.21198e-09
-1.66347e-08
1.09876e-08
-2.42296e-08
1.3585e-08
-3.30557e-08
1.59468e-08
-4.29861e-08
1.80496e-08
-5.38908e-08
1.98918e-08
-6.56431e-08
2.14849e-08
-7.81239e-08
2.28473e-08
-9.12228e-08
2.39999e-08
-1.04839e-07
2.4963e-08
-1.18879e-07
2.57547e-08
-1.33258e-07
2.63893e-08
-1.47893e-07
2.68767e-08
-1.62706e-07
2.72223e-08
-1.77617e-07
2.74271e-08
-1.92547e-07
2.74881e-08
-2.07411e-07
2.73986e-08
-2.22121e-07
2.71492e-08
-2.36581e-07
2.67285e-08
-2.50693e-07
2.61237e-08
-2.64348e-07
2.53215e-08
-2.77432e-07
2.43092e-08
-2.89828e-07
2.30749e-08
-3.0141e-07
2.16091e-08
-3.12054e-07
1.99045e-08
-3.2163e-07
1.79574e-08
-3.30012e-07
1.57679e-08
-3.37074e-07
1.33404e-08
-3.427e-07
1.06843e-08
-3.46778e-07
7.81407e-09
-3.49209e-07
4.74955e-09
-3.49907e-07
1.51729e-09
-3.48804e-07
-1.85299e-09
-3.4585e-07
-5.32518e-09
-3.41016e-07
-8.85817e-09
-3.34298e-07
-1.24066e-08
-3.25717e-07
-1.59216e-08
-3.15321e-07
-1.93513e-08
-3.03186e-07
-2.26424e-08
-2.89414e-07
-2.57405e-08
-2.74136e-07
-2.85921e-08
-2.57511e-07
-3.11454e-08
-2.3972e-07
-3.33521e-08
-2.20967e-07
-3.51681e-08
-2.01477e-07
-3.65556e-08
-1.8149e-07
-3.74836e-08
-1.61256e-07
-3.79294e-08
-1.41034e-07
-3.78791e-08
-1.21086e-07
-3.73287e-08
-1.01667e-07
-3.62842e-08
-8.30292e-08
-3.47615e-08
-6.54074e-08
-3.27869e-08
-4.90198e-08
-3.03961e-08
-3.40613e-08
-2.7634e-08
-2.06993e-08
-2.45538e-08
-9.06969e-09
-2.12163e-08
7.26718e-10
-1.7689e-08
8.62779e-09
-1.40457e-08
1.46127e-08
-1.03656e-08
1.87058e-08
-6.73437e-09
2.09791e-08
-3.24347e-09
2.15566e-08
7.02426e-12
2.06166e-08
2.90959e-09
1.8399e-08
5.3417e-09
1.52075e-08
7.16796e-09
1.14149e-08
8.2369e-09
7.46376e-09
8.38437e-09
3.86069e-09
7.44778e-09
1.1638e-09
5.3132e-09
2.04647e-09
4.19136e-11
-1.28955e-09
-6.67514e-10
-5.2056e-10
-2.69583e-09
2.31803e-09
-6.36484e-09
6.29994e-09
-1.18351e-08
1.08362e-08
-1.91487e-08
1.55255e-08
-2.82629e-08
2.01017e-08
-3.90779e-08
2.43999e-08
-5.14592e-08
2.8328e-08
-6.52545e-08
3.18448e-08
-8.03054e-08
3.49426e-08
-9.64553e-08
3.76348e-08
-1.13554e-07
3.99462e-08
-1.31461e-07
4.19067e-08
-1.50044e-07
4.35461e-08
-1.69181e-07
4.48909e-08
-1.88754e-07
4.59623e-08
-2.08652e-07
4.67748e-08
-2.28766e-07
4.73362e-08
-2.48986e-07
4.76472e-08
-2.692e-07
4.77023e-08
-2.89292e-07
4.74905e-08
-3.0914e-07
4.69966e-08
-3.28613e-07
4.62019e-08
-3.47575e-07
4.50862e-08
-3.65882e-07
4.36286e-08
-3.83383e-07
4.18092e-08
-3.99918e-07
3.96101e-08
-4.15325e-07
3.70169e-08
-4.29441e-07
3.40196e-08
-4.42097e-07
3.0614e-08
-4.53132e-07
2.68023e-08
-4.62385e-07
2.25942e-08
-4.69708e-07
1.80073e-08
-4.74962e-07
1.30678e-08
-4.78023e-07
7.81082e-09
-4.78787e-07
2.28061e-09
-4.77169e-07
-3.47053e-09
-4.73113e-07
-9.38167e-09
-4.66587e-07
-1.5384e-08
-4.57592e-07
-2.14018e-08
-4.4616e-07
-2.73537e-08
-4.32357e-07
-3.31543e-08
-4.16284e-07
-3.87153e-08
-3.98077e-07
-4.39476e-08
-3.77906e-07
-4.87632e-08
-3.55974e-07
-5.30775e-08
-3.32514e-07
-5.68112e-08
-3.0779e-07
-5.98925e-08
-2.82086e-07
-6.22593e-08
-2.55709e-07
-6.38609e-08
-2.28979e-07
-6.46599e-08
-2.02224e-07
-6.46335e-08
-1.75779e-07
-6.37744e-08
-1.49971e-07
-6.20919e-08
-1.25121e-07
-5.96117e-08
-1.01531e-07
-5.63762e-08
-7.94837e-08
-5.24437e-08
-5.92301e-08
-4.78875e-08
-4.09886e-08
-4.27953e-08
-2.49377e-08
-3.72672e-08
-1.12114e-08
-3.14153e-08
1.05034e-10
-2.53621e-08
8.97958e-09
-1.92402e-08
1.54363e-08
-1.31911e-08
1.95603e-08
-7.36742e-09
2.14998e-08
-1.93254e-09
2.14724e-08
2.937e-09
1.97656e-08
7.04857e-09
1.67413e-08
1.01922e-08
1.28382e-08
1.214e-08
8.57162e-09
1.2651e-08
4.53341e-09
1.1486e-08
1.40122e-09
8.44539e-09
3.44768e-09
-3.8849e-10
-9.00982e-10
-2.16823e-09
1.25919e-09
-5.77153e-09
5.92126e-09
-1.14455e-08
1.19738e-08
-1.93016e-08
1.86922e-08
-2.9348e-08
2.55718e-08
-4.15157e-08
3.22693e-08
-5.56823e-08
3.85664e-08
-7.16916e-08
4.43373e-08
-8.9369e-08
4.95222e-08
-1.08533e-07
5.41064e-08
-1.29002e-07
5.81044e-08
-1.50603e-07
6.15467e-08
-1.73168e-07
6.44716e-08
-1.96539e-07
6.69177e-08
-2.20568e-07
6.89197e-08
-2.45111e-07
7.05052e-08
-2.70029e-07
7.16929e-08
-2.95185e-07
7.24919e-08
-3.2044e-07
7.29022e-08
-3.45653e-07
7.29148e-08
-3.70675e-07
7.25134e-08
-3.95355e-07
7.16758e-08
-4.19528e-07
7.03755e-08
-4.43026e-07
6.85837e-08
-4.65669e-07
6.62715e-08
-4.87271e-07
6.34111e-08
-5.07639e-07
5.99786e-08
-5.26577e-07
5.5955e-08
-5.43886e-07
5.13285e-08
-5.59368e-07
4.60954e-08
-5.72827e-07
4.02619e-08
-5.84078e-07
3.3845e-08
-5.92944e-07
2.68733e-08
-5.99264e-07
1.9388e-08
-6.02896e-07
1.14429e-08
-6.0372e-07
3.10459e-09
-6.01643e-07
-5.54803e-09
-5.966e-07
-1.44242e-08
-5.88562e-07
-2.34221e-08
-5.77534e-07
-3.24306e-08
-5.63557e-07
-4.13304e-08
-5.46715e-07
-4.99965e-08
-5.2713e-07
-5.83004e-08
-5.04965e-07
-6.61126e-08
-4.80422e-07
-7.33055e-08
-4.53744e-07
-7.97562e-08
-4.25205e-07
-8.53499e-08
-3.95115e-07
-8.99824e-08
-3.63811e-07
-9.35634e-08
-3.31653e-07
-9.60191e-08
-2.99018e-07
-9.72947e-08
-2.66295e-07
-9.73561e-08
-2.33878e-07
-9.61921e-08
-2.02155e-07
-9.38146e-08
-1.71507e-07
-9.02601e-08
-1.42294e-07
-8.55887e-08
-1.14854e-07
-7.98841e-08
-8.94891e-08
-7.32522e-08
-6.64643e-08
-6.58201e-08
-4.59978e-08
-5.77337e-08
-2.82564e-08
-4.91567e-08
-1.33498e-08
-4.02687e-08
-1.3261e-09
-3.12638e-08
7.83303e-09
-2.23503e-08
1.42159e-08
-1.37503e-08
1.79842e-08
-5.70087e-09
1.93767e-08
1.54448e-09
1.87114e-08
7.71391e-09
1.63875e-08
1.25161e-08
1.28875e-08
1.564e-08
8.77882e-09
1.67597e-08
4.71921e-09
1.55456e-08
1.47781e-09
1.16868e-08
4.92549e-09
-8.64791e-10
-3.61302e-11
-3.84388e-09
4.23828e-09
-9.20843e-09
1.12858e-08
-1.7099e-08
1.98643e-08
-2.75526e-08
2.91457e-08
-4.05241e-08
3.85431e-08
-5.59053e-08
4.76504e-08
-7.35434e-08
5.62046e-08
-9.32571e-08
6.40509e-08
-1.14849e-07
7.11142e-08
-1.38117e-07
7.7374e-08
-1.62859e-07
8.2846e-08
-1.88878e-07
8.75666e-08
-2.15989e-07
9.15817e-08
-2.44009e-07
9.49385e-08
-2.72768e-07
9.76788e-08
-3.02099e-07
9.9836e-08
-3.31839e-07
1.01432e-07
-3.61823e-07
1.02477e-07
-3.91889e-07
1.02968e-07
-4.21866e-07
1.02892e-07
-4.51578e-07
1.02226e-07
-4.80844e-07
1.00941e-07
-5.09471e-07
9.90018e-08
-5.37256e-07
9.63697e-08
-5.63992e-07
9.30072e-08
-5.8946e-07
8.88793e-08
-6.13438e-07
8.39558e-08
-6.35697e-07
7.82142e-08
-6.5601e-07
7.16412e-08
-6.7415e-07
6.42355e-08
-6.89897e-07
5.60087e-08
-7.03039e-07
4.69875e-08
-7.1338e-07
3.72139e-08
-7.20739e-07
2.67469e-08
-7.24958e-07
1.56622e-08
-7.25906e-07
4.05238e-09
-7.2348e-07
-7.97344e-09
-7.17614e-07
-2.02907e-08
-7.08275e-07
-3.27607e-08
-6.95474e-07
-4.52321e-08
-6.79261e-07
-5.75435e-08
-6.59731e-07
-6.95261e-08
-6.37025e-07
-8.10065e-08
-6.11327e-07
-9.18105e-08
-5.82866e-07
-1.01766e-07
-5.51914e-07
-1.10709e-07
-5.18781e-07
-1.18483e-07
-4.83814e-07
-1.24949e-07
-4.47393e-07
-1.29984e-07
-4.09923e-07
-1.33489e-07
-3.71831e-07
-1.35387e-07
-3.33554e-07
-1.35633e-07
-2.95538e-07
-1.34208e-07
-2.58226e-07
-1.31126e-07
-2.22051e-07
-1.26435e-07
-1.87426e-07
-1.20213e-07
-1.54739e-07
-1.12572e-07
-1.2434e-07
-1.03651e-07
-9.65387e-08
-9.36216e-08
-7.15922e-08
-8.26801e-08
-4.97015e-08
-7.10475e-08
-3.10034e-08
-5.89667e-08
-1.55663e-08
-4.67009e-08
-3.38467e-09
-3.4532e-08
5.62495e-09
-2.27599e-08
1.16271e-08
-1.1703e-08
1.48702e-08
-1.69865e-09
1.56887e-08
6.89534e-09
1.4505e-08
1.36998e-08
1.18306e-08
1.83143e-08
8.27011e-09
2.03201e-08
4.5294e-09
1.92863e-08
1.43776e-09
1.47784e-08
6.36325e-09
-1.36154e-09
1.32549e-09
-5.61348e-09
8.49022e-09
-1.2856e-08
1.85283e-08
-2.31056e-08
3.01138e-08
-3.63073e-08
4.23473e-08
-5.23477e-08
5.45834e-08
-7.10678e-08
6.63705e-08
-9.22765e-08
7.74132e-08
-1.15762e-07
8.75366e-08
-1.41303e-07
9.66553e-08
-1.68676e-07
1.04746e-07
-1.97659e-07
1.11829e-07
-2.28038e-07
1.17946e-07
-2.59607e-07
1.2315e-07
-2.92167e-07
1.27498e-07
-3.25526e-07
1.31038e-07
-3.59498e-07
1.33808e-07
-3.93897e-07
1.35831e-07
-4.28538e-07
1.37118e-07
-4.63233e-07
1.37662e-07
-4.97787e-07
1.37446e-07
-5.32e-07
1.36439e-07
-5.65661e-07
1.34602e-07
-5.98551e-07
1.31892e-07
-6.30441e-07
1.2826e-07
-6.61094e-07
1.2366e-07
-6.90263e-07
1.18049e-07
-7.17699e-07
1.11392e-07
-7.43148e-07
1.03662e-07
-7.66354e-07
9.48477e-08
-7.87068e-07
8.49494e-08
-8.05046e-07
7.39867e-08
-8.20056e-07
6.19974e-08
-8.31882e-07
4.90395e-08
-8.40327e-07
3.5192e-08
-8.4522e-07
2.05552e-08
-8.46418e-07
5.25051e-09
-8.43812e-07
-1.05799e-08
-8.37328e-07
-2.67745e-08
-8.26934e-07
-4.31542e-08
-8.12642e-07
-5.95245e-08
-7.94507e-07
-7.56783e-08
-7.72634e-07
-9.13994e-08
-7.47174e-07
-1.06466e-07
-7.1833e-07
-1.20655e-07
-6.86348e-07
-1.33748e-07
-6.51526e-07
-1.45532e-07
-6.142e-07
-1.55809e-07
-5.7475e-07
-1.64399e-07
-5.33589e-07
-1.71145e-07
-4.91161e-07
-1.75917e-07
-4.47934e-07
-1.78615e-07
-4.0439e-07
-1.79177e-07
-3.61022e-07
-1.77576e-07
-3.18319e-07
-1.73829e-07
-2.76765e-07
-1.6799e-07
-2.36822e-07
-1.60156e-07
-1.98926e-07
-1.50468e-07
-1.63475e-07
-1.39102e-07
-1.30821e-07
-1.26275e-07
-1.01264e-07
-1.12237e-07
-7.504e-08
-9.72714e-08
-5.23177e-08
-8.1689e-08
-3.31904e-08
-6.58282e-08
-1.76715e-08
-5.00509e-08
-5.69016e-09
-3.47413e-08
2.91229e-09
-2.03055e-08
8.38468e-09
-7.17104e-09
1.10679e-08
4.21212e-09
1.13965e-08
1.33712e-08
9.90051e-09
1.98103e-08
7.20941e-09
2.30112e-08
4.06033e-09
2.24354e-08
1.31588e-09
1.75229e-08
7.67913e-09
-1.86671e-09
3.19224e-09
-7.42985e-09
1.40534e-08
-1.66194e-08
2.77178e-08
-2.93187e-08
4.2813e-08
-4.53697e-08
5.83982e-08
-6.45796e-08
7.37933e-08
-8.67296e-08
8.85204e-08
-1.11583e-07
1.02266e-07
-1.38893e-07
1.14846e-07
-1.6841e-07
1.26173e-07
-1.99889e-07
1.36225e-07
-2.33089e-07
1.45029e-07
-2.6778e-07
1.52636e-07
-3.03738e-07
1.59108e-07
-3.40748e-07
1.64509e-07
-3.78602e-07
1.68892e-07
-4.17096e-07
1.72301e-07
-4.56025e-07
1.7476e-07
-4.95185e-07
1.76277e-07
-5.34365e-07
1.76843e-07
-5.73351e-07
1.76432e-07
-6.11918e-07
1.75006e-07
-6.49832e-07
1.72516e-07
-6.86849e-07
1.68909e-07
-7.22716e-07
1.64127e-07
-7.57169e-07
1.58113e-07
-7.8994e-07
1.5082e-07
-8.20752e-07
1.42204e-07
-8.49327e-07
1.32238e-07
-8.7539e-07
1.2091e-07
-8.98666e-07
1.08226e-07
-9.18893e-07
9.42138e-08
-9.3582e-07
7.89242e-08
-9.49213e-07
6.24326e-08
-9.58861e-07
4.48399e-08
-9.64579e-07
2.6273e-08
-9.66213e-07
6.88443e-09
-9.63644e-07
-1.31485e-08
-9.56794e-07
-3.36251e-08
-9.45624e-07
-5.43234e-08
-9.30146e-07
-7.50031e-08
-9.10415e-07
-9.54088e-08
-8.86541e-07
-1.15274e-07
-8.58682e-07
-1.34325e-07
-8.27049e-07
-1.52288e-07
-7.91906e-07
-1.68891e-07
-7.53563e-07
-1.83874e-07
-7.12381e-07
-1.96991e-07
-6.68764e-07
-2.08017e-07
-6.23154e-07
-2.16755e-07
-5.76027e-07
-2.23043e-07
-5.27888e-07
-2.26754e-07
-4.79259e-07
-2.27805e-07
-4.30675e-07
-2.2616e-07
-3.82674e-07
-2.21831e-07
-3.35783e-07
-2.14881e-07
-2.90514e-07
-2.05425e-07
-2.47352e-07
-1.9363e-07
-2.06744e-07
-1.79711e-07
-1.69087e-07
-1.63931e-07
-1.34726e-07
-1.46599e-07
-1.03936e-07
-1.28061e-07
-7.69214e-08
-1.08703e-07
-5.38069e-08
-8.89428e-08
-3.46308e-08
-6.9227e-08
-1.93415e-08
-5.00305e-08
-7.79398e-09
-3.1853e-08
2.53342e-10
-1.52184e-08
5.1398e-09
-6.74338e-10
7.30398e-09
1.1207e-08
7.28553e-09
1.98288e-08
5.7284e-09
2.45683e-08
3.38699e-09
2.47768e-08
1.1378e-09
1.9772e-08
8.81693e-09
-2.3733e-09
5.56558e-09
-9.26468e-09
2.09447e-08
-2.04376e-08
3.88907e-08
-3.56387e-08
5.8014e-08
-5.46004e-08
7.73597e-08
-7.70434e-08
9.62363e-08
-1.02682e-07
1.14159e-07
-1.31227e-07
1.30811e-07
-1.62394e-07
1.46013e-07
-1.95902e-07
1.59681e-07
-2.31483e-07
1.71806e-07
-2.68878e-07
1.82424e-07
-3.07837e-07
1.91596e-07
-3.48125e-07
1.99396e-07
-3.89511e-07
2.05895e-07
-4.31773e-07
2.11154e-07
-4.74691e-07
2.15219e-07
-5.18045e-07
2.18115e-07
-5.61614e-07
2.19846e-07
-6.05169e-07
2.20399e-07
-6.48477e-07
2.19739e-07
-6.91291e-07
2.1782e-07
-7.33358e-07
2.14583e-07
-7.74412e-07
2.09963e-07
-8.14178e-07
2.03892e-07
-8.52371e-07
1.96306e-07
-8.88698e-07
1.87147e-07
-9.22863e-07
1.76369e-07
-9.54566e-07
1.63942e-07
-9.83511e-07
1.49855e-07
-1.00941e-06
1.3412e-07
-1.03197e-06
1.16775e-07
-1.05093e-06
9.78833e-08
-1.06603e-06
7.75402e-08
-1.07706e-06
5.58694e-08
-1.08381e-06
3.30257e-08
-1.08612e-06
9.19385e-09
-1.08386e-06
-1.5412e-08
-1.07694e-06
-4.05506e-08
-1.0653e-06
-6.59553e-08
-1.04897e-06
-9.13383e-08
-1.02798e-06
-1.16394e-07
-1.00246e-06
-1.40802e-07
-9.72545e-07
-1.64236e-07
-9.38466e-07
-1.86366e-07
-9.00491e-07
-2.06867e-07
-8.5894e-07
-2.25424e-07
-8.14191e-07
-2.4174e-07
-7.66665e-07
-2.55543e-07
-7.16829e-07
-2.66592e-07
-6.65188e-07
-2.74684e-07
-6.12278e-07
-2.79664e-07
-5.5866e-07
-2.81423e-07
-5.04911e-07
-2.7991e-07
-4.5161e-07
-2.75132e-07
-3.99334e-07
-2.67156e-07
-3.48646e-07
-2.56113e-07
-3.0008e-07
-2.42196e-07
-2.54133e-07
-2.25658e-07
-2.11255e-07
-2.0681e-07
-1.71835e-07
-1.86019e-07
-1.36196e-07
-1.637e-07
-1.04584e-07
-1.40316e-07
-7.71595e-08
-1.16368e-07
-5.39923e-08
-9.23942e-08
-3.50569e-08
-6.89659e-08
-2.02283e-08
-4.66817e-08
-9.279e-09
-2.61676e-08
-1.87806e-09
-8.07528e-09
2.41048e-09
6.91849e-09
4.12855e-09
1.81107e-08
3.92608e-09
2.47708e-08
2.56424e-09
2.61386e-08
9.21236e-10
2.1415e-08
9.73816e-09
-2.87757e-09
8.44317e-09
-1.11002e-08
2.91674e-08
-2.42696e-08
5.20601e-08
-4.19956e-08
7.57399e-08
-6.38975e-08
9.92616e-08
-8.96053e-08
1.21944e-07
-1.18761e-07
1.43314e-07
-1.51021e-07
1.63071e-07
-1.86056e-07
1.81048e-07
-2.23556e-07
1.97181e-07
-2.63224e-07
2.11475e-07
-3.04784e-07
2.23983e-07
-3.4797e-07
2.34782e-07
-3.92532e-07
2.43958e-07
-4.38228e-07
2.51591e-07
-4.84823e-07
2.57749e-07
-5.32084e-07
2.6248e-07
-5.79778e-07
2.65809e-07
-6.2767e-07
2.67738e-07
-6.75516e-07
2.68244e-07
-7.23064e-07
2.67288e-07
-7.70054e-07
2.6481e-07
-8.16211e-07
2.60741e-07
-8.61253e-07
2.55005e-07
-9.04884e-07
2.47523e-07
-9.468e-07
2.38222e-07
-9.8669e-07
2.27037e-07
-1.02424e-06
2.13916e-07
-1.05912e-06
1.98829e-07
-1.09103e-06
1.81765e-07
-1.11966e-06
1.62744e-07
-1.1447e-06
1.41812e-07
-1.16586e-06
1.19049e-07
-1.18289e-06
9.4567e-08
-1.19553e-06
6.85151e-08
-1.20358e-06
4.10761e-08
-1.20686e-06
1.24677e-08
-1.20521e-06
-1.70586e-08
-1.19854e-06
-4.72198e-08
-1.18679e-06
-7.77041e-08
-1.16996e-06
-1.08174e-07
-1.14808e-06
-1.38273e-07
-1.12126e-06
-1.67625e-07
-1.08964e-06
-1.95848e-07
-1.05345e-06
-2.22555e-07
-1.01296e-06
-2.47361e-07
-9.6849e-07
-2.69894e-07
-9.20428e-07
-2.89803e-07
-8.6921e-07
-3.06761e-07
-8.15323e-07
-3.20479e-07
-7.59296e-07
-3.30711e-07
-7.01696e-07
-3.37264e-07
-6.43119e-07
-3.4e-07
-5.84181e-07
-3.38848e-07
-5.25509e-07
-3.33804e-07
-4.67728e-07
-3.24936e-07
-4.11453e-07
-3.12388e-07
-3.57272e-07
-2.96377e-07
-3.05738e-07
-2.77192e-07
-2.57355e-07
-2.55193e-07
-2.12568e-07
-2.30806e-07
-1.71751e-07
-2.04518e-07
-1.35196e-07
-1.76871e-07
-1.03107e-07
-1.48456e-07
-7.55943e-08
-1.19907e-07
-5.26635e-08
-9.18967e-08
-3.42161e-08
-6.51291e-08
-2.00451e-08
-4.03386e-08
-9.83374e-09
-1.82867e-08
-3.15447e-09
2.39209e-10
5.30943e-10
1.44253e-08
1.87214e-09
2.34296e-08
1.63013e-09
2.63806e-08
6.78074e-10
2.23671e-08
1.04162e-08
-3.37699e-09
1.18202e-08
-1.29241e-08
3.87145e-08
-2.80862e-08
6.72221e-08
-4.83372e-08
9.59909e-08
-7.31829e-08
1.24107e-07
-1.0216e-07
1.50921e-07
-1.34836e-07
1.7599e-07
-1.70808e-07
1.99043e-07
-2.09703e-07
2.19943e-07
-2.51175e-07
2.38653e-07
-2.94904e-07
2.55204e-07
-3.40591e-07
2.6967e-07
-3.87957e-07
2.82148e-07
-4.36739e-07
2.92739e-07
-4.86682e-07
3.01535e-07
-5.37543e-07
3.08609e-07
-5.89077e-07
3.14015e-07
-6.41042e-07
3.17774e-07
-6.93188e-07
3.19884e-07
-7.45261e-07
3.20317e-07
-7.96995e-07
3.19021e-07
-8.48114e-07
3.15929e-07
-8.9833e-07
3.10957e-07
-9.47343e-07
3.04018e-07
-9.94842e-07
2.95022e-07
-1.04051e-06
2.83886e-07
-1.08401e-06
2.70537e-07
-1.12501e-06
2.5492e-07
-1.16318e-06
2.37001e-07
-1.19819e-06
2.16774e-07
-1.22971e-06
1.9426e-07
-1.25741e-06
1.69519e-07
-1.28101e-06
1.42644e-07
-1.30021e-06
1.13767e-07
-1.31475e-06
8.30596e-08
-1.32441e-06
5.07332e-08
-1.32898e-06
1.70384e-08
-1.32831e-06
-1.7736e-08
-1.32226e-06
-5.32653e-08
-1.31077e-06
-8.91919e-08
-1.29382e-06
-1.25129e-07
-1.27142e-06
-1.60666e-07
-1.24368e-06
-1.95371e-07
-1.21072e-06
-2.28804e-07
-1.17276e-06
-2.60516e-07
-1.13006e-06
-2.90062e-07
-1.08295e-06
-3.17008e-07
-1.03181e-06
-3.40942e-07
-9.7709e-07
-3.61478e-07
-9.19295e-07
-3.78274e-07
-8.58973e-07
-3.91033e-07
-7.96719e-07
-3.99518e-07
-7.33163e-07
-4.03556e-07
-6.68963e-07
-4.03048e-07
-6.04791e-07
-3.97975e-07
-5.41325e-07
-3.88402e-07
-4.79235e-07
-3.74478e-07
-4.1917e-07
-3.56443e-07
-3.61742e-07
-3.3462e-07
-3.07517e-07
-3.09417e-07
-2.57002e-07
-2.81321e-07
-2.10628e-07
-2.50891e-07
-1.68745e-07
-2.18754e-07
-1.31606e-07
-1.85594e-07
-9.9367e-08
-1.52146e-07
-7.20734e-08
-1.1919e-07
-4.96597e-08
-8.75428e-08
-3.19451e-08
-5.80532e-08
-1.86324e-08
-3.15994e-08
-9.30779e-09
-9.08545e-09
-3.44131e-09
8.55878e-09
-3.88309e-10
2.03766e-08
6.08865e-10
2.53834e-08
4.15568e-10
2.25604e-08
1.08318e-08
-3.86972e-09
1.56899e-08
-1.47272e-08
4.9572e-08
-3.18645e-08
8.43593e-08
-5.46223e-08
1.18749e-07
-8.2393e-08
1.51878e-07
-1.1462e-07
1.83147e-07
-1.50794e-07
2.12164e-07
-1.90453e-07
2.38703e-07
-2.33178e-07
2.62668e-07
-2.78588e-07
2.84063e-07
-3.26335e-07
3.02951e-07
-3.76101e-07
3.19436e-07
-4.27593e-07
3.3364e-07
-4.80535e-07
3.45681e-07
-5.34664e-07
3.55664e-07
-5.89727e-07
3.63672e-07
-6.45471e-07
3.69759e-07
-7.01645e-07
3.73947e-07
-7.57991e-07
3.7623e-07
-8.14243e-07
3.76569e-07
-8.70125e-07
3.74904e-07
-9.2535e-07
3.71153e-07
-9.79616e-07
3.65223e-07
-1.03261e-06
3.57013e-07
-1.08401e-06
3.46421e-07
-1.13348e-06
3.33354e-07
-1.18067e-06
3.17731e-07
-1.22524e-06
2.99491e-07
-1.26684e-06
2.786e-07
-1.30512e-06
2.5505e-07
-1.33973e-06
2.28871e-07
-1.37034e-06
2.0013e-07
-1.39663e-06
1.68935e-07
-1.4183e-06
1.35435e-07
-1.43506e-06
9.98255e-08
-1.44668e-06
6.23449e-08
-1.45291e-06
2.32756e-08
-1.45359e-06
-1.7057e-08
-1.44857e-06
-5.8287e-08
-1.43775e-06
-1.00011e-07
-1.42109e-06
-1.41793e-07
-1.39858e-06
-1.83168e-07
-1.37031e-06
-2.23648e-07
-1.33638e-06
-2.62729e-07
-1.297e-06
-2.99902e-07
-1.2524e-06
-3.34655e-07
-1.20292e-06
-3.66489e-07
-1.14894e-06
-3.94924e-07
-1.09091e-06
-4.19513e-07
-1.02933e-06
-4.39849e-07
-9.64785e-07
-4.55579e-07
-8.97888e-07
-4.66415e-07
-8.29304e-07
-4.72139e-07
-7.59732e-07
-4.7262e-07
-6.89893e-07
-4.67814e-07
-6.2052e-07
-4.57775e-07
-5.52342e-07
-4.42656e-07
-4.86074e-07
-4.22711e-07
-4.22396e-07
-3.98297e-07
-3.61945e-07
-3.69868e-07
-3.05294e-07
-3.37972e-07
-2.52943e-07
-3.03242e-07
-2.05305e-07
-2.66392e-07
-1.62694e-07
-2.28205e-07
-1.25319e-07
-1.89522e-07
-9.32715e-08
-1.51237e-07
-6.6527e-08
-1.14287e-07
-4.49367e-08
-7.96435e-08
-2.82283e-08
-4.83078e-08
-1.60061e-08
-2.13077e-08
-7.75212e-09
3.04823e-10
-2.82987e-09
1.54543e-08
-4.86252e-10
2.30398e-08
1.37681e-10
2.19365e-08
1.09695e-08
-4.35402e-09
2.0044e-08
-1.65012e-08
6.17192e-08
-3.55848e-08
1.03443e-07
-6.08151e-08
1.43979e-07
-9.14729e-08
1.82535e-07
-1.26908e-07
2.18583e-07
-1.66537e-07
2.51793e-07
-2.09836e-07
2.82002e-07
-2.56341e-07
3.09173e-07
-3.05633e-07
3.33355e-07
-3.57341e-07
3.54658e-07
-4.11125e-07
3.73221e-07
-4.66679e-07
3.89194e-07
-5.23716e-07
4.02717e-07
-5.81965e-07
4.13913e-07
-6.41165e-07
4.22872e-07
-7.01058e-07
4.29652e-07
-7.61385e-07
4.34275e-07
-8.21882e-07
4.36727e-07
-8.82276e-07
4.36963e-07
-9.42283e-07
4.3491e-07
-1.0016e-06
4.30475e-07
-1.05993e-06
4.2355e-07
-1.11694e-06
4.14021e-07
-1.17229e-06
4.01774e-07
-1.22564e-06
3.86705e-07
-1.27664e-06
3.68725e-07
-1.32491e-06
3.47767e-07
-1.37011e-06
3.23791e-07
-1.41185e-06
2.96794e-07
-1.44979e-06
2.66808e-07
-1.48357e-06
2.33909e-07
-1.51285e-06
1.98216e-07
-1.53731e-06
1.59897e-07
-1.55665e-06
1.19166e-07
-1.5706e-06
7.62892e-08
-1.5789e-06
3.15785e-08
-1.58135e-06
-1.46055e-08
-1.57778e-06
-6.18571e-08
-1.56806e-06
-1.09728e-07
-1.55212e-06
-1.57733e-07
-1.52994e-06
-2.05352e-07
-1.50155e-06
-2.5204e-07
-1.46705e-06
-2.9723e-07
-1.4266e-06
-3.40346e-07
-1.38045e-06
-3.80808e-07
-1.32889e-06
-4.18046e-07
-1.27231e-06
-4.51508e-07
-1.21115e-06
-4.80675e-07
-1.14592e-06
-5.05072e-07
-1.07722e-06
-5.2428e-07
-1.00569e-06
-5.3795e-07
-9.32014e-07
-5.45812e-07
-8.56943e-07
-5.47691e-07
-7.81247e-07
-5.43511e-07
-7.05717e-07
-5.33306e-07
-6.31147e-07
-5.17226e-07
-5.58323e-07
-4.95535e-07
-4.88003e-07
-4.68618e-07
-4.20899e-07
-4.36972e-07
-3.57664e-07
-4.01207e-07
-2.98875e-07
-3.62031e-07
-2.45018e-07
-3.20249e-07
-1.96477e-07
-2.76746e-07
-1.53523e-07
-2.32476e-07
-1.16304e-07
-1.88456e-07
-8.48417e-08
-1.4575e-07
-5.90266e-08
-1.05459e-07
-3.86169e-08
-6.87175e-08
-2.3239e-08
-3.66856e-08
-1.23902e-08
-1.0544e-08
-5.44316e-09
8.5073e-09
-1.65002e-09
1.92467e-08
-1.54047e-10
2.04405e-08
1.08154e-08
-4.82818e-09
2.48722e-08
-1.82382e-08
7.51293e-08
-3.92286e-08
1.24433e-07
-6.68824e-08
1.71633e-07
-1.00372e-07
2.16024e-07
-1.38955e-07
2.57166e-07
-1.81973e-07
2.94811e-07
-2.28845e-07
3.28874e-07
-2.79059e-07
3.59386e-07
-3.32162e-07
3.86458e-07
-3.87755e-07
4.10251e-07
-4.45482e-07
4.30948e-07
-5.05022e-07
4.48733e-07
-5.66078e-07
4.63774e-07
-6.28374e-07
4.76209e-07
-6.91642e-07
4.8614e-07
-7.5562e-07
4.9363e-07
-8.20046e-07
4.987e-07
-8.84649e-07
5.0133e-07
-9.49152e-07
5.01466e-07
-1.01326e-06
4.99023e-07
-1.07668e-06
4.93894e-07
-1.13909e-06
4.85957e-07
-1.20015e-06
4.75084e-07
-1.25953e-06
4.61149e-07
-1.31686e-06
4.44035e-07
-1.37178e-06
4.23644e-07
-1.42391e-06
3.999e-07
-1.47288e-06
3.72763e-07
-1.51831e-06
3.42226e-07
-1.55983e-06
3.08325e-07
-1.59706e-06
2.71141e-07
-1.62965e-06
2.30805e-07
-1.65725e-06
1.87498e-07
-1.67954e-06
1.41456e-07
-1.69622e-06
9.29656e-08
-1.70701e-06
4.23678e-08
-1.71167e-06
-9.94377e-09
-1.71e-06
-6.35253e-08
-1.70184e-06
-1.17886e-07
-1.68709e-06
-1.7249e-07
-1.66567e-06
-2.26766e-07
-1.6376e-06
-2.80108e-07
-1.60295e-06
-3.31887e-07
-1.56184e-06
-3.81456e-07
-1.51448e-06
-4.28164e-07
-1.46116e-06
-4.71364e-07
-1.40224e-06
-5.10427e-07
-1.33816e-06
-5.44755e-07
-1.26944e-06
-5.73794e-07
-1.19667e-06
-5.97052e-07
-1.12051e-06
-6.14107e-07
-1.0417e-06
-6.24628e-07
-9.61004e-07
-6.28384e-07
-8.79257e-07
-6.25257e-07
-7.9731e-07
-6.15253e-07
-7.16029e-07
-5.98507e-07
-6.36277e-07
-5.75287e-07
-5.58894e-07
-5.46e-07
-4.84682e-07
-5.11185e-07
-4.14381e-07
-4.71507e-07
-3.48658e-07
-4.27755e-07
-2.88082e-07
-3.80825e-07
-2.33117e-07
-3.3171e-07
-1.84108e-07
-2.81485e-07
-1.41268e-07
-2.31296e-07
-1.04674e-07
-1.82344e-07
-7.42629e-08
-1.3587e-07
-4.98284e-08
-9.3152e-08
-3.10238e-08
-5.54902e-08
-1.73642e-08
-2.42036e-08
-8.23203e-09
-6.24883e-10
-2.88402e-09
1.38987e-08
-4.60097e-10
1.80165e-08
1.03553e-08
-5.28999e-09
3.01622e-08
-1.99297e-08
8.9769e-08
-4.2777e-08
1.4728e-07
-7.27916e-08
2.01647e-07
-1.0904e-07
2.52272e-07
-1.50691e-07
2.98817e-07
-1.97015e-07
3.41135e-07
-2.47371e-07
3.79231e-07
-3.01203e-07
4.13218e-07
-3.58025e-07
4.43279e-07
-4.17412e-07
4.69638e-07
-4.7899e-07
4.92526e-07
-5.42426e-07
5.12169e-07
-6.07415e-07
5.28763e-07
-6.73674e-07
5.42468e-07
-7.40933e-07
5.53399e-07
-8.08928e-07
5.61625e-07
-8.77391e-07
5.67164e-07
-9.46053e-07
5.69991e-07
-1.01463e-06
5.70044e-07
-1.08283e-06
5.67224e-07
-1.15035e-06
5.6141e-07
-1.21686e-06
5.52466e-07
-1.28202e-06
5.40249e-07
-1.34549e-06
5.24618e-07
-1.4069e-06
5.05443e-07
-1.46587e-06
4.82616e-07
-1.52202e-06
4.56053e-07
-1.57497e-06
4.25708e-07
-1.62431e-06
3.91571e-07
-1.66967e-06
3.53679e-07
-1.71064e-06
3.12117e-07
-1.74687e-06
2.67025e-07
-1.77796e-06
2.18596e-07
-1.80359e-06
1.67079e-07
-1.8234e-06
1.12784e-07
-1.83711e-06
5.6076e-08
-1.84443e-06
-2.62049e-09
-1.84513e-06
-6.28265e-08
-1.83901e-06
-1.2401e-07
-1.82591e-06
-1.85588e-07
-1.80574e-06
-2.46936e-07
-1.77846e-06
-3.0739e-07
-1.74409e-06
-3.66253e-07
-1.70274e-06
-4.2281e-07
-1.65457e-06
-4.76333e-07
-1.59984e-06
-5.26093e-07
-1.53889e-06
-5.71378e-07
-1.47214e-06
-6.11504e-07
-1.40011e-06
-6.45829e-07
-1.32338e-06
-6.73775e-07
-1.24265e-06
-6.94839e-07
-1.15867e-06
-7.08614e-07
-1.07225e-06
-7.14803e-07
-9.84273e-07
-7.13232e-07
-8.9566e-07
-7.03867e-07
-8.07349e-07
-6.86817e-07
-7.20289e-07
-6.62347e-07
-6.35413e-07
-6.30877e-07
-5.53618e-07
-5.92979e-07
-4.75747e-07
-5.49379e-07
-4.02563e-07
-5.00939e-07
-3.34736e-07
-4.48652e-07
-2.72821e-07
-3.93624e-07
-2.17248e-07
-3.37059e-07
-1.68304e-07
-2.8024e-07
-1.26134e-07
-2.24514e-07
-9.07278e-08
-1.71276e-07
-6.19218e-08
-1.21958e-07
-3.94005e-08
-7.80115e-08
-2.26992e-08
-4.09049e-08
-1.12106e-08
-1.21134e-08
-4.19437e-09
6.8824e-09
-7.82203e-10
1.46044e-08
9.57313e-09
-5.73712e-09
3.58993e-08
-2.15668e-08
1.05599e-07
-4.62105e-08
1.71924e-07
-7.85093e-08
2.33946e-07
-1.17427e-07
2.9119e-07
-1.62049e-07
3.43439e-07
-2.11575e-07
3.9066e-07
-2.65308e-07
4.32964e-07
-3.22648e-07
4.70558e-07
-3.83078e-07
5.03709e-07
-4.46148e-07
5.32708e-07
-5.11468e-07
5.57847e-07
-5.78694e-07
5.79395e-07
-6.47514e-07
5.97583e-07
-7.17642e-07
6.12595e-07
-7.88804e-07
6.24562e-07
-8.60735e-07
6.33555e-07
-9.33168e-07
6.39597e-07
-1.00583e-06
6.42655e-07
-1.07844e-06
6.42656e-07
-1.15071e-06
6.39489e-07
-1.22232e-06
6.3302e-07
-1.29295e-06
6.23096e-07
-1.36226e-06
6.09556e-07
-1.42988e-06
5.92247e-07
-1.49547e-06
5.71024e-07
-1.55862e-06
5.45767e-07
-1.61895e-06
5.16382e-07
-1.67605e-06
4.82814e-07
-1.72953e-06
4.4505e-07
-1.77898e-06
4.03126e-07
-1.82399e-06
3.57127e-07
-1.86416e-06
3.07198e-07
-1.8991e-06
2.5354e-07
-1.92844e-06
1.96416e-07
-1.95181e-06
1.36153e-07
-1.96887e-06
7.31368e-08
-1.97931e-06
7.81918e-09
-1.98285e-06
-5.92883e-08
-1.97924e-06
-1.27615e-07
-1.9683e-06
-1.96534e-07
-1.94987e-06
-2.65368e-07
-1.92386e-06
-3.33394e-07
-1.89026e-06
-3.99851e-07
-1.84912e-06
-4.6395e-07
-1.80057e-06
-5.24884e-07
-1.74483e-06
-5.81839e-07
-1.68219e-06
-6.34012e-07
-1.61307e-06
-6.80624e-07
-1.53796e-06
-7.20938e-07
-1.45746e-06