/*--------------------------------*- C++ -*----------------------------------*\
  =========                 |
  \\      /  F ield         | OpenFOAM: The Open Source CFD Toolbox
   \\    /   O peration     | Website:  https://openfoam.org
    \\  /    A nd           | Version:  12
     \\/     M anipulation  |
\*---------------------------------------------------------------------------*/
FoamFile
{
    format      ascii;
    class       volVectorField;
    location    "1";
    object      U;
}
// * * * * * * * * * * * * * * * * * * * * * * * * * * * * * * * * * * * * * //

dimensions      [0 1 -1 0 0 0 0];

internalField   nonuniform List<vector> 
5625
(
(1.2311e-05 -7.87886e-06 0)
(4.5425e-05 -1.11924e-05 0)
(7.84116e-05 -1.07419e-05 0)
(9.26725e-05 -6.46416e-06 0)
(8.09725e-05 -1.37131e-06 0)
(3.91299e-05 3.90122e-06 0)
(-3.24059e-05 8.85235e-06 0)
(-0.000131608 1.32486e-05 0)
(-0.000255708 1.70223e-05 0)
(-0.00040168 2.01921e-05 0)
(-0.000566539 2.28181e-05 0)
(-0.000747511 2.49771e-05 0)
(-0.00094211 2.6748e-05 0)
(-0.00114816 2.82037e-05 0)
(-0.00136376 2.94074e-05 0)
(-0.0015873 3.04104e-05 0)
(-0.00181734 3.12514e-05 0)
(-0.00205263 3.1957e-05 0)
(-0.00229198 3.2542e-05 0)
(-0.00253428 3.30107e-05 0)
(-0.00277838 3.3358e-05 0)
(-0.00302309 3.35712e-05 0)
(-0.00326716 3.36309e-05 0)
(-0.00350918 3.3513e-05 0)
(-0.00374763 3.31899e-05 0)
(-0.00398085 3.26321e-05 0)
(-0.004207 3.18095e-05 0)
(-0.00442412 3.06929e-05 0)
(-0.0046301 2.92552e-05 0)
(-0.00482272 2.74727e-05 0)
(-0.00499969 2.53265e-05 0)
(-0.00515865 2.28034e-05 0)
(-0.00529723 1.98972e-05 0)
(-0.0054131 1.66089e-05 0)
(-0.005504 1.29426e-05 0)
(-0.00556788 8.92455e-06 0)
(-0.00560272 4.60464e-06 0)
(-0.00560704 -1.49943e-08 0)
(-0.00557935 -4.8601e-06 0)
(-0.00551872 -9.876e-06 0)
(-0.0054246 -1.49919e-05 0)
(-0.00529689 -2.01278e-05 0)
(-0.00513601 -2.51979e-05 0)
(-0.00494288 -3.0111e-05 0)
(-0.00471902 -3.47722e-05 0)
(-0.00446646 -3.90862e-05 0)
(-0.0041878 -4.29593e-05 0)
(-0.00388615 -4.63029e-05 0)
(-0.00356512 -4.90357e-05 0)
(-0.00322874 -5.10868e-05 0)
(-0.00288141 -5.23985e-05 0)
(-0.00252779 -5.29281e-05 0)
(-0.00217275 -5.26498e-05 0)
(-0.00182126 -5.15562e-05 0)
(-0.00147827 -4.96585e-05 0)
(-0.00114861 -4.69863e-05 0)
(-0.000836885 -4.35874e-05 0)
(-0.000547395 -3.95256e-05 0)
(-0.000284008 -3.48794e-05 0)
(-5.00958e-05 -2.97398e-05 0)
(0.000151545 -2.42079e-05 0)
(0.000318759 -1.83913e-05 0)
(0.000450085 -1.24064e-05 0)
(0.000544807 -6.36739e-06 0)
(0.000603 -4.04017e-07 0)
(0.000625605 5.3433e-06 0)
(0.000614489 1.07185e-05 0)
(0.000572571 1.554e-05 0)
(0.000503971 1.95634e-05 0)
(0.000414302 2.24546e-05 0)
(0.000310983 2.37477e-05 0)
(0.000203726 2.28034e-05 0)
(0.000105415 1.87217e-05 0)
(3.28657e-05 1.03288e-05 0)
(-2.71538e-07 -2.65083e-07 0)
(1.80056e-05 -4.69218e-05 0)
(7.12746e-05 -6.41759e-05 0)
(0.000102245 -4.17961e-05 0)
(8.43772e-05 4.51586e-06 0)
(-9.86284e-07 6.08769e-05 0)
(-0.000160732 0.000119642 0)
(-0.000394912 0.000176322 0)
(-0.000699791 0.000228523 0)
(-0.00106953 0.000275172 0)
(-0.00149735 0.000315994 0)
(-0.0019762 0.000351187 0)
(-0.00249931 0.000381192 0)
(-0.00306033 0.00040656 0)
(-0.00365354 0.000427856 0)
(-0.00427377 0.000445604 0)
(-0.00491642 0.000460251 0)
(-0.00557734 0.000472147 0)
(-0.00625272 0.000481535 0)
(-0.00693896 0.00048855 0)
(-0.00763254 0.000493228 0)
(-0.00832995 0.000495512 0)
(-0.00902752 0.000495265 0)
(-0.00972138 0.00049229 0)
(-0.0104074 0.000486338 0)
(-0.011081 0.000477131 0)
(-0.0117375 0.000464376 0)
(-0.0123716 0.000447781 0)
(-0.0129778 0.000427075 0)
(-0.0135503 0.000402019 0)
(-0.014083 0.000372421 0)
(-0.0145697 0.000338155 0)
(-0.0150041 0.000299166 0)
(-0.0153799 0.000255487 0)
(-0.0156911 0.000207245 0)
(-0.0159317 0.000154659 0)
(-0.0160966 9.80317e-05 0)
(-0.0161805 3.80967e-05 0)
(-0.01618 -2.49749e-05 0)
(-0.0160914 -9.02854e-05 0)
(-0.0159125 -0.000157076 0)
(-0.0156423 -0.000224467 0)
(-0.0152809 -0.000291489 0)
(-0.0148298 -0.000357111 0)
(-0.0142917 -0.000420256 0)
(-0.0136709 -0.000479825 0)
(-0.012973 -0.000534724 0)
(-0.0122051 -0.000583893 0)
(-0.0113755 -0.000626335 0)
(-0.0104939 -0.000661142 0)
(-0.00957097 -0.00068753 0)
(-0.00861821 -0.00070486 0)
(-0.00764794 -0.000712663 0)
(-0.00667296 -0.000710654 0)
(-0.00570627 -0.000698755 0)
(-0.00476086 -0.00067709 0)
(-0.00384943 -0.000645997 0)
(-0.00298412 -0.000606015 0)
(-0.00217623 -0.000557878 0)
(-0.00143602 -0.000502499 0)
(-0.000772449 -0.00044095 0)
(-0.000192989 -0.000374445 0)
(0.000296572 -0.000304319 0)
(0.000692286 -0.000232011 0)
(0.0009922 -0.000159075 0)
(0.00119651 -8.7173e-05 0)
(0.00130769 -1.80956e-05 0)
(0.0013307 4.61825e-05 0)
(0.00127328 0.000103402 0)
(0.00114615 0.00015095 0)
(0.000963532 0.000185629 0)
(0.000743538 0.000203581 0)
(0.000508607 0.000200179 0)
(0.000286375 0.000170371 0)
(0.000110988 0.000111198 0)
(1.0154e-05 3.27118e-05 0)
(1.47018e-05 -8.26324e-05 0)
(4.69954e-05 -9.89611e-05 0)
(3.09853e-05 -2.58791e-05 0)
(-6.60144e-05 9.56658e-05 0)
(-0.000264098 0.000240041 0)
(-0.000571218 0.000390766 0)
(-0.000987638 0.000537528 0)
(-0.00150867 0.000674359 0)
(-0.00212665 0.00079822 0)
(-0.00283237 0.000907987 0)
(-0.00361605 0.00100372 0)
(-0.00446795 0.00108618 0)
(-0.00537881 0.00115647 0)
(-0.00634 0.00121581 0)
(-0.00734361 0.00126536 0)
(-0.00838239 0.00130615 0)
(-0.00944967 0.00133899 0)
(-0.0105392 0.00136444 0)
(-0.011645 0.00138282 0)
(-0.0127611 0.00139419 0)
(-0.0138817 0.0013984 0)
(-0.0150006 0.0013951 0)
(-0.0161113 0.0013838 0)
(-0.017207 0.00136386 0)
(-0.0182804 0.0013346 0)
(-0.0193237 0.0012953 0)
(-0.0203286 0.00124525 0)
(-0.0212863 0.00118382 0)
(-0.0221878 0.00111043 0)
(-0.0230237 0.00102468 0)
(-0.0237843 0.00092632 0)
(-0.02446 0.000815308 0)
(-0.0250414 0.000691831 0)
(-0.0255193 0.000556328 0)
(-0.0258851 0.000409508 0)
(-0.0261309 0.000252358 0)
(-0.0262497 8.62702e-05 0)
(-0.0262356 -8.72472e-05 0)
(-0.0260841 -0.000266344 0)
(-0.0257924 -0.00044887 0)
(-0.025359 -0.000632454 0)
(-0.0247846 -0.000814528 0)
(-0.0240719 -0.000992369 0)
(-0.0232253 -0.00116315 0)
(-0.0222515 -0.00132402 0)
(-0.0211595 -0.00147212 0)
(-0.01996 -0.00160471 0)
(-0.0186658 -0.00171922 0)
(-0.0172915 -0.00181332 0)
(-0.0158531 -0.00188499 0)
(-0.0143682 -0.00193258 0)
(-0.0128552 -0.00195488 0)
(-0.0113333 -0.00195118 0)
(-0.00982219 -0.00192125 0)
(-0.00834125 -0.00186543 0)
(-0.00690966 -0.00178456 0)
(-0.00554573 -0.00168005 0)
(-0.00426656 -0.00155379 0)
(-0.00308772 -0.00140818 0)
(-0.00202289 -0.001246 0)
(-0.0010835 -0.00107048 0)
(-0.0002785 -0.000885147 0)
(0.000385945 -0.000693872 0)
(0.000906664 -0.000500803 0)
(0.00128373 -0.000310416 0)
(0.0015207 -0.00012751 0)
(0.00162484 4.26604e-05 0)
(0.00160743 0.000194271 0)
(0.00148406 0.000320772 0)
(0.00127505 0.000414641 0)
(0.00100567 0.000467299 0)
(0.000706253 0.000469238 0)
(0.000413004 0.000410953 0)
(0.000170833 0.000286557 0)
(1.84414e-05 0.000104901 0)
(9.30239e-06 -0.000101735 0)
(-2.63107e-06 -8.29747e-05 0)
(-9.8054e-05 7.14134e-05 0)
(-0.000307468 0.000300443 0)
(-0.000648461 0.000565643 0)
(-0.00112796 0.000841198 0)
(-0.00174538 0.00111027 0)
(-0.00249493 0.00136264 0)
(-0.00336746 0.00159271 0)
(-0.00435198 0.00179811 0)
(-0.00543664 0.00197853 0)
(-0.00660951 0.0021349 0)
(-0.00785905 0.00226888 0)
(-0.0091743 0.00238236 0)
(-0.0105451 0.00247723 0)
(-0.0119618 0.00255516 0)
(-0.0134155 0.00261748 0)
(-0.0148977 0.00266513 0)
(-0.0164002 0.00269859 0)
(-0.0179148 0.00271794 0)
(-0.0194333 0.00272288 0)
(-0.020947 0.00271277 0)
(-0.0224471 0.00268671 0)
(-0.0239241 0.00264357 0)
(-0.025368 0.00258216 0)
(-0.0267684 0.0025012 0)
(-0.0281141 0.00239948 0)
(-0.0293934 0.0022759 0)
(-0.0305943 0.00212954 0)
(-0.0317045 0.00195977 0)
(-0.0327115 0.00176625 0)
(-0.0336029 0.00154905 0)
(-0.0343665 0.00130865 0)
(-0.0349908 0.00104602 0)
(-0.0354649 0.000762615 0)
(-0.0357788 0.000460423 0)
(-0.035924 0.00014201 0)
(-0.0358932 -0.000189627 0)
(-0.0356813 -0.000530961 0)
(-0.0352847 -0.000877975 0)
(-0.0347023 -0.00122625 0)
(-0.0339354 -0.001571 0)
(-0.0329875 -0.00190722 0)
(-0.0318649 -0.0022297 0)
(-0.0305766 -0.0025332 0)
(-0.0291339 -0.00281251 0)
(-0.027551 -0.00306263 0)
(-0.0258443 -0.00327887 0)
(-0.0240323 -0.003457 0)
(-0.0221358 -0.00359334 0)
(-0.020177 -0.00368489 0)
(-0.0181794 -0.00372946 0)
(-0.0161676 -0.00372571 0)
(-0.0141664 -0.00367323 0)
(-0.0122009 -0.00357259 0)
(-0.0102955 -0.00342534 0)
(-0.00847358 -0.003234 0)
(-0.00675724 -0.00300202 0)
(-0.00516656 -0.00273375 0)
(-0.0037193 -0.00243437 0)
(-0.00243041 -0.00210976 0)
(-0.0013117 -0.00176651 0)
(-0.000371459 -0.00141179 0)
(0.000385811 -0.00105337 0)
(0.000959748 -0.000699569 0)
(0.00135439 -0.000359315 0)
(0.00157843 -4.22613e-05 0)
(0.00164549 0.000241058 0)
(0.00157446 0.000479096 0)
(0.00138967 0.000659023 0)
(0.00112103 0.000766777 0)
(0.000804007 0.000787336 0)
(0.000480613 0.000705928 0)
(0.000204036 0.000511336 0)
(2.26801e-05 0.00020364 0)
(2.87501e-06 -8.99072e-05 0)
(-6.61801e-05 7.08329e-06 0)
(-0.000260773 0.000278155 0)
(-0.000605557 0.00064604 0)
(-0.00111205 0.00106088 0)
(-0.00178405 0.00148834 0)
(-0.00261891 0.00190538 0)
(-0.00360908 0.00229749 0)
(-0.00474379 0.00265644 0)
(-0.00601037 0.00297842 0)
(-0.0073953 0.00326258 0)
(-0.00888488 0.00350997 0)
(-0.0104657 0.00372268 0)
(-0.0121249 0.00390326 0)
(-0.0138504 0.00405429 0)
(-0.0156307 0.00417809 0)
(-0.0174547 0.00427648 0)
(-0.0193121 0.00435074 0)
(-0.0211925 0.00440151 0)
(-0.0230855 0.00442882 0)
(-0.0249807 0.00443217 0)
(-0.0268674 0.00441053 0)
(-0.0287342 0.00436253 0)
(-0.0305693 0.00428649 0)
(-0.0323602 0.00418058 0)
(-0.0340939 0.00404294 0)
(-0.0357566 0.0038718 0)
(-0.0373341 0.00366558 0)
(-0.0388118 0.00342302 0)
(-0.0401748 0.00314329 0)
(-0.0414081 0.00282606 0)
(-0.0424969 0.00247162 0)
(-0.0434269 0.00208092 0)
(-0.0441844 0.00165567 0)
(-0.0447567 0.0011983 0)
(-0.0451324 0.000712111 0)
(-0.0453014 0.000201173 0)
(-0.0452559 -0.000329668 0)
(-0.0449897 -0.000874807 0)
(-0.0444994 -0.00142793 0)
(-0.0437839 -0.00198213 0)
(-0.0428451 -0.00252996 0)
(-0.0416874 -0.00306364 0)
(-0.0403187 -0.00357512 0)
(-0.0387497 -0.0040563 0)
(-0.0369941 -0.00449919 0)
(-0.0350685 -0.00489609 0)
(-0.0329924 -0.00523981 0)
(-0.0307878 -0.00552382 0)
(-0.0284791 -0.00574248 0)
(-0.0260924 -0.00589119 0)
(-0.0236555 -0.00596653 0)
(-0.0211974 -0.00596641 0)
(-0.0187473 -0.00589016 0)
(-0.0163349 -0.00573859 0)
(-0.0139891 -0.00551402 0)
(-0.0117378 -0.00522026 0)
(-0.00960739 -0.00486261 0)
(-0.0076219 -0.00444772 0)
(-0.00580277 -0.00398356 0)
(-0.00416823 -0.00347925 0)
(-0.00273283 -0.00294501 0)
(-0.00150702 -0.00239204 0)
(-0.000496809 -0.00183244 0)
(0.0002966 -0.00127916 0)
(0.00087714 -0.000746107 0)
(0.00125412 -0.00024813 0)
(0.00144251 0.000198792 0)
(0.00146313 0.000577375 0)
(0.00134287 0.000868962 0)
(0.00111468 0.00105346 0)
(0.000817529 0.00110977 0)
(0.000497767 0.00101681 0)
(0.000214713 0.000755686 0)
(2.41724e-05 0.000313841 0)
(-3.69422e-06 -4.35108e-05 0)
(-0.000136766 0.000183708 0)
(-0.000442812 0.000611696 0)
(-0.000938468 0.00115147 0)
(-0.00162676 0.00174417 0)
(-0.00250672 0.00234843 0)
(-0.00357242 0.00293585 0)
(-0.00481381 0.00348818 0)
(-0.00621807 0.00399476 0)
(-0.00777079 0.00445045 0)
(-0.00945682 0.00485389 0)
(-0.0112609 0.00520618 0)
(-0.013168 0.00550984 0)
(-0.0151639 0.00576801 0)
(-0.0172346 0.00598391 0)
(-0.019367 0.00616045 0)
(-0.0215484 0.00629992 0)
(-0.0237666 0.00640384 0)
(-0.0260093 0.00647297 0)
(-0.0282643 0.00650723 0)
(-0.0305192 0.00650581 0)
(-0.0327609 0.00646727 0)
(-0.0349761 0.00638966 0)
(-0.0371507 0.00627069 0)
(-0.03927 0.00610786 0)
(-0.0413186 0.00589868 0)
(-0.0432804 0.0056408 0)
(-0.0451388 0.00533217 0)
(-0.0468769 0.00497124 0)
(-0.0484776 0.00455703 0)
(-0.0499238 0.00408934 0)
(-0.0511986 0.0035688 0)
(-0.0522857 0.00299701 0)
(-0.0531698 0.00237658 0)
(-0.0538367 0.00171121 0)
(-0.0542736 0.00100569 0)
(-0.0544695 0.000265956 0)
(-0.0544156 -0.000501024 0)
(-0.0541056 -0.00128724 0)
(-0.0535356 -0.00208373 0)
(-0.0527048 -0.00288074 0)
(-0.0516153 -0.00366781 0)
(-0.0502728 -0.00443399 0)
(-0.0486859 -0.00516805 0)
(-0.0468669 -0.00585867 0)
(-0.0448313 -0.00649469 0)
(-0.0425978 -0.0070654 0)
(-0.0401885 -0.00756074 0)
(-0.037628 -0.00797163 0)
(-0.0349437 -0.00829017 0)
(-0.0321651 -0.0085099 0)
(-0.0293234 -0.00862598 0)
(-0.0264513 -0.00863543 0)
(-0.0235821 -0.00853719 0)
(-0.0207492 -0.00833228 0)
(-0.0179855 -0.00802382 0)
(-0.0153231 -0.00761702 0)
(-0.012792 -0.00711914 0)
(-0.0104201 -0.00653941 0)
(-0.00823224 -0.00588892 0)
(-0.00624988 -0.00518043 0)
(-0.0044903 -0.00442827 0)
(-0.00296625 -0.00364818 0)
(-0.00168555 -0.00285719 0)
(-0.000650628 -0.00207354 0)
(0.000141784 -0.00131669 0)
(0.000700914 -0.000607334 0)
(0.00104221 3.2496e-05 0)
(0.0011875 0.000579307 0)
(0.00116512 0.00100807 0)
(0.00101 0.00129222 0)
(0.000763564 0.00140397 0)
(0.000475297 0.00131494 0)
(0.000208539 0.000997247 0)
(2.38954e-05 0.00042482 0)
(-1.02037e-05 3.96884e-05 0)
(-0.000210768 0.000453869 0)
(-0.000635611 0.00108279 0)
(-0.00129222 0.00182961 0)
(-0.00217363 0.00262894 0)
(-0.00327282 0.00343413 0)
(-0.00457964 0.00421266 0)
(-0.00608077 0.00494334 0)
(-0.00776089 0.00561363 0)
(-0.00960359 0.00621737 0)
(-0.011592 0.00675287 0)
(-0.0137094 0.00722136 0)
(-0.0159395 0.00762579 0)
(-0.0182663 0.00796991 0)
(-0.0206748 0.00825754 0)
(-0.0231503 0.00849209 0)
(-0.0256787 0.00867624 0)
(-0.0282461 0.00881174 0)
(-0.0308386 0.00889934 0)
(-0.0334423 0.00893876 0)
(-0.0360428 0.00892884 0)
(-0.0386254 0.00886763 0)
(-0.0411747 0.00875254 0)
(-0.0436746 0.0085806 0)
(-0.0461082 0.00834864 0)
(-0.0484581 0.00805349 0)
(-0.0507061 0.00769223 0)
(-0.0528335 0.00726238 0)
(-0.0548215 0.00676211 0)
(-0.0566507 0.00619043 0)
(-0.0583024 0.00554731 0)
(-0.0597578 0.0048339 0)
(-0.060999 0.00405256 0)
(-0.0620092 0.00320702 0)
(-0.0627727 0.0023024 0)
(-0.0632758 0.00134527 0)
(-0.0635066 0.000343615 0)
(-0.0634554 -0.00069321 0)
(-0.0631155 -0.00175452 0)
(-0.0624828 -0.00282845 0)
(-0.0615564 -0.0039021 0)
(-0.0603389 -0.00496169 0)
(-0.0588362 -0.00599285 0)
(-0.0570579 -0.00698083 0)
(-0.0550173 -0.0079108 0)
(-0.0527312 -0.00876815 0)
(-0.0502202 -0.00953883 0)
(-0.0475079 -0.0102097 0)
(-0.0446215 -0.0107687 0)
(-0.0415906 -0.0112055 0)
(-0.0384475 -0.0115116 0)
(-0.0352266 -0.0116804 0)
(-0.0319636 -0.0117079 0)
(-0.0286953 -0.0115925 0)
(-0.0254585 -0.0113354 0)
(-0.0222901 -0.0109403 0)
(-0.0192256 -0.010414 0)
(-0.0162988 -0.00976575 0)
(-0.0135412 -0.00900754 0)
(-0.0109812 -0.00815379 0)
(-0.00864326 -0.00722122 0)
(-0.00654764 -0.00622863 0)
(-0.00470966 -0.00519673 0)
(-0.00313925 -0.00414797 0)
(-0.0018405 -0.00310638 0)
(-0.000811328 -0.0020975 0)
(-4.31932e-05 -0.00114838 0)
(0.000479141 -0.000287604 0)
(0.000777763 0.000454665 0)
(0.000881731 0.00104658 0)
(0.000827101 0.00145464 0)
(0.000656942 0.00164379 0)
(0.000422859 0.00157776 0)
(0.000190292 0.00121919 0)
(2.25123e-05 0.000529265 0)
(-1.6595e-05 0.000160641 0)
(-0.000286261 0.000821421 0)
(-0.000834004 0.00169804 0)
(-0.00165776 0.0026889 0)
(-0.0027397 0.00372444 0)
(-0.0040659 0.00475453 0)
(-0.00562117 0.00574394 0)
(-0.00738833 0.00666956 0)
(-0.0093491 0.00751771 0)
(-0.0114848 0.00828171 0)
(-0.0137767 0.00895985 0)
(-0.0162066 0.00955371 0)
(-0.0187568 0.0100668 0)
(-0.0214102 0.0105034 0)
(-0.0241505 0.010868 0)
(-0.0269618 0.0111644 0)
(-0.0298287 0.0113957 0)
(-0.0327358 0.0115638 0)
(-0.0356681 0.0116692 0)
(-0.0386098 0.0117115 0)
(-0.0415452 0.011689 0)
(-0.0444577 0.0115993 0)
(-0.0473302 0.0114389 0)
(-0.0501448 0.0112043 0)
(-0.0528828 0.0108915 0)
(-0.0555248 0.0104967 0)
(-0.0580508 0.0100164 0)
(-0.0604403 0.00944773 0)
(-0.0626726 0.00878865 0)
(-0.0647266 0.00803818 0)
(-0.0665818 0.00719663 0)
(-0.068218 0.00626571 0)
(-0.0696158 0.00524873 0)
(-0.070757 0.00415066 0)
(-0.0716247 0.00297822 0)
(-0.072204 0.00173991 0)
(-0.0724822 0.00044595 0)
(-0.072449 -0.000891703 0)
(-0.0720969 -0.00225951 0)
(-0.0714213 -0.00364246 0)
(-0.0704214 -0.00502431 0)
(-0.0690995 -0.00638774 0)
(-0.0674618 -0.0077147 0)
(-0.0655183 -0.00898669 0)
(-0.0632829 -0.0101851 0)
(-0.0607735 -0.0112916 0)
(-0.0580115 -0.0122886 0)
(-0.0550222 -0.0131594 0)
(-0.0518344 -0.013889 0)
(-0.0484798 -0.0144641 0)
(-0.044993 -0.0148739 0)
(-0.041411 -0.0151099 0)
(-0.0377723 -0.0151668 0)
(-0.0341169 -0.0150423 0)
(-0.030485 -0.0147375 0)
(-0.0269168 -0.0142569 0)
(-0.0234515 -0.0136084 0)
(-0.0201267 -0.0128035 0)
(-0.0169774 -0.0118571 0)
(-0.0140355 -0.0107869 0)
(-0.011329 -0.00961395 0)
(-0.00888122 -0.0083618 0)
(-0.00671043 -0.00705648 0)
(-0.00482901 -0.00572624 0)
(-0.00324317 -0.00440133 0)
(-0.00195251 -0.00311385 0)
(-0.000949692 -0.00189766 0)
(-0.000220274 -0.000788322 0)
(0.000257501 0.000176855 0)
(0.000512788 0.000958795 0)
(0.00058217 0.00151661 0)
(0.000509673 0.00180759 0)
(0.000348117 0.00178721 0)
(0.000163574 0.00140881 0)
(2.04881e-05 0.00062213 0)
(-2.28479e-05 0.000319623 0)
(-0.000362143 0.00128827 0)
(-0.0010348 0.00246119 0)
(-0.00202913 0.00373449 0)
(-0.00331599 0.0050366 0)
(-0.00487402 0.00631567 0)
(-0.00668243 0.00753523 0)
(-0.00871971 0.00867139 0)
(-0.0109642 0.0097102 0)
(-0.0133947 0.0106451 0)
(-0.0159905 0.0114748 0)
(-0.0187319 0.0122015 0)
(-0.0215997 0.0128295 0)
(-0.0245758 0.0133637 0)
(-0.0276429 0.0138092 0)
(-0.0307838 0.0141703 0)
(-0.0339822 0.0144504 0)
(-0.0372215 0.0146512 0)
(-0.0404854 0.0147734 0)
(-0.0437569 0.014816 0)
(-0.0470187 0.0147769 0)
(-0.050253 0.0146528 0)
(-0.0534409 0.0144398 0)
(-0.0565631 0.0141333 0)
(-0.0595991 0.0137288 0)
(-0.0625279 0.0132217 0)
(-0.0653279 0.012608 0)
(-0.067977 0.0118844 0)
(-0.0704526 0.0110487 0)
(-0.0727325 0.0101 0)
(-0.0747943 0.00903904 0)
(-0.0766165 0.00786821 0)
(-0.0781783 0.00659183 0)
(-0.0794603 0.00521624 0)
(-0.0804444 0.00374986 0)
(-0.0811146 0.00220324 0)
(-0.0814571 0.000588999 0)
(-0.0814609 -0.0010782 0)
(-0.0811175 -0.00278181 0)
(-0.080422 -0.00450353 0)
(-0.0793726 -0.00622359 0)
(-0.0779716 -0.00792096 0)
(-0.0762249 -0.00957373 0)
(-0.0741424 -0.0111594 0)
(-0.0717383 -0.0126554 0)
(-0.0690307 -0.0140395 0)
(-0.066042 -0.01529 0)
(-0.0627983 -0.0163867 0)
(-0.0593297 -0.0173111 0)
(-0.0556695 -0.0180469 0)
(-0.0518544 -0.0185804 0)
(-0.0479236 -0.0189012 0)
(-0.0439182 -0.0190021 0)
(-0.0398812 -0.01888 0)
(-0.035856 -0.0185356 0)
(-0.0318862 -0.0179739 0)
(-0.0280149 -0.0172042 0)
(-0.0242832 -0.01624 0)
(-0.02073 -0.0150988 0)
(-0.0173912 -0.0138022 0)
(-0.0142983 -0.0123754 0)
(-0.0114783 -0.0108471 0)
(-0.00895249 -0.00924886 0)
(-0.00673638 -0.00761512 0)
(-0.0048387 -0.00598275 0)
(-0.0032612 -0.00439084 0)
(-0.00199829 -0.00288047 0)
(-0.0010368 -0.00149465 0)
(-0.000355811 -0.000278253 0)
(7.34296e-05 0.000721994 0)
(0.000287511 0.00145743 0)
(0.000330861 0.00187737 0)
(0.000256769 0.00192897 0)
(0.000130937 0.00155657 0)
(1.81101e-05 0.000699963 0)
(-2.89685e-05 0.000516572 0)
(-0.000437787 0.00185507 0)
(-0.00123594 0.00337395 0)
(-0.00240223 0.00496906 0)
(-0.00389608 0.0065687 0)
(-0.00568831 0.00812103 0)
(-0.00775224 0.00958975 0)
(-0.0100616 0.0109514 0)
(-0.0125912 0.0121928 0)
(-0.015317 0.0133081 0)
(-0.0182162 0.0142971 0)
(-0.0212673 0.015163 0)
(-0.0244501 0.0159108 0)
(-0.0277453 0.0165466 0)
(-0.0311344 0.017076 0)
(-0.0345997 0.0175038 0)
(-0.0381237 0.0178335 0)
(-0.0416889 0.0180671 0)
(-0.0452779 0.0182046 0)
(-0.0488727 0.018245 0)
(-0.0524549 0.0181853 0)
(-0.0560051 0.0180216 0)
(-0.0595033 0.0177491 0)
(-0.0629287 0.0173626 0)
(-0.0662595 0.0168565 0)
(-0.0694733 0.0162257 0)
(-0.0725469 0.0154657 0)
(-0.0754568 0.0145727 0)
(-0.078179 0.0135444 0)
(-0.0806898 0.0123801 0)
(-0.0829655 0.011081 0)
(-0.0849833 0.00965008 0)
(-0.0867211 0.00809287 0)
(-0.088158 0.00641709 0)
(-0.089275 0.00463295 0)
(-0.0900548 0.00275312 0)
(-0.0904824 0.000792685 0)
(-0.0905457 -0.00123091 0)
(-0.0902353 -0.003298 0)
(-0.0895452 -0.00538692 0)
(-0.0884729 -0.00747425 0)
(-0.0870197 -0.00953512 0)
(-0.085191 -0.0115436 0)
(-0.0829962 -0.013473 0)
(-0.0804491 -0.0152965 0)
(-0.0775679 -0.0169877 0)
(-0.0743751 -0.0185208 0)
(-0.0708975 -0.0198715 0)
(-0.0671659 -0.0210176 0)
(-0.063215 -0.0219393 0)
(-0.059083 -0.0226198 0)
(-0.0548112 -0.0230462 0)
(-0.0504432 -0.0232093 0)
(-0.0460248 -0.0231047 0)
(-0.0416028 -0.0227325 0)
(-0.0372242 -0.022098 0)
(-0.0329359 -0.0212115 0)
(-0.0287831 -0.0200884 0)
(-0.0248089 -0.018749 0)
(-0.0210531 -0.0172186 0)
(-0.0175515 -0.0155269 0)
(-0.0143351 -0.0137075 0)
(-0.0114289 -0.0117983 0)
(-0.00885173 -0.0098399 0)
(-0.00661553 -0.00787636 0)
(-0.00472468 -0.0059541 0)
(-0.0031758 -0.0041219 0)
(-0.00195747 -0.00243066 0)
(-0.00105006 -0.000933231 0)
(-0.000425671 0.000315566 0)
(-4.81281e-05 0.00125894 0)
(0.000126943 0.001838 0)
(0.000152804 0.00199153 0)
(9.41134e-05 0.00165532 0)
(1.55662e-05 0.000760399 0)
(-3.49657e-05 0.000751207 0)
(-0.00051277 0.00252161 0)
(-0.001436 0.00443657 0)
(-0.00277412 0.00639337 0)
(-0.00447511 0.00832189 0)
(-0.0065019 0.0101719 0)
(-0.00882166 0.0119086 0)
(-0.0114032 0.0135104 0)
(-0.0142175 0.0149656 0)
(-0.0172375 0.0162701 0)
(-0.0204384 0.0174252 0)
(-0.0237969 0.0184355 0)
(-0.0272915 0.0193075 0)
(-0.0309019 0.0200481 0)
(-0.0346088 0.0206637 0)
(-0.0383935 0.0211596 0)
(-0.0422379 0.0215396 0)
(-0.0461238 0.0218055 0)
(-0.0500327 0.0219573 0)
(-0.0539458 0.021993 0)
(-0.0578436 0.0219092 0)
(-0.0617059 0.0217013 0)
(-0.0655115 0.0213635 0)
(-0.0692383 0.0208897 0)
(-0.0728635 0.0202736 0)
(-0.0763632 0.0195093 0)
(-0.079713 0.0185916 0)
(-0.0828882 0.0175167 0)
(-0.0858636 0.0162819 0)
(-0.0886141 0.0148868 0)
(-0.0911148 0.0133329 0)
(-0.0933414 0.0116241 0)
(-0.0952708 0.00976691 0)
(-0.0968807 0.00777056 0)
(-0.0981506 0.00564703 0)
(-0.0990622 0.00341113 0)
(-0.0995991 0.00108042 0)
(-0.0997477 -0.00132483 0)
(-0.0994974 -0.00378182 0)
(-0.0988407 -0.00626546 0)
(-0.0977741 -0.00874862 0)
(-0.0962975 -0.0112025 0)
(-0.0944151 -0.0135969 0)
(-0.0921355 -0.0159009 0)
(-0.0894717 -0.0180833 0)
(-0.0864414 -0.0201131 0)
(-0.0830666 -0.0219601 0)
(-0.0793744 -0.0235957 0)
(-0.0753959 -0.0249935 0)
(-0.0711669 -0.0261297 0)
(-0.0667268 -0.0269842 0)
(-0.0621188 -0.0275409 0)
(-0.057389 -0.0277884 0)
(-0.0525857 -0.0277204 0)
(-0.0477592 -0.0273362 0)
(-0.0429602 -0.0266408 0)
(-0.0382395 -0.0256454 0)
(-0.0336469 -0.024367 0)
(-0.0292298 -0.0228288 0)
(-0.0250328 -0.0210595 0)
(-0.0210962 -0.0190934 0)
(-0.0174555 -0.0169697 0)
(-0.0141401 -0.0147321 0)
(-0.0111729 -0.0124283 0)
(-0.00856926 -0.0101096 0)
(-0.00633689 -0.00783041 0)
(-0.00447511 -0.00564752 0)
(-0.00297472 -0.00362024 0)
(-0.00181782 -0.00180991 0)
(-0.000977732 -0.000279838 0)
(-0.000419072 0.000904678 0)
(-9.78841e-05 0.00167625 0)
(3.87846e-05 0.00196534 0)
(5.41883e-05 0.00169948 0)
(1.29501e-05 0.00080178 0)
(-4.08422e-05 0.00102309 0)
(-0.000586785 0.0032871 0)
(-0.00163387 0.00564822 0)
(-0.00314246 0.0080067 0)
(-0.00504921 0.0102955 0)
(-0.00730914 0.0124676 0)
(-0.00988321 0.0144911 0)
(-0.0127352 0.0163473 0)
(-0.0158322 0.0180271 0)
(-0.019144 0.019529 0)
(-0.0226436 0.0208565 0)
(-0.0263061 0.0220161 0)
(-0.0301087 0.0230158 0)
(-0.03403 0.0238639 0)
(-0.0380501 0.0245677 0)
(-0.0421495 0.025133 0)
(-0.0463095 0.0255638 0)
(-0.0505112 0.0258618 0)
(-0.0547356 0.0260267 0)
(-0.0589632 0.026056 0)
(-0.0631735 0.0259455 0)
(-0.0673456 0.0256895 0)
(-0.0714573 0.0252816 0)
(-0.0754856 0.0247146 0)
(-0.0794066 0.0239815 0)
(-0.0831954 0.0230755 0)
(-0.0868267 0.0219909 0)
(-0.0902745 0.0207235 0)
(-0.0935124 0.0192705 0)
(-0.0965142 0.0176316 0)
(-0.0992538 0.0158087 0)
(-0.101706 0.0138064 0)
(-0.103845 0.0116325 0)
(-0.105649 0.00929741 0)
(-0.107095 0.00681496 0)
(-0.108164 0.00420204 0)
(-0.108837 0.00147866 0)
(-0.109099 -0.00133213 0)
(-0.108939 -0.00420442 0)
(-0.108346 -0.00710968 0)
(-0.107316 -0.010017 0)
(-0.105846 -0.0128936 0)
(-0.10394 -0.015705 0)
(-0.101605 -0.0184159 0)
(-0.0988514 -0.0209903 0)
(-0.0956968 -0.0233924 0)
(-0.0921625 -0.0255875 0)
(-0.0882748 -0.027542 0)
(-0.0840652 -0.0292249 0)
(-0.0795698 -0.0306082 0)
(-0.0748292 -0.0316678 0)
(-0.0698881 -0.0323839 0)
(-0.0647949 -0.0327424 0)
(-0.0596009 -0.0327344 0)
(-0.0543594 -0.032358 0)
(-0.0491252 -0.0316177 0)
(-0.0439536 -0.0305248 0)
(-0.0388988 -0.0290981 0)
(-0.0340135 -0.0273631 0)
(-0.0293473 -0.0253521 0)
(-0.0249458 -0.023104 0)
(-0.0208496 -0.0206635 0)
(-0.0170932 -0.0180807 0)
(-0.0137039 -0.0154106 0)
(-0.0107015 -0.0127122 0)
(-0.00809744 -0.0100481 0)
(-0.00589432 -0.0074839 0)
(-0.00408565 -0.00508778 0)
(-0.00265567 -0.00293007 0)
(-0.0015793 -0.00108307 0)
(-0.00082227 0.000379037 0)
(-0.000341249 0.00138012 0)
(-8.38709e-05 0.00184205 0)
(1.17516e-05 0.00168442 0)
(1.03219e-05 0.000822848 0)
(-4.66011e-05 0.00133164 0)
(-0.000659545 0.00415021 0)
(-0.0018286 0.00700714 0)
(-0.00350524 0.00980703 0)
(-0.00561502 0.0124875 0)
(-0.00810513 0.0150059 0)
(-0.0109303 0.0173348 0)
(-0.0140494 0.0194594 0)
(-0.0174253 0.0213744 0)
(-0.0210251 0.0230816 0)
(-0.0248193 0.0245873 0)
(-0.0287813 0.0259006 0)
(-0.0328871 0.0270314 0)
(-0.0371145 0.0279894 0)
(-0.0414427 0.0287832 0)
(-0.0458519 0.0294191 0)
(-0.0503228 0.0299014 0)
(-0.054836 0.0302317 0)
(-0.059372 0.0304092 0)
(-0.0639106 0.0304309 0)
(-0.0684311 0.0302917 0)
(-0.0729116 0.0299851 0)
(-0.0773294 0.0295036 0)
(-0.0816607 0.0288391 0)
(-0.0858807 0.0279836 0)
(-0.0899637 0.0269296 0)
(-0.0938834 0.0256709 0)
(-0.0976128 0.0242025 0)
(-0.101125 0.0225219 0)
(-0.104392 0.0206285 0)
(-0.107386 0.0185247 0)
(-0.110082 0.016216 0)
(-0.112453 0.0137108 0)
(-0.114474 0.0110211 0)
(-0.116122 0.00816226 0)
(-0.117375 0.00515323 0)
(-0.118214 0.00201637 0)
(-0.11862 -0.00122258 0)
(-0.118581 -0.00453466 0)
(-0.118085 -0.00788794 0)
(-0.117124 -0.0112478 0)
(-0.115694 -0.0145773 0)
(-0.113796 -0.0178378 0)
(-0.111435 -0.0209892 0)
(-0.108621 -0.0239907 0)
(-0.105368 -0.0268016 0)
(-0.101698 -0.0293817 0)
(-0.0976349 -0.0316927 0)
(-0.0932104 -0.0336982 0)
(-0.0884607 -0.0353655 0)
(-0.0834271 -0.0366657 0)
(-0.0781557 -0.037575 0)
(-0.072697 -0.0380756 0)
(-0.0671051 -0.0381559 0)
(-0.0614367 -0.0378117 0)
(-0.0557509 -0.0370466 0)
(-0.0501074 -0.0358718 0)
(-0.0445657 -0.0343071 0)
(-0.039184 -0.0323802 0)
(-0.0340178 -0.0301271 0)
(-0.0291185 -0.0275909 0)
(-0.0245326 -0.0248222 0)
(-0.0203001 -0.0218777 0)
(-0.016454 -0.0188198 0)
(-0.0130189 -0.0157159 0)
(-0.0100107 -0.0126374 0)
(-0.00743595 -0.00965913 0)
(-0.00529129 -0.00685872 0)
(-0.00356358 -0.0043161 0)
(-0.00222973 -0.00211311 0)
(-0.00125683 -0.000333342 0)
(-0.000602348 0.000938001 0)
(-0.000214586 0.00161389 0)
(-3.29637e-05 0.00160601 0)
(7.69067e-06 0.000822546 0)
(-5.22387e-05 0.00167617 0)
(-0.000730769 0.00510916 0)
(-0.00201928 0.00851074 0)
(-0.0038606 0.0117912 0)
(-0.00616943 0.0148942 0)
(-0.00888533 0.0177829 0)
(-0.0119569 0.0204354 0)
(-0.0153381 0.0228423 0)
(-0.0189878 0.0250028 0)
(-0.0228702 0.026923 0)
(-0.0269534 0.0286126 0)
(-0.0312093 0.0300839 0)
(-0.0356126 0.031349 0)
(-0.0401403 0.0324195 0)
(-0.0447711 0.0333051 0)
(-0.0494848 0.034013 0)
(-0.0542615 0.0345478 0)
(-0.0590816 0.034911 0)
(-0.0639254 0.0351014 0)
(-0.0687722 0.0351151 0)
(-0.0736009 0.0349465 0)
(-0.0783892 0.0345879 0)
(-0.0831137 0.0340308 0)
(-0.0877502 0.033266 0)
(-0.0922733 0.0322846 0)
(-0.0966565 0.0310784 0)
(-0.100873 0.0296403 0)
(-0.104894 0.027965 0)
(-0.108693 0.0260495 0)
(-0.11224 0.0238935 0)
(-0.115508 0.0214995 0)
(-0.118467 0.0188735 0)
(-0.121092 0.016025 0)
(-0.123356 0.012967 0)
(-0.125232 0.00971641 0)
(-0.126699 0.00629405 0)
(-0.127734 0.00272448 0)
(-0.128317 -0.000964007 0)
(-0.128433 -0.0047395 0)
(-0.128067 -0.00856676 0)
(-0.127209 -0.0124075 0)
(-0.125853 -0.0162207 0)
(-0.123997 -0.0199633 0)
(-0.121642 -0.0235904 0)
(-0.118798 -0.0270563 0)
(-0.115476 -0.0303148 0)
(-0.111695 -0.0333204 0)
(-0.107478 -0.036029 0)
(-0.102857 -0.0383987 0)
(-0.0978665 -0.0403912 0)
(-0.0925488 -0.0419724 0)
(-0.086951 -0.0431137 0)
(-0.0811255 -0.0437928 0)
(-0.0751289 -0.0439946 0)
(-0.0690218 -0.0437121 0)
(-0.0628672 -0.0429469 0)
(-0.05673 -0.0417099 0)
(-0.0506753 -0.0400214 0)
(-0.0447674 -0.0379109 0)
(-0.0390681 -0.0354175 0)
(-0.0336356 -0.0325891 0)
(-0.0285231 -0.0294817 0)
(-0.0237771 -0.0261591 0)
(-0.0194367 -0.0226916 0)
(-0.0155324 -0.0191552 0)
(-0.0120852 -0.0156308 0)
(-0.00910623 -0.0122032 0)
(-0.00659599 -0.00895997 0)
(-0.0045444 -0.00599146 0)
(-0.00293072 -0.00338968 0)
(-0.00172365 -0.00124821 0)
(-0.000881601 0.000338152 0)
(-0.000353513 0.00127318 0)
(-8.00406e-05 0.00146014 0)
(5.05949e-06 0.000799852 0)
(-5.77335e-05 0.00205584 0)
(-0.000800124 0.00616169 0)
(-0.00220496 0.0101557 0)
(-0.00420665 0.0139551 0)
(-0.00670942 0.0175108 0)
(-0.00964535 0.0207933 0)
(-0.0129572 0.0237875 0)
(-0.0165939 0.0264902 0)
(-0.0205108 0.0289064 0)
(-0.0246688 0.031047 0)
(-0.0290342 0.0329263 0)
(-0.033577 0.0345597 0)
(-0.038271 0.0359624 0)
(-0.0430924 0.037148 0)
(-0.0480195 0.0381276 0)
(-0.0530315 0.0389094 0)
(-0.0581085 0.0394982 0)
(-0.0632307 0.0398955 0)
(-0.0683781 0.0400998 0)
(-0.07353 0.0401064 0)
(-0.0786649 0.0399086 0)
(-0.0837603 0.039498 0)
(-0.0887925 0.0388647 0)
(-0.0937367 0.0379987 0)
(-0.0985672 0.03689 0)
(-0.103257 0.0355292 0)
(-0.107778 0.0339088 0)
(-0.112103 0.0320228 0)
(-0.116201 0.0298678 0)
(-0.120045 0.0274434 0)
(-0.123603 0.0247524 0)
(-0.126848 0.021801 0)
(-0.129749 0.0185993 0)
(-0.132281 0.0151616 0)
(-0.134414 0.011506 0)
(-0.136124 0.00765503 0)
(-0.137386 0.00363514 0)
(-0.13818 -0.000522919 0)
(-0.138485 -0.00478448 0)
(-0.138285 -0.00911111 0)
(-0.137566 -0.0134609 0)
(-0.13632 -0.017789 0)
(-0.13454 -0.0220476 0)
(-0.132227 -0.0261872 0)
(-0.129385 -0.0301567 0)
(-0.126024 -0.0339044 0)
(-0.12216 -0.0373788 0)
(-0.117815 -0.0405299 0)
(-0.113017 -0.0433095 0)
(-0.107803 -0.0456732 0)
(-0.102212 -0.0475808 0)
(-0.0962944 -0.048998 0)
(-0.0901029 -0.0498974 0)
(-0.0836969 -0.0502594 0)
(-0.0771404 -0.0500733 0)
(-0.070501 -0.0493382 0)
(-0.0638486 -0.0480635 0)
(-0.0572547 -0.0462696 0)
(-0.0507899 -0.0439873 0)
(-0.0445234 -0.0412586 0)