/*--------------------------------*- C++ -*----------------------------------*\
  =========                 |
  \\      /  F ield         | OpenFOAM: The Open Source CFD Toolbox
   \\    /   O peration     | Website:  https://openfoam.org
    \\  /    A nd           | Version:  12
     \\/     M anipulation  |
\*---------------------------------------------------------------------------*/
FoamFile
{
    format      ascii;
    class       volScalarField;
    location    "2.5";
    object      epsilon;
}
// * * * * * * * * * * * * * * * * * * * * * * * * * * * * * * * * * * * * * //

dimensions      [0 2 -3 0 0 0 0];

internalField   nonuniform List<scalar> 
5625
(
9.81164e-11
4.89871e-10
1.06846e-09
1.75779e-09
2.52227e-09
3.3394e-09
4.19208e-09
5.0661e-09
5.94911e-09
6.83012e-09
7.69931e-09
8.54792e-09
9.36818e-09
1.01533e-08
1.08975e-08
1.15961e-08
1.22452e-08
1.2842e-08
1.33847e-08
1.38723e-08
1.43047e-08
1.46825e-08
1.50068e-08
1.52794e-08
1.55025e-08
1.56785e-08
1.58101e-08
1.59e-08
1.59506e-08
1.59651e-08
1.59459e-08
1.58951e-08
1.58148e-08
1.57068e-08
1.55726e-08
1.54135e-08
1.52304e-08
1.50244e-08
1.47961e-08
1.4546e-08
1.42747e-08
1.39824e-08
1.36696e-08
1.33367e-08
1.29841e-08
1.26124e-08
1.22222e-08
1.18143e-08
1.13896e-08
1.09492e-08
1.04944e-08
1.00264e-08
9.54684e-09
9.05737e-09
8.55974e-09
8.05579e-09
7.54748e-09
7.03676e-09
6.52564e-09
6.01612e-09
5.51018e-09
5.00978e-09
4.51684e-09
4.03324e-09
3.56086e-09
3.10155e-09
2.65725e-09
2.22997e-09
1.822e-09
1.43601e-09
1.07532e-09
7.44486e-10
4.50472e-10
2.05991e-10
4.12308e-11
4.90239e-10
3.96717e-10
5.95042e-10
8.8843e-10
1.23163e-09
1.6058e-09
1.99987e-09
2.40586e-09
2.81729e-09
3.22866e-09
3.63512e-09
4.03243e-09
4.41683e-09
4.78507e-09
5.13439e-09
5.46249e-09
5.76756e-09
6.04824e-09
6.30364e-09
6.53327e-09
6.73702e-09
6.91514e-09
7.06818e-09
7.19693e-09
7.30238e-09
7.38565e-09
7.44797e-09
7.4906e-09
7.51471e-09
7.52169e-09
7.51274e-09
7.48885e-09
7.45098e-09
7.39996e-09
7.33652e-09
7.26128e-09
7.17475e-09
7.07734e-09
6.96943e-09
6.85126e-09
6.72306e-09
6.58503e-09
6.43737e-09
6.28027e-09
6.11397e-09
5.93873e-09
5.75486e-09
5.56274e-09
5.36281e-09
5.15556e-09
4.94158e-09
4.72152e-09
4.49608e-09
4.26604e-09
4.03222e-09
3.79548e-09
3.55673e-09
3.31687e-09
3.07686e-09
2.83761e-09
2.60007e-09
2.36515e-09
2.13376e-09
1.90681e-09
1.6852e-09
1.46985e-09
1.26172e-09
1.06187e-09
8.71542e-10
6.92285e-10
5.26258e-10
3.76918e-10
2.51064e-10
1.66741e-10
2.05886e-10
1.07254e-09
5.97602e-10
6.09966e-10
7.53468e-10
9.57183e-10
1.19483e-09
1.45313e-09
1.72384e-09
2.00106e-09
2.28015e-09
2.55727e-09
2.82912e-09
3.0929e-09
3.34619e-09
3.58693e-09
3.81343e-09
4.02437e-09
4.21871e-09
4.39578e-09
4.55517e-09
4.69677e-09
4.82069e-09
4.92727e-09
5.01701e-09
5.09057e-09
5.1487e-09
5.19222e-09
5.22199e-09
5.23877e-09
5.24355e-09
5.23716e-09
5.22027e-09
5.19354e-09
5.15757e-09
5.11287e-09
5.05989e-09
4.99898e-09
4.93048e-09
4.85463e-09
4.77165e-09
4.6817e-09
4.58496e-09
4.48157e-09
4.3717e-09
4.25553e-09
4.13324e-09
4.00508e-09
3.87131e-09
3.73224e-09
3.58823e-09
3.43967e-09
3.28702e-09
3.13076e-09
2.97142e-09
2.80955e-09
2.64576e-09
2.48064e-09
2.31484e-09
2.14899e-09
1.98374e-09
1.81973e-09
1.65763e-09
1.49808e-09
1.34174e-09
1.18931e-09
1.04152e-09
8.9919e-10
7.63275e-10
6.35006e-10
5.16104e-10
4.09258e-10
3.193e-10
2.56588e-10
2.50308e-10
4.49306e-10
1.7738e-09
8.97803e-10
7.59379e-10
7.99881e-10
9.17956e-10
1.07828e-09
1.26396e-09
1.46518e-09
1.67541e-09
1.88987e-09
2.10476e-09
2.31701e-09
2.52403e-09
2.72363e-09
2.914e-09
3.09362e-09
3.26129e-09
3.41612e-09
3.55743e-09
3.68485e-09
3.7982e-09
3.89751e-09
3.98301e-09
4.05504e-09
4.1141e-09
4.16075e-09
4.19562e-09
4.21938e-09
4.2326e-09
4.2361e-09
4.23052e-09
4.2164e-09
4.19428e-09
4.16464e-09
4.1279e-09
4.08444e-09
4.03456e-09
3.97854e-09
3.9166e-09
3.84893e-09
3.7757e-09
3.69705e-09
3.61313e-09
3.52409e-09
3.43009e-09
3.33129e-09
3.22791e-09
3.12015e-09
3.00829e-09
2.8926e-09
2.77341e-09
2.65107e-09
2.52597e-09
2.39853e-09
2.26919e-09
2.13841e-09
2.00668e-09
1.8745e-09
1.74239e-09
1.61087e-09
1.48047e-09
1.35173e-09
1.22524e-09
1.10157e-09
9.81381e-10
8.65389e-10
7.54458e-10
6.49672e-10
5.52511e-10
4.65161e-10
3.91198e-10
3.37201e-10
3.17518e-10
3.74144e-10
7.39858e-10
2.56449e-09
1.25471e-09
9.74054e-10
9.28016e-10
9.79614e-10
1.08351e-09
1.21878e-09
1.3737e-09
1.54076e-09
1.71466e-09
1.89135e-09
2.06765e-09
2.24092e-09
2.40899e-09
2.57005e-09
2.72263e-09
2.86553e-09
2.99784e-09
3.11888e-09
3.22821e-09
3.32563e-09
3.41107e-09
3.48467e-09
3.5467e-09
3.59752e-09
3.63759e-09
3.66743e-09
3.6876e-09
3.69853e-09
3.70101e-09
3.69556e-09
3.68262e-09
3.66267e-09
3.63613e-09
3.6034e-09
3.56479e-09
3.52059e-09
3.47106e-09
3.4164e-09
3.35679e-09
3.2924e-09
3.22337e-09
3.14985e-09
3.07197e-09
2.98988e-09
2.90375e-09
2.81376e-09
2.72011e-09
2.62302e-09
2.52275e-09
2.41957e-09
2.31379e-09
2.20575e-09
2.09581e-09
1.98433e-09
1.87173e-09
1.75843e-09
1.64486e-09
1.53147e-09
1.41874e-09
1.30715e-09
1.19721e-09
1.08948e-09
9.84541e-10
8.83066e-10
7.85844e-10
6.93859e-10
6.08393e-10
5.31253e-10
4.65179e-10
4.14688e-10
3.88156e-10
4.04188e-10
5.19425e-10
1.06302e-09
3.42886e-09
1.65251e-09
1.22959e-09
1.10398e-09
1.0982e-09
1.15562e-09
1.25103e-09
1.37063e-09
1.50574e-09
1.65042e-09
1.80025e-09
1.95178e-09
2.10223e-09
2.2493e-09
2.39111e-09
2.52612e-09
2.65306e-09
2.77098e-09
2.87914e-09
2.97704e-09
3.06438e-09
3.14107e-09
3.20715e-09
3.26281e-09
3.30835e-09
3.34415e-09
3.37065e-09
3.38835e-09
3.39758e-09
3.39915e-09
3.39345e-09
3.38092e-09
3.36197e-09
3.33702e-09
3.3064e-09
3.27044e-09
3.2294e-09
3.18352e-09
3.133e-09
3.07801e-09
3.01873e-09
2.95528e-09
2.88781e-09
2.81645e-09
2.74135e-09
2.66266e-09
2.58054e-09
2.49519e-09
2.40681e-09
2.31563e-09
2.22191e-09
2.12592e-09
2.02797e-09
1.92838e-09
1.82752e-09
1.72573e-09
1.62343e-09
1.52101e-09
1.41891e-09
1.31757e-09
1.21748e-09
1.11914e-09
1.02313e-09
9.3007e-10
8.40688e-10
7.55873e-10
6.76753e-10
6.04855e-10
5.42343e-10
4.92503e-10
4.60795e-10
4.57451e-10
5.05705e-10
6.78469e-10
1.40984e-09
4.35688e-09
2.08336e-09
1.5148e-09
1.31234e-09
1.25404e-09
1.27063e-09
1.33212e-09
1.42251e-09
1.532e-09
1.65388e-09
1.78322e-09
1.91625e-09
2.04999e-09
2.18197e-09
2.31016e-09
2.43291e-09
2.54886e-09
2.65695e-09
2.75637e-09
2.84655e-09
2.92712e-09
2.99791e-09
3.0589e-09
3.11022e-09
3.15212e-09
3.18492e-09
3.20902e-09
3.22485e-09
3.23271e-09
3.23342e-09
3.2273e-09
3.21475e-09
3.19618e-09
3.17198e-09
3.14247e-09
3.10797e-09
3.06872e-09
3.02496e-09
2.97687e-09
2.92464e-09
2.86841e-09
2.80832e-09
2.74451e-09
2.67709e-09
2.60621e-09
2.53201e-09
2.45464e-09
2.37428e-09
2.29113e-09
2.20539e-09
2.11732e-09
2.02717e-09
1.93524e-09
1.84183e-09
1.74729e-09
1.65198e-09
1.55628e-09
1.4606e-09
1.36536e-09
1.27102e-09
1.17809e-09
1.08709e-09
9.98609e-10
9.13352e-10
8.32138e-10
7.55972e-10
6.86156e-10
6.24439e-10
5.7333e-10
5.36672e-10
5.20876e-10
5.38136e-10
6.16674e-10
8.4689e-10
1.77368e-09
5.34151e-09
2.54257e-09
1.82358e-09
1.5449e-09
1.43664e-09
1.41583e-09
1.44719e-09
1.51233e-09
1.60012e-09
1.70311e-09
1.81594e-09
1.93448e-09
2.05542e-09
2.17604e-09
2.29416e-09
2.40799e-09
2.51605e-09
2.61717e-09
2.71046e-09
2.79524e-09
2.87108e-09
2.93774e-09
2.99515e-09
3.04339e-09
3.08265e-09
3.11324e-09
3.13551e-09
3.14986e-09
3.15655e-09
3.15647e-09
3.14981e-09
3.13702e-09
3.11848e-09
3.09455e-09
3.06558e-09
3.03185e-09
2.9936e-09
2.95107e-09
2.90444e-09
2.85387e-09
2.7995e-09
2.74145e-09
2.67985e-09
2.61481e-09
2.54645e-09
2.47491e-09
2.40032e-09
2.32286e-09
2.24269e-09
2.16004e-09
2.07512e-09
1.98821e-09
1.89959e-09
1.80958e-09
1.71851e-09
1.62675e-09
1.5347e-09
1.44278e-09
1.35143e-09
1.26114e-09
1.17244e-09
1.0859e-09
1.00219e-09
9.22057e-10
8.46415e-10
7.76393e-10
7.13454e-10
6.59589e-10
6.17653e-10
5.92054e-10
5.90163e-10
6.26259e-10
7.33838e-10
1.02161e-09
2.14919e-09
6.37743e-09
3.02692e-09
2.1522e-09
1.79675e-09
1.63979e-09
1.58371e-09
1.58744e-09
1.63001e-09
1.69891e-09
1.78585e-09
1.88489e-09
1.99151e-09
2.10215e-09
2.2139e-09
2.32439e-09
2.43161e-09
2.53394e-09
2.63008e-09
2.71902e-09
2.8e-09
2.87252e-09
2.93625e-09
2.99109e-09
3.03709e-09
3.0744e-09
3.1033e-09
3.12413e-09
3.13724e-09
3.14295e-09
3.1421e-09
3.13488e-09
3.12172e-09
3.10301e-09
3.0791e-09
3.05033e-09
3.01696e-09
2.97925e-09
2.9374e-09
2.8916e-09
2.84198e-09
2.78868e-09
2.73179e-09
2.67143e-09
2.6077e-09
2.54069e-09
2.47054e-09
2.39736e-09
2.32132e-09
2.24258e-09
2.16135e-09
2.07786e-09
1.99237e-09
1.90517e-09
1.81659e-09
1.72698e-09
1.63672e-09
1.54622e-09
1.45595e-09
1.36637e-09
1.27801e-09
1.19144e-09
1.1073e-09
1.0263e-09
9.49293e-10
8.77274e-10
8.11505e-10
7.53618e-10
7.05838e-10
6.71377e-10
6.5519e-10
6.65675e-10
7.19264e-10
8.54933e-10
1.20023e-09
2.5318e-09
7.46035e-09
3.53402e-09
2.49813e-09
2.06471e-09
1.85952e-09
1.7694e-09
1.74726e-09
1.76915e-09
1.82115e-09
1.89407e-09
1.9814e-09
2.07819e-09
2.18055e-09
2.28532e-09
2.38986e-09
2.49203e-09
2.59006e-09
2.68252e-09
2.76829e-09
2.84653e-09
2.91665e-09
2.9783e-09
3.03131e-09
3.07567e-09
3.11153e-09
3.13915e-09
3.15885e-09
3.17095e-09
3.17583e-09
3.17429e-09
3.16654e-09
3.15298e-09
3.13402e-09
3.11001e-09
3.08127e-09
3.04806e-09
3.01062e-09
2.96915e-09
2.92379e-09
2.87468e-09
2.82194e-09
2.76564e-09
2.70588e-09
2.64273e-09
2.57629e-09
2.50665e-09
2.43393e-09
2.35826e-09
2.27982e-09
2.19881e-09
2.11545e-09
2.03e-09
1.94279e-09
1.85413e-09
1.76442e-09
1.67405e-09
1.58348e-09
1.49319e-09
1.40371e-09
1.31561e-09
1.22951e-09
1.14611e-09
1.06621e-09
9.90724e-10
9.2077e-10
8.57732e-10
8.03414e-10
7.60274e-10
7.31901e-10
7.23771e-10
7.45371e-10
8.15334e-10
9.7824e-10
1.38073e-09
2.91755e-09
8.5867e-09
4.06194e-09
2.85948e-09
2.34654e-09
2.09311e-09
1.96967e-09
1.92282e-09
1.92543e-09
1.96203e-09
2.0225e-09
2.09967e-09
2.18817e-09
2.28375e-09
2.38298e-09
2.483e-09
2.58146e-09
2.67643e-09
2.76635e-09
2.84996e-09
2.92635e-09
2.99485e-09
3.05505e-09
3.10674e-09
3.1499e-09
3.18465e-09
3.21123e-09
3.22999e-09
3.24119e-09
3.24534e-09
3.24315e-09
3.23485e-09
3.22088e-09
3.20161e-09
3.17741e-09
3.14858e-09
3.11538e-09
3.07803e-09
3.03671e-09
2.99155e-09
2.94267e-09
2.89014e-09
2.83404e-09
2.77443e-09
2.71136e-09
2.64489e-09
2.57512e-09
2.50212e-09
2.42604e-09
2.34703e-09
2.26529e-09
2.18105e-09
2.09459e-09
2.00621e-09
1.9163e-09
1.82524e-09
1.73349e-09
1.64152e-09
1.54988e-09
1.45913e-09
1.36992e-09
1.28291e-09
1.19889e-09
1.11873e-09
1.04344e-09
9.74229e-10
9.12631e-10
8.60615e-10
8.20876e-10
7.97388e-10
7.96147e-10
8.27759e-10
9.13093e-10
1.10238e-09
1.56141e-09
3.303e-09
9.7533e-09
4.60904e-09
3.23479e-09
2.64058e-09
2.33859e-09
2.1822e-09
2.11136e-09
2.09579e-09
2.11815e-09
2.16737e-09
2.23564e-09
2.31709e-09
2.40711e-09
2.50196e-09
2.59855e-09
2.69433e-09
2.78717e-09
2.87538e-09
2.95761e-09
3.03281e-09
3.10027e-09
3.15951e-09
3.2103e-09
3.25259e-09
3.28651e-09
3.31229e-09
3.33028e-09
3.34073e-09
3.34424e-09
3.34147e-09
3.33268e-09
3.3183e-09
3.29872e-09
3.2743e-09
3.24533e-09
3.21207e-09
3.17471e-09
3.13342e-09
3.08831e-09
3.03945e-09
2.98692e-09
2.93074e-09
2.87095e-09
2.80757e-09
2.74064e-09
2.67023e-09
2.59641e-09
2.51929e-09
2.43903e-09
2.35582e-09
2.26989e-09
2.18153e-09
2.09109e-09
1.99894e-09
1.90552e-09
1.81132e-09
1.71687e-09
1.62275e-09
1.5296e-09
1.4381e-09
1.34903e-09
1.26321e-09
1.18162e-09
1.10535e-09
1.03574e-09
9.74441e-10
9.23606e-10
8.86172e-10
8.66476e-10
8.71084e-10
9.11704e-10
1.01146e-09
1.22622e-09
1.7408e-09
3.68514e-09
1.09573e-08
5.17386e-09
3.6228e-09
2.94551e-09
2.59442e-09
2.40524e-09
2.3109e-09
2.27794e-09
2.28697e-09
2.32595e-09
2.38634e-09
2.46177e-09
2.54722e-09
2.63866e-09
2.73273e-09
2.82666e-09
2.91816e-09
3.00536e-09
3.0868e-09
3.16136e-09
3.22824e-09
3.28692e-09
3.33714e-09
3.37884e-09
3.41214e-09
3.43729e-09
3.45466e-09
3.46446e-09
3.46743e-09
3.46414e-09
3.45491e-09
3.44016e-09
3.42029e-09
3.39565e-09
3.36653e-09
3.33318e-09
3.29576e-09
3.25443e-09
3.20926e-09
3.16031e-09
3.1076e-09
3.05113e-09
2.99091e-09
2.92694e-09
2.85921e-09
2.78778e-09
2.71269e-09
2.63404e-09
2.55197e-09
2.46668e-09
2.37841e-09
2.28746e-09
2.19418e-09
2.09899e-09
2.00237e-09
1.90483e-09
1.80696e-09
1.70941e-09
1.61286e-09
1.51808e-09
1.42591e-09
1.33727e-09
1.2532e-09
1.17492e-09
1.10387e-09
1.04185e-09
9.91174e-10
9.55048e-10
9.38145e-10
9.47638e-10
9.96318e-10
1.10955e-09
1.34881e-09
1.91767e-09
4.0614e-09
1.21958e-08
5.75501e-09
4.02242e-09
3.26023e-09
2.8594e-09
2.63741e-09
2.5199e-09
2.47011e-09
2.46658e-09
2.49614e-09
2.5495e-09
2.61977e-09
2.70152e-09
2.79036e-09
2.88268e-09
2.97548e-09
3.06627e-09
3.15305e-09
3.23423e-09
3.30859e-09
3.37526e-09
3.4337e-09
3.48361e-09
3.52494e-09
3.5578e-09
3.58247e-09
3.59932e-09
3.60858e-09
3.61107e-09
3.60733e-09
3.5977e-09
3.58261e-09
3.56248e-09
3.53764e-09
3.50839e-09
3.47493e-09
3.43744e-09
3.39602e-09
3.35073e-09
3.30158e-09
3.24857e-09
3.19167e-09
3.13083e-09
3.06603e-09
2.99724e-09
2.92447e-09
2.84775e-09
2.76718e-09
2.68287e-09
2.59501e-09
2.50386e-09
2.40973e-09
2.31299e-09
2.21409e-09
2.11354e-09
2.0119e-09
1.90983e-09
1.80801e-09
1.70721e-09
1.60827e-09
1.51209e-09
1.4197e-09
1.33222e-09
1.25099e-09
1.17755e-09
1.11385e-09
1.06239e-09
1.02665e-09
1.01161e-09
1.02507e-09
1.0809e-09
1.20668e-09
1.46938e-09
2.09097e-09
4.42961e-09
1.34662e-08
6.3512e-09
4.43262e-09
3.58376e-09
3.13249e-09
2.87759e-09
2.73716e-09
2.6709e-09
2.65548e-09
2.67628e-09
2.72335e-09
2.78921e-09
2.86798e-09
2.95494e-09
3.04617e-09
3.13845e-09
3.2291e-09
3.31595e-09
3.39728e-09
3.47181e-09
3.5386e-09
3.59706e-09
3.64688e-09
3.688e-09
3.72057e-09
3.74486e-09
3.7613e-09
3.77008e-09
3.77216e-09
3.76802e-09
3.75804e-09
3.74266e-09
3.72229e-09
3.69727e-09
3.66789e-09
3.63433e-09
3.59675e-09
3.55521e-09
3.50974e-09
3.46034e-09
3.40693e-09
3.34947e-09
3.28787e-09
3.22206e-09
3.152e-09
3.07765e-09
2.99903e-09
2.9162e-09
2.82929e-09
2.73848e-09
2.64401e-09
2.54622e-09
2.4455e-09
2.34233e-09
2.23725e-09
2.13088e-09
2.02391e-09
1.91711e-09
1.81131e-09
1.70741e-09
1.60642e-09
1.50944e-09
1.4177e-09
1.33264e-09
1.25594e-09
1.18968e-09
1.13656e-09
1.10031e-09
1.08627e-09
1.10283e-09
1.16492e-09
1.3023e-09
1.58732e-09
2.25987e-09
4.78802e-09
1.47658e-08
6.96109e-09
4.85244e-09
3.91523e-09
3.41282e-09
3.12481e-09
2.9616e-09
2.87921e-09
2.8524e-09
2.86503e-09
2.90645e-09
2.96853e-09
3.04497e-09
3.13066e-09
3.22139e-09
3.31368e-09
3.40466e-09
3.492e-09
3.57386e-09
3.64887e-09
3.71603e-09
3.77472e-09
3.82463e-09
3.86569e-09
3.89807e-09
3.92208e-09
3.93817e-09
3.94654e-09
3.94825e-09
3.94375e-09
3.93345e-09
3.9178e-09
3.89722e-09
3.87205e-09
3.84254e-09
3.80889e-09
3.7712e-09
3.72952e-09
3.68384e-09
3.63411e-09
3.58025e-09
3.52213e-09
3.45965e-09
3.3927e-09
3.32119e-09
3.24508e-09
3.16433e-09
3.07901e-09
2.98922e-09
2.89514e-09
2.79701e-09
2.69518e-09
2.59007e-09
2.48216e-09
2.37205e-09
2.2604e-09
2.14796e-09
2.03555e-09
1.92408e-09
1.81453e-09
1.70799e-09
1.60566e-09
1.50888e-09
1.41919e-09
1.33841e-09
1.26876e-09
1.21314e-09
1.17555e-09
1.16167e-09
1.18047e-09
1.24795e-09
1.39599e-09
1.70215e-09
2.42373e-09
5.13531e-09
1.60917e-08
7.58338e-09
5.28089e-09
4.25378e-09
3.69955e-09
3.37823e-09
3.19236e-09
3.0941e-09
3.05633e-09
3.06129e-09
3.09759e-09
3.15647e-09
3.23114e-09
3.3161e-09
3.40683e-09
3.4996e-09
3.59132e-09
3.67951e-09
3.76221e-09
3.83796e-09
3.90571e-09
3.9648e-09
4.01493e-09
4.05604e-09
4.08831e-09
4.11211e-09
4.12789e-09
4.13588e-09
4.13726e-09
4.13243e-09
4.12182e-09
4.10593e-09
4.08515e-09
4.05983e-09
4.03021e-09
3.99645e-09
3.95864e-09
3.9168e-09
3.87088e-09
3.82079e-09
3.7664e-09
3.70755e-09
3.64411e-09
3.57591e-09
3.50284e-09
3.42481e-09
3.34179e-09
3.2538e-09
3.16092e-09
3.06333e-09
2.96129e-09
2.85512e-09
2.74528e-09
2.63227e-09
2.51673e-09
2.39936e-09
2.28095e-09
2.1624e-09
2.04468e-09
1.92886e-09
1.81612e-09
1.70775e-09
1.6052e-09
1.51012e-09
1.42448e-09
1.35067e-09
1.29175e-09
1.25202e-09
1.23749e-09
1.25771e-09
1.32972e-09
1.48746e-09
1.81355e-09
2.58211e-09
5.47053e-09
1.74412e-08
8.2167e-09
5.71702e-09
4.59861e-09
3.99193e-09
3.6371e-09
3.42863e-09
3.31475e-09
3.26632e-09
3.26409e-09
3.29574e-09
3.35193e-09
3.42532e-09
3.51002e-09
3.60119e-09
3.69483e-09
3.78765e-09
3.877e-09
3.96081e-09
4.0375e-09
4.10601e-09
4.16565e-09
4.21609e-09
4.25733e-09
4.28956e-09
4.31318e-09
4.32868e-09
4.33631e-09
4.33738e-09
4.33222e-09
4.32133e-09
4.30518e-09
4.28421e-09
4.25873e-09
4.22899e-09
4.19512e-09
4.15718e-09
4.11515e-09
4.06896e-09
4.01847e-09
3.9635e-09
3.90388e-09
3.83941e-09
3.76989e-09
3.69518e-09
3.61515e-09
3.52975e-09
3.43896e-09
3.34286e-09
3.24161e-09
3.13546e-09
3.02476e-09
2.90994e-09
2.79157e-09
2.67027e-09
2.54681e-09
2.42204e-09
2.29689e-09
2.17243e-09
2.04979e-09
1.93025e-09
1.81521e-09
1.70622e-09
1.60507e-09
1.51384e-09
1.43511e-09
1.37213e-09
1.32948e-09
1.31352e-09
1.33436e-09
1.41005e-09
1.57654e-09
1.92133e-09
2.73476e-09
5.79319e-09
1.88112e-08
8.85965e-09
6.15984e-09
4.94888e-09
4.28921e-09
3.9007e-09
3.66968e-09
3.54039e-09
3.48156e-09
3.47258e-09
3.50001e-09
3.55391e-09
3.62645e-09
3.71131e-09
3.80331e-09
3.89817e-09
3.99239e-09
4.08316e-09
4.16827e-09
4.2461e-09
4.3155e-09
4.37578e-09
4.42662e-09
4.46803e-09
4.50024e-09
4.5237e-09
4.53892e-09
4.5462e-09
4.54695e-09
4.54147e-09
4.53027e-09
4.51387e-09
4.49269e-09
4.46705e-09
4.43717e-09
4.40316e-09
4.36507e-09
4.32284e-09
4.27635e-09
4.22543e-09
4.16986e-09
4.10943e-09
4.04389e-09
3.97303e-09
3.89663e-09
3.81456e-09
3.72672e-09
3.63308e-09
3.53369e-09
3.4287e-09
3.31835e-09
3.20298e-09
3.08304e-09
2.9591e-09
2.83183e-09
2.70201e-09
2.57054e-09
2.43844e-09
2.3068e-09
2.17687e-09
2.05001e-09
1.92772e-09
1.81167e-09
1.70378e-09
1.60628e-09
1.52191e-09
1.45415e-09
1.40781e-09
1.38968e-09
1.41035e-09
1.48888e-09
1.66318e-09
2.02546e-09
2.88162e-09
6.10316e-09
2.01986e-08
9.51075e-09
6.60832e-09
5.30379e-09
4.59067e-09
4.16833e-09
3.91483e-09
3.77033e-09
3.70136e-09
3.68596e-09
3.70954e-09
3.76155e-09
3.83361e-09
3.91898e-09
4.01212e-09
4.10849e-09
4.20437e-09
4.29676e-09
4.38336e-09
4.46244e-09
4.53283e-09
4.59382e-09
4.6451e-09
4.68671e-09
4.71892e-09
4.74221e-09
4.75713e-09
4.76404e-09
4.76446e-09
4.75862e-09
4.7471e-09
4.73042e-09
4.70901e-09
4.68318e-09
4.65313e-09
4.61898e-09
4.58071e-09
4.53825e-09
4.49144e-09
4.44008e-09
4.38391e-09
4.32266e-09
4.25606e-09
4.18384e-09
4.10577e-09
4.02166e-09
3.93139e-09
3.8349e-09
3.73223e-09
3.62348e-09
3.5089e-09
3.38882e-09
3.26368e-09
3.13407e-09
3.00068e-09
2.86432e-09
2.72592e-09
2.58656e-09
2.44741e-09
2.30978e-09
2.17513e-09
2.04507e-09
1.92139e-09
1.80614e-09
1.70172e-09
1.61103e-09
1.53777e-09
1.48701e-09
1.46596e-09
1.48569e-09
1.56626e-09
1.74744e-09
2.126e-09
3.02282e-09
6.40074e-09
2.16002e-08
1.01685e-08
7.06143e-09
5.66249e-09
4.89557e-09
4.43932e-09
4.16342e-09
4.00388e-09
3.92502e-09
3.90351e-09
3.92355e-09
3.97399e-09
4.0459e-09
4.13207e-09
4.22663e-09
4.32475e-09
4.42248e-09
4.51666e-09
4.60487e-09
4.6853e-09
4.75675e-09
4.81848e-09
4.87022e-09
4.91201e-09
4.9442e-09
4.96731e-09
4.98189e-09
4.9884e-09
4.98845e-09
4.98222e-09
4.97034e-09
4.95335e-09
4.93168e-09
4.90562e-09
4.87539e-09
4.84106e-09
4.8026e-09
4.7599e-09
4.71277e-09
4.66097e-09
4.6042e-09
4.54215e-09
4.47451e-09
4.40098e-09
4.32128e-09
4.2352e-09
4.14257e-09
4.0433e-09
3.9374e-09
3.82496e-09
3.7062e-09
3.58144e-09
3.45112e-09
3.31582e-09
3.17624e-09
3.03323e-09
2.88775e-09
2.74091e-09
2.59397e-09
2.4483e-09
2.30546e-09
2.16715e-09
2.03532e-09
1.91214e-09
1.80017e-09
1.7025e-09
1.62305e-09
1.56715e-09
1.54246e-09
1.56051e-09
1.64231e-09
1.82948e-09
2.22316e-09
3.15867e-09
6.68658e-09
2.30125e-08
1.08312e-08
7.51806e-09
6.02413e-09
5.20319e-09
4.713e-09
4.41479e-09
4.24041e-09
4.15188e-09
4.12453e-09
4.14131e-09
4.19045e-09
4.26245e-09
4.34968e-09
4.44587e-09
4.54592e-09
4.64565e-09
4.74175e-09
4.83165e-09
4.91349e-09
4.98601e-09
5.0485e-09
5.10067e-09
5.14263e-09
5.17475e-09
5.19763e-09
5.21182e-09
5.21791e-09
5.21752e-09
5.21086e-09
5.19858e-09
5.18123e-09
5.15926e-09
5.13295e-09
5.10251e-09
5.06798e-09
5.02932e-09
4.98639e-09
4.93895e-09
4.88674e-09
4.82941e-09
4.76661e-09
4.69801e-09
4.62325e-09
4.54202e-09
4.45407e-09
4.35919e-09
4.25727e-09
4.14828e-09
4.03228e-09
3.90946e-09
3.78012e-09
3.6447e-09
3.50377e-09
3.35803e-09
3.20834e-09
3.05569e-09
2.90125e-09
2.7463e-09
2.59232e-09
2.44094e-09
2.29399e-09
2.15351e-09
2.02186e-09
1.90175e-09
1.79647e-09
1.71015e-09
1.6484e-09
1.61938e-09
1.63499e-09
1.71725e-09
1.90955e-09
2.31727e-09
3.28962e-09
6.96166e-09
2.4432e-08
1.14974e-08
7.97709e-09
6.38782e-09
5.51277e-09
4.98869e-09
4.6683e-09
4.47928e-09
4.38129e-09
4.34832e-09
4.36207e-09
4.41014e-09
4.48245e-09
4.57091e-09
4.6689e-09
4.771e-09
4.87284e-09
4.97091e-09
5.06254e-09
5.14581e-09
5.21941e-09
5.28262e-09
5.3352e-09
5.37727e-09
5.40928e-09
5.43186e-09
5.44559e-09
5.45122e-09
5.45033e-09
5.44318e-09
5.43044e-09
5.4127e-09
5.39039e-09
5.36381e-09
5.33313e-09
5.29841e-09
5.25956e-09
5.21641e-09
5.16871e-09
5.11613e-09
5.05832e-09
4.99487e-09
4.92541e-09
4.84955e-09
4.76694e-09
4.67728e-09
4.58034e-09
4.47595e-09
4.36405e-09
4.24468e-09
4.118e-09
3.98426e-09
3.8439e-09
3.69747e-09
3.54566e-09
3.38934e-09
3.22952e-09
3.0674e-09
2.90431e-09
2.74181e-09
2.58161e-09
2.42564e-09
2.2761e-09
2.13547e-09
2.00666e-09
1.89314e-09
1.79931e-09
1.73102e-09
1.69698e-09
1.70942e-09
1.79138e-09
1.98799e-09
2.40874e-09
3.41629e-09
7.22729e-09
2.58549e-08
1.21652e-08
8.43736e-09
6.75266e-09
5.82356e-09
5.26572e-09
4.92332e-09
4.71985e-09
4.6126e-09
4.57421e-09
4.58511e-09
4.63228e-09
4.70505e-09
4.79487e-09
4.89475e-09
4.999e-09
5.10298e-09
5.20305e-09
5.29643e-09
5.38109e-09
5.45573e-09
5.51962e-09
5.57253e-09
5.61465e-09
5.64647e-09
5.66869e-09
5.68188e-09
5.68699e-09
5.68554e-09
5.67784e-09
5.6646e-09
5.64642e-09
5.62375e-09
5.59688e-09
5.56598e-09
5.53108e-09
5.49207e-09
5.44876e-09
5.40087e-09
5.34802e-09
5.28984e-09
5.22588e-09
5.15572e-09
5.07894e-09
4.99514e-09
4.90399e-09
4.80521e-09
4.6986e-09
4.58405e-09
4.46156e-09
4.33125e-09
4.19337e-09
4.04829e-09
3.89654e-09
3.73883e-09
3.576e-09
3.40908e-09
3.23927e-09
3.06799e-09
2.89682e-09
2.72757e-09
2.56229e-09
2.40329e-09
2.25321e-09
2.11516e-09
1.99281e-09
1.89083e-09
1.81534e-09
1.77558e-09
1.78415e-09
1.86508e-09
2.06523e-09
2.49808e-09
3.5394e-09
7.48503e-09
2.72776e-08
1.28328e-08
8.89766e-09
7.11772e-09
6.13478e-09
5.5434e-09
5.1792e-09
4.96149e-09
4.84516e-09
4.80152e-09
4.80971e-09
4.8561e-09
4.92942e-09
5.02067e-09
5.12249e-09
5.22889e-09
5.33502e-09
5.43707e-09
5.53214e-09
5.61815e-09
5.69375e-09
5.75824e-09
5.81141e-09
5.85349e-09
5.88504e-09
5.90681e-09
5.91939e-09
5.92392e-09
5.92184e-09
5.91354e-09
5.89977e-09
5.88113e-09
5.85809e-09
5.83094e-09
5.79985e-09
5.76481e-09
5.72572e-09
5.68235e-09
5.63437e-09
5.5814e-09
5.52301e-09
5.45873e-09
5.38808e-09
5.3106e-09
5.22587e-09
5.1335e-09
5.03316e-09
4.92462e-09
4.80772e-09
4.68241e-09
4.54879e-09
4.40703e-09
4.25751e-09
4.10072e-09
3.93732e-09
3.76815e-09
3.59425e-09
3.41685e-09
3.23736e-09
3.05744e-09
2.87898e-09
2.70412e-09
2.53532e-09
2.37538e-09
2.22758e-09
2.09584e-09
1.98507e-09
1.90172e-09
1.85557e-09
1.85957e-09
1.93877e-09
2.14172e-09
2.58588e-09
3.65979e-09
7.73662e-09
2.86959e-08
1.34985e-08
9.35676e-09
7.48205e-09
6.44565e-09
5.82102e-09
5.43529e-09
5.20354e-09
5.07831e-09
5.02955e-09
5.03514e-09
5.0808e-09
5.15472e-09
5.2474e-09
5.35115e-09
5.45967e-09
5.56789e-09
5.67184e-09
5.76852e-09
5.85578e-09
5.93225e-09
5.99723e-09
6.05056e-09
6.0925e-09
6.12368e-09
6.14492e-09
6.15681e-09
6.16071e-09
6.15795e-09
6.14902e-09
6.13469e-09
6.1156e-09
6.09221e-09
6.06483e-09
6.03361e-09
5.99854e-09
5.95947e-09
5.91618e-09
5.86829e-09
5.81539e-09
5.75701e-09
5.69265e-09
5.62178e-09
5.5439e-09
5.45854e-09
5.36526e-09
5.2637e-09
5.15356e-09
5.03465e-09
4.90688e-09
4.77027e-09
4.62499e-09
4.47134e-09
4.30979e-09
4.14097e-09
3.96571e-09
3.78502e-09
3.60012e-09
3.41249e-09
3.2238e-09
3.03602e-09
2.8514e-09
2.6725e-09
2.50231e-09
2.3443e-09
2.20261e-09
2.08245e-09
1.9906e-09
1.93737e-09
1.93613e-09
2.01291e-09
2.218e-09
2.67275e-09
3.77834e-09
7.984e-09
3.01059e-08
1.41604e-08
9.8134e-09
7.8447e-09
6.75535e-09
6.09789e-09
5.69093e-09
5.44538e-09
5.31141e-09
5.25761e-09
5.26065e-09
5.30561e-09
5.38009e-09
5.47416e-09
5.57975e-09
5.69029e-09
5.8005e-09
5.90623e-09
6.00439e-09
6.09276e-09
6.16998e-09
6.23533e-09
6.28869e-09
6.3304e-09
6.36112e-09
6.38174e-09
6.39287e-09
6.3961e-09
6.39263e-09
6.38305e-09
6.36819e-09
6.34868e-09
6.325e-09
6.29748e-09
6.26624e-09
6.23127e-09
6.19241e-09
6.14939e-09
6.10183e-09
6.04926e-09
5.99118e-09
5.92704e-09
5.85628e-09
5.77835e-09
5.69272e-09
5.5989e-09
5.49649e-09
5.38514e-09
5.2646e-09
5.13473e-09
4.99551e-09
4.84706e-09
4.68962e-09
4.52364e-09
4.34971e-09
4.16861e-09
3.98135e-09
3.78915e-09
3.59347e-09
3.39605e-09
3.1989e-09
3.00436e-09
2.81514e-09
2.63436e-09
2.4657e-09
2.31356e-09
2.18342e-09
2.08244e-09
2.0214e-09
2.0143e-09
2.08802e-09
2.29461e-09
2.75937e-09
3.89601e-09
8.22917e-09
3.15036e-08
1.48166e-08
1.02663e-08
8.20467e-09
7.06309e-09
6.3733e-09
5.94546e-09
5.68634e-09
5.54377e-09
5.48501e-09
5.48551e-09
5.52972e-09
5.60467e-09
5.70001e-09
5.8073e-09
5.91971e-09
6.03173e-09
6.13908e-09
6.23855e-09
6.32789e-09
6.40569e-09
6.47127e-09
6.52454e-09
6.56589e-09
6.59607e-09
6.616e-09
6.62632e-09
6.62885e-09
6.62467e-09
6.61447e-09
6.59911e-09
6.57926e-09
6.55541e-09
6.52788e-09
6.49681e-09
6.46215e-09
6.42374e-09
6.38127e-09
6.33433e-09
6.28243e-09
6.22501e-09
6.16147e-09
6.09122e-09
6.01364e-09
5.92815e-09
5.83422e-09
5.73138e-09
5.61923e-09
5.49747e-09
5.3659e-09
5.22445e-09
5.07319e-09
4.91233e-09
4.74225e-09
4.56351e-09
4.37686e-09
4.18328e-09
3.98397e-09
3.78041e-09
3.57434e-09
3.36782e-09
3.16328e-09
2.96354e-09
2.77188e-09
2.59218e-09
2.4291e-09
2.28843e-09
2.17771e-09
2.10816e-09
2.09457e-09
2.16459e-09
2.37213e-09
2.84642e-09
4.01374e-09
8.47415e-09
3.28847e-08
1.54651e-08
1.07142e-08
8.561e-09
7.36804e-09
6.64651e-09
6.1982e-09
5.92578e-09
5.77474e-09
5.71101e-09
5.70896e-09
5.75231e-09
5.82759e-09
5.92402e-09
6.03281e-09
6.14687e-09
6.26049e-09
6.36924e-09
6.46981e-09
6.55992e-09
6.63813e-09
6.70379e-09
6.75684e-09
6.79773e-09
6.82727e-09
6.84645e-09
6.85594e-09
6.85778e-09
6.85291e-09
6.84217e-09
6.82641e-09
6.80636e-09
6.7825e-09
6.75518e-09
6.7245e-09
6.69044e-09
6.6528e-09
6.61123e-09
6.56531e-09
6.51448e-09
6.45815e-09
6.39568e-09
6.3264e-09
6.24965e-09
6.16478e-09
6.07121e-09
5.9684e-09
5.8559e-09
5.73333e-09
5.60047e-09
5.45717e-09
5.30347e-09
5.13952e-09
4.96567e-09
4.78242e-09
4.59051e-09
4.39086e-09
4.18467e-09
3.97339e-09
3.75878e-09
3.54295e-09
3.32837e-09
3.11797e-09
2.91519e-09
2.72412e-09
2.54966e-09
2.39793e-09
2.27685e-09
2.19814e-09
2.17744e-09
2.24316e-09
2.45111e-09
2.93456e-09
4.13249e-09
8.72095e-09
3.42452e-08
1.61041e-08
1.11559e-08
8.91269e-09
7.6694e-09
6.91681e-09
6.44849e-09
6.16303e-09
6.00364e-09
5.9349e-09
5.93025e-09
5.97258e-09
6.04798e-09
6.14524e-09
6.25528e-09
6.37071e-09
6.48566e-09
6.59554e-09
6.69698e-09
6.78763e-09
6.86606e-09
6.93163e-09
6.98433e-09
7.02467e-09
7.05352e-09
7.07188e-09
7.08055e-09
7.08175e-09
7.07628e-09
7.0651e-09
7.04911e-09
7.02904e-09
7.00543e-09
6.97858e-09
6.94864e-09
6.91554e-09
6.87906e-09
6.83884e-09
6.7944e-09
6.74516e-09
6.69045e-09
6.62958e-09
6.56182e-09
6.48644e-09
6.40274e-09
6.31005e-09
6.20777e-09
6.09538e-09
5.97246e-09
5.83871e-09
5.69394e-09
5.53814e-09
5.37142e-09
5.19408e-09
5.0066e-09
4.80967e-09
4.60419e-09
4.39132e-09
4.1725e-09
3.9495e-09
3.72442e-09
3.49981e-09
3.27867e-09
3.06459e-09
2.86184e-09
2.67561e-09
2.51231e-09
2.38032e-09
2.29181e-09
2.26339e-09
2.32422e-09
2.53211e-09
3.02444e-09
4.25315e-09
8.97146e-09
3.55811e-08
1.67317e-08
1.15899e-08
9.25877e-09
7.96635e-09
7.18349e-09
6.69564e-09
6.39742e-09
6.2298e-09
6.15601e-09
6.14861e-09
6.18971e-09
6.26496e-09
6.36275e-09
6.4737e-09
6.59017e-09
6.70612e-09
6.81685e-09
6.91887e-09
7.00982e-09
7.08826e-09
7.15357e-09
7.20579e-09
7.24549e-09
7.27361e-09
7.29115e-09
7.29907e-09
7.29969e-09
7.29376e-09
7.28232e-09
7.26632e-09
7.24651e-09
7.22345e-09
7.19745e-09
7.16864e-09
7.13695e-09
7.10214e-09
7.06381e-09
7.02142e-09
6.97436e-09
6.92189e-09
6.86325e-09
6.79765e-09
6.72428e-09
6.64236e-09
6.55113e-09
6.44993e-09
6.33816e-09
6.21533e-09
6.08109e-09
5.93521e-09
5.77761e-09
5.60838e-09
5.42779e-09
5.23628e-09
5.03453e-09
4.82339e-09
4.60402e-09
4.37783e-09
4.14655e-09
3.91233e-09
3.67772e-09
3.44581e-09
3.2203e-09
3.00564e-09
2.80728e-09
2.63198e-09
2.48853e-09
2.38959e-09
2.35288e-09
2.40824e-09
2.61562e-09
3.11666e-09
4.37655e-09
9.22744e-09
3.68883e-08
1.7346e-08
1.20152e-08
9.59831e-09
8.2581e-09
7.44585e-09
6.93901e-09
6.62832e-09
6.45254e-09
6.37363e-09
6.36331e-09
6.40291e-09
6.47767e-09
6.57562e-09
6.68709e-09
6.80423e-09
6.92081e-09
7.03203e-09
7.13433e-09
7.22532e-09
7.30355e-09
7.36843e-09
7.42005e-09
7.45905e-09
7.48642e-09
7.50319e-09
7.51045e-09
7.51064e-09
7.50443e-09
7.49298e-09
7.47726e-09
7.45806e-09
7.43594e-09
7.41124e-09
7.38407e-09
7.35434e-09
7.3218e-09
7.28598e-09
7.24633e-09
7.20214e-09
7.15264e-09
7.09697e-09
7.03426e-09
6.96361e-09
6.88414e-09
6.79503e-09
6.6955e-09
6.58489e-09
6.46263e-09
6.3283e-09
6.18162e-09
6.02249e-09
5.85096e-09
5.66727e-09
5.47187e-09
5.26539e-09
5.0487e-09
4.82292e-09
4.58945e-09
4.35001e-09
4.10672e-09
3.86217e-09
3.61947e-09
3.38245e-09
3.1557e-09
2.94492e-09
2.75721e-09
2.60181e-09
2.49187e-09
2.4463e-09
2.49566e-09
2.70212e-09
3.21175e-09
4.50343e-09
9.49042e-09
3.81631e-08
1.79453e-08
1.24305e-08
9.93036e-09
8.54388e-09
7.70318e-09
7.17794e-09
6.85508e-09
6.6712e-09
6.58707e-09
6.57361e-09
6.61137e-09
6.68526e-09
6.78295e-09
6.89449e-09
7.01186e-09
7.12866e-09
7.24e-09
7.34225e-09
7.43299e-09
7.51079e-09
7.57509e-09
7.62601e-09
7.66427e-09
7.69091e-09
7.70701e-09
7.71377e-09
7.71371e-09
7.70749e-09
7.69633e-09
7.68126e-09
7.6631e-09
7.64241e-09
7.61955e-09
7.59461e-09
7.5675e-09
7.53791e-09
7.50536e-09
7.46922e-09
7.42872e-09
7.383e-09
7.33114e-09
7.27214e-09
7.20502e-09
7.1288e-09
7.04252e-09
6.94533e-09
6.83646e-09
6.71526e-09
6.58125e-09
6.43408e-09
6.27363e-09
6.09992e-09
5.91321e-09
5.71392e-09
5.50271e-09
5.28044e-09
5.04824e-09
4.80749e-09
4.55991e-09
4.3076e-09
4.05314e-09
3.79968e-09
3.55109e-09
3.31214e-09
3.08871e-09
2.88825e-09