/*--------------------------------*- C++ -*----------------------------------*\
  =========                 |
  \\      /  F ield         | OpenFOAM: The Open Source CFD Toolbox
   \\    /   O peration     | Website:  https://openfoam.org
    \\  /    A nd           | Version:  12
     \\/     M anipulation  |
\*---------------------------------------------------------------------------*/
FoamFile
{
    format      ascii;
    class       surfaceScalarField;
    location    "2.5";
    object      phi;
}
// * * * * * * * * * * * * * * * * * * * * * * * * * * * * * * * * * * * * * //

dimensions      [0 3 -1 0 0 0 0];

internalField   nonuniform List<scalar> 
11100
(
2.93904e-10
-2.9418e-10
7.42731e-10
-4.4883e-10
1.06452e-09
-3.2179e-10
1.10575e-09
-4.12281e-11
7.99649e-10
3.06101e-10
1.27376e-10
6.72275e-10
-9.02925e-10
1.0303e-09
-2.26829e-09
1.36536e-09
-3.93811e-09
1.66982e-09
-5.8785e-09
1.94039e-09
-8.05486e-09
2.17636e-09
-1.04334e-08
2.37854e-09
-1.2982e-08
2.54857e-09
-1.56705e-08
2.68851e-09
-1.8471e-08
2.80054e-09
-2.13578e-08
2.88681e-09
-2.43072e-08
2.94931e-09
-2.72969e-08
2.98977e-09
-3.03066e-08
3.00966e-09
-3.33168e-08
3.01017e-09
-3.63089e-08
2.99217e-09
-3.92652e-08
2.9563e-09
-4.21682e-08
2.90293e-09
-4.50004e-08
2.83225e-09
-4.77447e-08
2.74428e-09
-5.03836e-08
2.63892e-09
-5.28997e-08
2.51604e-09
-5.52751e-08
2.37547e-09
-5.74922e-08
2.21708e-09
-5.9533e-08
2.04084e-09
-6.13799e-08
1.84684e-09
-6.30152e-08
1.63534e-09
-6.44221e-08
1.40685e-09
-6.55841e-08
1.16206e-09
-6.64861e-08
9.01982e-10
-6.7114e-08
6.27872e-10
-6.74554e-08
3.41367e-10
-6.75002e-08
4.48418e-11
-6.72399e-08
-2.60337e-10
-6.66689e-08
-5.70971e-10
-6.57846e-08
-8.8435e-10
-6.45872e-08
-1.19734e-09
-6.30806e-08
-1.50658e-09
-6.12721e-08
-1.8085e-09
-5.91727e-08
-2.09941e-09
-5.67972e-08
-2.37552e-09
-5.41642e-08
-2.63303e-09
-5.1296e-08
-2.86822e-09
-4.82185e-08
-3.07747e-09
-4.49611e-08
-3.25739e-09
-4.15562e-08
-3.40488e-09
-3.80391e-08
-3.51718e-09
-3.44471e-08
-3.59198e-09
-3.08196e-08
-3.62745e-09
-2.71973e-08
-3.62233e-09
-2.36214e-08
-3.57593e-09
-2.01332e-08
-3.48819e-09
-1.67735e-08
-3.35972e-09
-1.35817e-08
-3.19178e-09
-1.05954e-08
-2.98629e-09
-7.84956e-09
-2.74585e-09
-5.37588e-09
-2.47369e-09
-3.20215e-09
-2.17373e-09
-1.35157e-09
-1.85058e-09
1.58044e-10
-1.50962e-09
1.31517e-09
-1.15713e-09
2.11569e-09
-8.00521e-10
2.56453e-09
-4.48836e-10
2.678e-09
-1.13469e-10
2.48734e-09
1.90653e-10
2.04417e-09
4.43177e-10
1.42844e-09
6.15728e-10
7.60559e-10
6.67877e-10
2.16801e-10
5.43757e-10
2.16801e-10
4.51987e-10
-7.46172e-10
1.00782e-09
-1.00466e-09
1.15224e-09
-4.66217e-10
5.93325e-10
5.17692e-10
-8.196e-10
1.71903e-09
-3.14271e-09
2.99539e-09
-6.37098e-09
4.25857e-09
-1.04612e-08
5.45556e-09
-1.53475e-08
6.55612e-09
-2.09518e-08
7.54473e-09
-2.71907e-08
8.41526e-09
-3.39797e-08
9.16749e-09
-4.12359e-08
9.8048e-09
-4.888e-08
1.03326e-08
-5.68367e-08
1.07572e-08
-6.50352e-08
1.10854e-08
-7.34092e-08
1.13232e-08
-8.1896e-08
1.14766e-08
-9.04368e-08
1.15504e-08
-9.89753e-08
1.15487e-08
-1.07458e-07
1.14746e-08
-1.15832e-07
1.13305e-08
-1.24047e-07
1.11177e-08
-1.32052e-07
1.08373e-08
-1.39797e-07
1.04896e-08
-1.47233e-07
1.00744e-08
-1.54308e-07
9.59176e-09
-1.60974e-07
9.04134e-09
-1.6718e-07
8.42313e-09
-1.72877e-07
7.73745e-09
-1.78015e-07
6.9851e-09
-1.82547e-07
6.16751e-09
-1.86427e-07
5.28692e-09
-1.89612e-07
4.34644e-09
-1.9206e-07
3.35016e-09
-1.93735e-07
2.3032e-09
-1.94606e-07
1.21188e-09
-1.94645e-07
8.43474e-11
-1.93834e-07
-1.07191e-09
-1.92158e-07
-2.24671e-09
-1.89613e-07
-3.42934e-09
-1.86202e-07
-4.60815e-09
-1.81938e-07
-5.77069e-09
-1.76843e-07
-6.90385e-09
-1.70948e-07
-7.99407e-09
-1.64296e-07
-9.02753e-09
-1.56939e-07
-9.99043e-09
-1.48938e-07
-1.08692e-08
-1.40364e-07
-1.16508e-08
-1.31299e-07
-1.2323e-08
-1.21829e-07
-1.28745e-08
-1.12051e-07
-1.32956e-08
-1.02065e-07
-1.35778e-08
-9.19774e-08
-1.37149e-08
-8.18976e-08
-1.37021e-08
-7.19363e-08
-1.35373e-08
-6.22041e-08
-1.32204e-08
-5.281e-08
-1.27538e-08
-4.38595e-08
-1.21423e-08
-3.54527e-08
-1.13931e-08
-2.76823e-08
-1.05162e-08
-2.06322e-08
-9.5238e-09
-1.43752e-08
-8.43077e-09
-8.97108e-09
-7.25466e-09
-4.46471e-09
-6.01599e-09
-8.83199e-10
-4.73864e-09
1.76695e-09
-3.45067e-09
3.5037e-09
-2.18559e-09
4.37465e-09
-9.84419e-10
4.46388e-09
1.01419e-10
3.90123e-09
1.00583e-09
2.87419e-09
1.64277e-09
1.64158e-09
1.90049e-09
5.42309e-10
1.64303e-09
7.59109e-10
3.29445e-10
-1.07562e-09
4.76786e-10
-1.15201e-09
-1.14908e-10
1.25478e-10
-1.77954e-09
2.18232e-09
-4.70121e-09
4.64071e-09
-8.9553e-09
7.24947e-09
-1.45403e-08
9.84362e-09
-2.14028e-08
1.2318e-08
-2.94556e-08
1.46089e-08
-3.85914e-08
1.66805e-08
-4.86919e-08
1.85158e-08
-5.96347e-08
2.01103e-08
-7.12975e-08
2.14676e-08
-8.3561e-08
2.25961e-08
-9.63103e-08
2.35065e-08
-1.09436e-07
2.42109e-08
-1.22834e-07
2.4721e-08
-1.36405e-07
2.50478e-08
-1.50055e-07
2.52008e-08
-1.63695e-07
2.51881e-08
-1.77236e-07
2.5016e-08
-1.90595e-07
2.46894e-08
-2.03689e-07
2.42115e-08
-2.16436e-07
2.35844e-08
-2.28756e-07
2.28093e-08
-2.40568e-07
2.18865e-08
-2.51792e-07
2.08163e-08
-2.6235e-07
1.95988e-08
-2.72161e-07
1.82346e-08
-2.81149e-07
1.6725e-08
-2.89236e-07
1.50725e-08
-2.96349e-07
1.32808e-08
-3.02418e-07
1.13554e-08
-3.07375e-07
9.30356e-09
-3.11159e-07
7.1346e-09
-3.13716e-07
4.86009e-09
-3.14998e-07
2.494e-09
-3.14967e-07
5.28414e-11
-3.13594e-07
-2.44525e-09
-3.10861e-07
-4.97934e-09
-3.06764e-07
-7.52647e-09
-3.0131e-07
-1.00619e-08
-2.94522e-07
-1.25591e-08
-2.86435e-07
-1.49905e-08
-2.77102e-07
-1.73275e-08
-2.66588e-07
-1.95411e-08
-2.54976e-07
-2.16025e-08
-2.42362e-07
-2.34832e-08
-2.28857e-07
-2.51561e-08
-2.14584e-07
-2.65955e-08
-1.9968e-07
-2.77784e-08
-1.84292e-07
-2.86841e-08
-1.68574e-07
-2.92955e-08
-1.5269e-07
-2.95994e-08
-1.36805e-07
-2.95863e-08
-1.21091e-07
-2.92519e-08
-1.05715e-07
-2.85961e-08
-9.08445e-08
-2.76243e-08
-7.66398e-08
-2.6347e-08
-6.32533e-08
-2.47797e-08
-5.0826e-08
-2.29435e-08
-3.9485e-08
-2.08649e-08
-2.93399e-08
-1.85758e-08
-2.04805e-08
-1.61141e-08
-1.29729e-08
-1.35237e-08
-6.85577e-09
-1.08557e-08
-2.13664e-09
-8.1698e-09
1.21375e-09
-5.53599e-09
3.26737e-09
-3.03804e-09
4.14655e-09
-7.77756e-10
4.03312e-09
1.11926e-09
3.1789e-09
2.49698e-09
1.91636e-09
3.16303e-09
6.70482e-10
2.8889e-09
1.42959e-09
4.89262e-11
-1.12455e-09
-5.19104e-10
-5.83982e-10
-2.20661e-09
1.81299e-09
-5.32927e-09
5.30498e-09
-1.00645e-08
9.37594e-09
-1.64843e-08
1.36692e-08
-2.45812e-08
1.79405e-08
-3.42906e-08
2.20275e-08
-4.55086e-08
2.58269e-08
-5.81058e-08
2.92776e-08
-7.19377e-08
3.23477e-08
-8.68528e-08
3.50254e-08
-1.02697e-07
3.73122e-08
-1.1932e-07
3.92184e-08
-1.36572e-07
4.07587e-08
-1.54311e-07
4.19505e-08
-1.72402e-07
4.28112e-08
-1.90711e-07
4.33575e-08
-2.09115e-07
4.36042e-08
-2.27491e-07
4.3564e-08
-2.45722e-07
4.32471e-08
-2.63694e-07
4.26613e-08
-2.81295e-07
4.18122e-08
-2.98414e-07
4.07036e-08
-3.14942e-07
3.93379e-08
-3.30772e-07
3.77165e-08
-3.45796e-07
3.58403e-08
-3.59908e-07
3.37105e-08
-3.73003e-07
3.13292e-08
-3.84977e-07
2.86995e-08
-3.95731e-07
2.58266e-08
-4.05168e-07
2.27178e-08
-4.13196e-07
1.93832e-08
-4.19729e-07
1.58363e-08
-4.24688e-07
1.20936e-08
-4.28003e-07
8.17558e-09
-4.29616e-07
4.10643e-09
-4.29477e-07
-8.57127e-11
-4.27553e-07
-4.36919e-09
-4.23824e-07
-8.70851e-09
-4.18286e-07
-1.30648e-08
-4.10951e-07
-1.73962e-08
-4.01852e-07
-2.16581e-08
-3.91038e-07
-2.58043e-08
-3.78579e-07
-2.97867e-08
-3.64563e-07
-3.35571e-08
-3.49099e-07
-3.70671e-08
-3.32313e-07
-4.02695e-08
-3.14349e-07
-4.31192e-08
-2.95371e-07
-4.55737e-08
-2.75555e-07
-4.75945e-08
-2.55092e-07
-4.91476e-08
-2.34182e-07
-5.02048e-08
-2.13038e-07
-5.07438e-08
-1.91875e-07
-5.07497e-08
-1.70912e-07
-5.02149e-08
-1.50368e-07
-4.91401e-08
-1.30458e-07
-4.75342e-08
-1.1139e-07
-4.54151e-08
-9.33599e-08
-4.28094e-08
-7.65506e-08
-3.97528e-08
-6.11252e-08
-3.62902e-08
-4.72251e-08
-3.24759e-08
-3.49653e-08
-2.83739e-08
-2.44302e-08
-2.40587e-08
-1.56696e-08
-1.96164e-08
-8.69309e-09
-1.51463e-08
-3.46516e-09
-1.07639e-08
1.01388e-10
-6.6046e-09
2.15238e-09
-2.82875e-09
2.90003e-09
3.7161e-10
2.6316e-09
2.76541e-09
1.71898e-09
4.07564e-09
6.34956e-10
3.97293e-09
2.06455e-09
-3.09231e-10
-8.15327e-10
-1.77321e-09
8.79993e-10
-4.78801e-09
4.82779e-09
-9.61018e-09
1.01272e-08
-1.63815e-08
1.61473e-08
-2.51505e-08
2.24382e-08
-3.58918e-08
2.86818e-08
-4.85243e-08
3.466e-08
-6.29265e-08
4.02291e-08
-7.89494e-08
4.53005e-08
-9.64267e-08
4.98251e-08
-1.15183e-07
5.37816e-08
-1.35039e-07
5.71682e-08
-1.55816e-07
5.99955e-08
-1.77339e-07
6.22816e-08
-1.99437e-07
6.40484e-08
-2.21945e-07
6.53191e-08
-2.44703e-07
6.6116e-08
-2.67558e-07
6.64595e-08
-2.90361e-07
6.6367e-08
-3.12967e-07
6.58528e-08
-3.35234e-07
6.49283e-08
-3.57024e-07
6.36018e-08
-3.78199e-07
6.1879e-08
-3.98625e-07
5.97642e-08
-4.18169e-07
5.726e-08
-4.36698e-07
5.4369e-08
-4.54081e-07
5.10942e-08
-4.70192e-07
4.74395e-08
-4.84903e-07
4.34111e-08
-4.98095e-07
3.90179e-08
-5.09649e-07
3.42723e-08
-5.19456e-07
2.91906e-08
-5.27414e-07
2.37939e-08
-5.33429e-07
1.81083e-08
-5.37418e-07
1.21651e-08
-5.39313e-07
6.00137e-09
-5.39059e-07
-3.40476e-10
-5.36615e-07
-6.8125e-09
-5.31962e-07
-1.33615e-08
-5.25098e-07
-1.99294e-08
-5.1604e-07
-2.64539e-08
-5.04829e-07
-3.2869e-08
-4.91528e-07
-3.91058e-08
-4.76221e-07
-4.50936e-08
-4.59017e-07
-5.07611e-08
-4.40046e-07
-5.60372e-08
-4.19463e-07
-6.08525e-08
-3.97442e-07
-6.51404e-08
-3.74177e-07
-6.88387e-08
-3.49881e-07
-7.1891e-08
-3.24781e-07
-7.42473e-08
-2.9912e-07
-7.58662e-08
-2.73148e-07
-7.67153e-08
-2.47125e-07
-7.67727e-08
-2.21313e-07
-7.60274e-08
-1.95972e-07
-7.44806e-08
-1.7136e-07
-7.21458e-08
-1.47726e-07
-6.90496e-08
-1.25304e-07
-6.52316e-08
-1.04311e-07
-6.0745e-08
-8.4945e-08
-5.56567e-08
-6.73735e-08
-5.00474e-08
-5.1735e-08
-4.40124e-08
-3.81315e-08
-3.76622e-08
-2.66244e-08
-3.11235e-08
-1.72287e-08
-2.4542e-08
-9.90821e-09
-1.80844e-08
-4.56929e-09
-1.19435e-08
-1.05508e-09
-6.34297e-09
8.61109e-10
-1.54458e-09
1.48262e-09
2.1439e-09
1.19794e-09
4.36031e-09
4.95831e-10
4.67504e-09
2.56038e-09
-7.0254e-10
-1.12795e-10
-3.16129e-09
3.33874e-09
-7.64402e-09
9.31052e-09
-1.43236e-08
1.68068e-08
-2.32853e-08
2.51089e-08
-3.45378e-08
3.36907e-08
-4.80265e-08
4.21706e-08
-6.36468e-08
5.02803e-08
-8.12562e-08
5.78385e-08
-1.00686e-07
6.473e-08
-1.21749e-07
7.08882e-08
-1.44249e-07
7.62817e-08
-1.67985e-07
8.09042e-08
-1.92755e-07
8.47658e-08
-2.18361e-07
8.78873e-08
-2.44607e-07
9.02949e-08
-2.71305e-07
9.20168e-08
-2.9827e-07
9.30809e-08
-3.25323e-07
9.35129e-08
-3.52292e-07
9.33351e-08
-3.79005e-07
9.25662e-08
-4.05297e-07
9.12209e-08
-4.31006e-07
8.93106e-08
-4.55971e-07
8.68435e-08
-4.80033e-07
8.38259e-08
-5.03035e-07
8.02625e-08
-5.24824e-07
7.61578e-08
-5.45247e-07
7.15171e-08
-5.64155e-07
6.63475e-08
-5.81403e-07
6.0659e-08
-5.9685e-07
5.44653e-08
-6.10363e-07
4.77852e-08
-6.21815e-07
4.06426e-08
-6.31089e-07
3.30682e-08
-6.3808e-07
2.5099e-08
-6.42694e-07
1.67796e-08
-6.44855e-07
8.16179e-09
-6.445e-07
-6.95127e-10
-6.41588e-07
-9.72454e-09
-6.36097e-07
-1.88529e-08
-6.28026e-07
-2.80001e-08
-6.174e-07
-3.70805e-08
-6.04265e-07
-4.60035e-08
-5.88696e-07
-5.4675e-08
-5.70791e-07
-6.29985e-08
-5.50676e-07
-7.08764e-08
-5.28501e-07
-7.8212e-08
-5.04443e-07
-8.49108e-08
-4.78701e-07
-9.08821e-08
-4.51498e-07
-9.60415e-08
-4.23077e-07
-1.00312e-07
-3.93699e-07
-1.03626e-07
-3.63639e-07
-1.05926e-07
-3.33184e-07
-1.0717e-07
-3.02631e-07
-1.07326e-07
-2.72278e-07
-1.0638e-07
-2.42424e-07
-1.04334e-07
-2.13364e-07
-1.01206e-07
-1.85381e-07
-9.70327e-08
-1.58744e-07
-9.18678e-08
-1.33705e-07
-8.57844e-08
-1.10488e-07
-7.88741e-08
-8.92874e-08
-7.12476e-08
-7.02648e-08
-6.30351e-08
-5.35398e-08
-5.43872e-08
-3.91873e-08
-4.5476e-08
-2.72316e-08
-3.64976e-08
-1.76414e-08
-2.76747e-08
-1.03244e-08
-1.92605e-08
-5.12259e-09
-1.15448e-08
-1.80707e-09
-4.8601e-09
-7.27503e-11
4.09583e-10
4.67857e-10
3.8197e-09
2.94766e-10
4.84813e-09
2.85514e-09
-1.108e-09
9.95197e-10
-4.60879e-09
6.83953e-09
-1.06369e-08
1.53387e-08
-1.92689e-08
2.54388e-08
-3.05197e-08
3.63597e-08
-4.43461e-08
4.75171e-08
-6.06545e-08
5.84791e-08
-7.93098e-08
6.89355e-08
-1.00144e-07
7.8673e-08
-1.22967e-07
8.75525e-08
-1.4757e-07
9.54917e-08
-1.73738e-07
1.0245e-07
-2.01249e-07
1.08415e-07
-2.29882e-07
1.13399e-07
-2.59418e-07
1.17423e-07
-2.8964e-07
1.20517e-07
-3.20338e-07
1.22715e-07
-3.51307e-07
1.2405e-07
-3.82345e-07
1.24552e-07
-4.13258e-07
1.24248e-07
-4.43854e-07
1.23162e-07
-4.73945e-07
1.21312e-07
-5.03347e-07
1.18712e-07
-5.31878e-07
1.15374e-07
-5.59357e-07
1.11306e-07
-5.85609e-07
1.06514e-07
-6.10458e-07
1.01007e-07
-6.33733e-07
9.4792e-08
-6.55266e-07
8.78806e-08
-6.74894e-07
8.02872e-08
-6.92461e-07
7.20318e-08
-7.07816e-07
6.31402e-08
-7.20819e-07
5.36458e-08
-7.31341e-07
4.35899e-08
-7.39264e-07
3.30225e-08
-7.44487e-07
2.20028e-08
-7.46925e-07
1.05995e-08
-7.46511e-07
-1.10912e-09
-7.432e-07
-1.30357e-08
-7.36969e-07
-2.50841e-08
-7.27819e-07
-3.71497e-08
-7.15778e-07
-4.91212e-08
-7.00901e-07
-6.08809e-08
-6.83269e-07
-7.23069e-08
-6.62994e-07
-8.3274e-08
-6.40214e-07
-9.36563e-08
-6.15097e-07
-1.03328e-07
-5.8784e-07
-1.12168e-07
-5.58663e-07
-1.20059e-07
-5.27813e-07
-1.26891e-07
-4.95559e-07
-1.32566e-07
-4.6219e-07
-1.36994e-07
-4.28012e-07
-1.40104e-07
-3.93344e-07
-1.41838e-07
-3.58513e-07
-1.42157e-07
-3.23852e-07
-1.41041e-07
-2.89694e-07
-1.38493e-07
-2.56365e-07
-1.34535e-07
-2.24183e-07
-1.29214e-07
-1.9345e-07
-1.22601e-07
-1.64445e-07
-1.1479e-07
-1.37421e-07
-1.05898e-07
-1.126e-07
-9.60689e-08
-9.0164e-08
-8.5471e-08
-7.02532e-08
-7.42979e-08
-5.29586e-08
-6.27706e-08
-3.83175e-08
-5.11387e-08
-2.63089e-08
-3.96833e-08
-1.68488e-08
-2.87207e-08
-9.78593e-09
-1.86076e-08
-4.89867e-09
-9.74736e-09
-1.89122e-09
-2.59787e-09
-3.90398e-10
2.31888e-09
5.89438e-11
4.39879e-09
2.91409e-09
-1.5133e-09
2.50849e-09
-6.07159e-09
1.13978e-08
-1.36797e-08
2.29467e-08
-2.43129e-08
3.60719e-08
-3.79077e-08
4.99546e-08
-5.4361e-08
6.39704e-08
-7.35324e-08
7.76504e-08
-9.52501e-08
9.06531e-08
-1.19317e-07
1.0274e-07
-1.45517e-07
1.13752e-07
-1.73621e-07
1.23596e-07
-2.03393e-07
1.32222e-07
-2.34593e-07
1.39615e-07
-2.6698e-07
1.45786e-07
-3.00318e-07
1.5076e-07
-3.34371e-07
1.54571e-07
-3.68911e-07
1.57255e-07
-4.03714e-07
1.58852e-07
-4.38559e-07
1.59397e-07
-4.73232e-07
1.58921e-07
-5.07522e-07
1.57453e-07
-5.41223e-07
1.55013e-07
-5.7413e-07
1.5162e-07
-6.06043e-07
1.47287e-07
-6.36763e-07
1.42025e-07
-6.66094e-07
1.35846e-07
-6.93845e-07
1.28757e-07
-7.19826e-07
1.20773e-07
-7.43852e-07
1.11907e-07
-7.65746e-07
1.02181e-07
-7.85334e-07
9.16203e-08
-8.02455e-07
8.02603e-08
-8.16953e-07
6.81443e-08
-8.28689e-07
5.53256e-08
-8.37535e-07
4.18686e-08
-8.43381e-07
2.78489e-08
-8.46135e-07
1.33535e-08
-8.45725e-07
-1.51879e-09
-8.42103e-07
-1.66579e-08
-8.35244e-07
-3.19429e-08
-8.25151e-07
-4.72433e-08
-8.11853e-07
-6.24194e-08
-7.95409e-07
-7.73247e-08
-7.75909e-07
-9.18069e-08
-7.53473e-07
-1.0571e-07
-7.28251e-07
-1.18878e-07
-7.00426e-07
-1.31154e-07
-6.70208e-07
-1.42386e-07
-6.37838e-07
-1.52429e-07
-6.03583e-07
-1.61146e-07
-5.67735e-07
-1.68414e-07
-5.30607e-07
-1.74122e-07
-4.92531e-07
-1.7818e-07
-4.53854e-07
-1.80515e-07
-4.14934e-07
-1.81077e-07
-3.76133e-07
-1.79843e-07
-3.37814e-07
-1.76811e-07
-3.00337e-07
-1.72012e-07
-2.64049e-07
-1.65503e-07
-2.29282e-07
-1.57368e-07
-1.96345e-07
-1.47726e-07
-1.65521e-07
-1.36722e-07
-1.37055e-07
-1.24534e-07
-1.11156e-07
-1.1137e-07
-8.7984e-08
-9.74699e-08
-6.76498e-08
-8.31048e-08
-5.02081e-08
-6.85804e-08
-3.5653e-08
-5.42384e-08
-2.39143e-08
-4.04593e-08
-1.48547e-08
-2.76672e-08
-8.26703e-09
-1.63351e-08
-3.8729e-09
-6.992e-09
-1.32241e-09
-2.31615e-10
-1.94425e-10
3.2708e-09
2.71966e-09
-1.91197e-09
4.42044e-09
-7.52396e-09
1.70098e-08
-1.6718e-08
3.21407e-08
-2.93679e-08
4.87219e-08
-4.53284e-08
6.59151e-08
-6.44307e-08
8.30727e-08
-8.64824e-08
9.97022e-08
-1.1127e-07
1.15441e-07
-1.38564e-07
1.30033e-07
-1.68119e-07
1.43308e-07
-1.99684e-07
1.55161e-07
-2.33003e-07
1.6554e-07
-2.67815e-07
1.74428e-07
-3.03864e-07
1.81836e-07
-3.40895e-07
1.87791e-07
-3.78658e-07
1.92333e-07
-4.16906e-07
1.95503e-07
-4.55398e-07
1.97345e-07
-4.939e-07
1.97898e-07
-5.32178e-07
1.972e-07
-5.70006e-07
1.9528e-07
-6.0716e-07
1.92166e-07
-6.43418e-07
1.87878e-07
-6.78564e-07
1.82432e-07
-7.12382e-07
1.75843e-07
-7.4466e-07
1.68124e-07
-7.7519e-07
1.59288e-07
-8.03768e-07
1.4935e-07
-8.30193e-07
1.38333e-07
-8.54274e-07
1.26262e-07
-8.75824e-07
1.13171e-07
-8.94668e-07
9.91041e-08
-9.10641e-07
8.41167e-08
-9.2359e-07
6.8275e-08
-9.3338e-07
5.16586e-08
-9.39892e-07
3.43607e-08
-9.43026e-07
1.64881e-08
-9.42707e-07
-1.83838e-09
-9.3888e-07
-2.04846e-08
-9.31519e-07
-3.93034e-08
-9.20626e-07
-5.81363e-08
-9.06232e-07
-7.6814e-08
-8.88397e-07
-9.5159e-08
-8.67217e-07
-1.12987e-07
-8.42818e-07
-1.30109e-07
-8.1536e-07
-1.46336e-07
-7.85034e-07
-1.61479e-07
-7.52067e-07
-1.75354e-07
-7.16712e-07
-1.87784e-07
-6.79255e-07
-1.98604e-07
-6.40007e-07
-2.07662e-07
-5.99302e-07
-2.14827e-07
-5.57498e-07
-2.19984e-07
-5.14966e-07
-2.23047e-07
-4.7209e-07
-2.23953e-07
-4.29262e-07
-2.22671e-07
-3.86874e-07
-2.19199e-07
-3.45315e-07
-2.13571e-07
-3.04963e-07
-2.05854e-07
-2.66181e-07
-1.9615e-07
-2.29308e-07
-1.84599e-07
-1.94654e-07
-1.71376e-07
-1.62493e-07
-1.56695e-07
-1.3306e-07
-1.40804e-07
-1.06539e-07
-1.2399e-07
-8.30651e-08
-1.06579e-07
-6.27126e-08
-8.8933e-08
-4.54959e-08
-7.14551e-08
-3.1364e-08
-5.45912e-08
-2.01986e-08
-3.88326e-08
-1.18129e-08
-2.47208e-08
-5.95159e-09
-1.28533e-08
-2.29342e-09
-3.88978e-09
-4.5498e-10
1.43236e-09
2.26468e-09
-2.30081e-09
6.72123e-09
-8.95117e-09
2.36601e-08
-1.97181e-08
4.29077e-08
-3.43768e-08
6.33805e-08
-5.26989e-08
8.42372e-08
-7.44474e-08
1.04821e-07
-9.93746e-08
1.24629e-07
-1.27222e-07
1.43289e-07
-1.57723e-07
1.60534e-07
-1.90604e-07
1.76188e-07
-2.25587e-07
1.90144e-07
-2.62394e-07
2.02347e-07
-3.00749e-07
2.12782e-07
-3.40376e-07
2.21463e-07
-3.81005e-07
2.2842e-07
-4.2237e-07
2.33698e-07
-4.64211e-07
2.37344e-07
-5.06273e-07
2.39406e-07
-5.48303e-07
2.39929e-07
-5.90058e-07
2.38954e-07
-6.31293e-07
2.36516e-07
-6.71771e-07
2.32644e-07
-7.11256e-07
2.27363e-07
-7.49516e-07
2.20692e-07
-7.86321e-07
2.12648e-07
-8.21444e-07
2.03248e-07
-8.54664e-07
1.92508e-07
-8.85763e-07
1.80449e-07
-9.14526e-07
1.67096e-07
-9.40749e-07
1.52484e-07
-9.64233e-07
1.36655e-07
-9.84792e-07
1.19662e-07
-1.00225e-06
1.01573e-07
-1.01644e-06
8.24675e-08
-1.02722e-06
6.24418e-08
-1.03447e-06
4.16073e-08
-1.03807e-06
2.00918e-08
-1.03795e-06
-1.96093e-09
-1.03404e-06
-2.43913e-08
-1.02632e-06
-4.7025e-08
-1.01479e-06
-6.96739e-08
-9.99462e-07
-9.21378e-08
-9.80414e-07
-1.14206e-07
-9.57739e-07
-1.35662e-07
-9.31568e-07
-1.56281e-07
-9.02065e-07
-1.75839e-07
-8.69431e-07
-1.94113e-07
-8.33901e-07
-2.10884e-07
-7.95743e-07
-2.25942e-07
-7.55256e-07
-2.39091e-07
-7.12767e-07
-2.50151e-07
-6.68632e-07
-2.58961e-07
-6.23228e-07
-2.65389e-07
-5.7695e-07
-2.69325e-07
-5.30208e-07
-2.70695e-07
-4.8342e-07
-2.69459e-07
-4.37008e-07
-2.65611e-07
-3.91391e-07
-2.59189e-07
-3.46976e-07
-2.50268e-07
-3.04159e-07
-2.38968e-07
-2.63308e-07
-2.2545e-07
-2.24764e-07
-2.0992e-07
-1.88833e-07
-1.92626e-07
-1.55776e-07
-1.73861e-07
-1.25806e-07
-1.5396e-07
-9.90849e-08
-1.33301e-07
-7.57118e-08
-1.12306e-07
-5.57253e-08
-9.14417e-08
-3.90979e-08
-7.12186e-08
-2.57348e-08
-5.21956e-08
-1.54738e-08
-3.49818e-08
-8.08665e-09
-2.02405e-08
-3.28287e-09
-8.69356e-09
-7.16962e-10
-1.13355e-09
1.54772e-09
-2.6783e-09
9.39952e-09
-1.03448e-08
3.13266e-08
-2.26593e-08
5.52222e-08
-3.93018e-08
8.0023e-08
-5.99623e-08
1.04898e-07
-8.43346e-08
1.29194e-07
-1.12114e-07
1.52408e-07
-1.42994e-07
1.74169e-07
-1.76669e-07
1.94209e-07
-2.12835e-07
2.12354e-07
-2.51187e-07
2.28496e-07
-2.91425e-07
2.42585e-07
-3.33254e-07
2.5461e-07
-3.76381e-07
2.6459e-07
-4.20521e-07
2.72561e-07
-4.65395e-07
2.78572e-07
-5.10728e-07
2.82677e-07
-5.56252e-07
2.8493e-07
-6.01704e-07
2.85381e-07
-6.46825e-07
2.84074e-07
-6.9136e-07
2.81051e-07
-7.35057e-07
2.76342e-07
-7.77669e-07
2.69975e-07
-8.1895e-07
2.61973e-07
-8.58658e-07
2.52356e-07
-8.96554e-07
2.41144e-07
-9.32404e-07
2.28357e-07
-9.65975e-07
2.1402e-07
-9.97045e-07
1.98166e-07
-1.02539e-06
1.80834e-07
-1.05081e-06
1.62076e-07
-1.07311e-06
1.41955e-07
-1.09209e-06
1.20552e-07
-1.10758e-06
9.79604e-08
-1.11943e-06
7.42937e-08
-1.12751e-06
4.96823e-08
-1.13169e-06
2.42755e-08
-1.13189e-06
-1.75916e-09
-1.12805e-06
-2.8236e-08
-1.12012e-06
-5.49523e-08
-1.1081e-06
-8.16895e-08
-1.09203e-06
-1.08215e-07
-1.07195e-06
-1.34285e-07
-1.04796e-06
-1.59646e-07
-1.02021e-06
-1.84039e-07
-9.88844e-07
-2.07202e-07
-9.54082e-07
-2.28875e-07
-9.16163e-07
-2.48803e-07
-8.75363e-07
-2.66742e-07
-8.31994e-07
-2.8246e-07
-7.86399e-07
-2.95746e-07
-7.38948e-07
-3.06412e-07
-6.9004e-07
-3.14297e-07
-6.40091e-07
-3.19274e-07
-5.89535e-07
-3.2125e-07
-5.38819e-07
-3.20175e-07
-4.88391e-07
-3.16039e-07
-4.38701e-07
-3.08879e-07
-3.9019e-07
-2.9878e-07
-3.43282e-07
-2.85876e-07
-2.98381e-07
-2.70351e-07
-2.5586e-07
-2.5244e-07
-2.16058e-07
-2.32428e-07
-1.79269e-07
-2.1065e-07
-1.45737e-07
-1.87492e-07
-1.15652e-07
-1.63385e-07
-8.91449e-08
-1.38813e-07
-6.62814e-08
-1.14305e-07
-4.70616e-08
-9.04384e-08
-3.1418e-08
-6.78392e-08
-1.9216e-08
-4.71838e-08
-1.02564e-08
-2.92e-08
-4.28034e-09
-1.46697e-08
-9.77694e-10
-4.4362e-09
5.70023e-10
-3.04382e-09
1.24433e-08
-1.17001e-08
3.99829e-08
-2.55283e-08
6.90504e-08
-4.41179e-08
9.86126e-08
-6.70789e-08
1.27859e-07
-9.40367e-08
1.56151e-07
-1.24628e-07
1.83e-07
-1.58499e-07
2.0804e-07
-1.95304e-07
2.31014e-07
-2.34705e-07
2.51754e-07
-2.7637e-07
2.70162e-07
-3.19976e-07
2.86192e-07
-3.65209e-07
2.99843e-07
-4.11761e-07
3.11141e-07
-4.5933e-07
3.20131e-07
-5.07626e-07
3.26868e-07
-5.56361e-07
3.31412e-07
-6.05256e-07
3.33825e-07
-6.54035e-07
3.3416e-07
-7.0243e-07
3.32469e-07
-7.50174e-07
3.28795e-07
-7.97006e-07
3.23173e-07
-8.42665e-07
3.15635e-07
-8.86897e-07
3.06205e-07
-9.29448e-07
2.94907e-07
-9.70067e-07
2.81763e-07
-1.00851e-06
2.66799e-07
-1.04453e-06
2.50044e-07
-1.0779e-06
2.31535e-07
-1.10839e-06
2.11321e-07
-1.13577e-06
1.8946e-07
-1.15985e-06
1.66028e-07
-1.18041e-06
1.41116e-07
-1.19729e-06
1.14835e-07
-1.21031e-06
8.73136e-08
-1.21933e-06
5.87021e-08
-1.22422e-06
2.91714e-08
-1.22489e-06
-1.08636e-09
-1.22127e-06
-3.1859e-08
-1.21331e-06
-6.29147e-08
-1.20099e-06
-9.40038e-08
-1.18435e-06
-1.2486e-07
-1.16343e-06
-1.55205e-07
-1.13833e-06
-1.84749e-07
-1.10917e-06
-2.13194e-07
-1.07613e-06
-2.40241e-07
-1.03941e-06
-2.65591e-07
-9.99268e-07
-2.88949e-07
-9.55975e-07
-3.10034e-07
-9.09858e-07
-3.28578e-07
-8.61269e-07
-3.44335e-07
-8.10597e-07
-3.57084e-07
-7.58255e-07
-3.66639e-07
-7.04683e-07
-3.72846e-07
-6.50339e-07
-3.75595e-07
-5.95695e-07
-3.7482e-07
-5.41229e-07
-3.70505e-07
-4.87422e-07
-3.62686e-07
-4.34747e-07
-3.51455e-07
-3.83665e-07
-3.36958e-07
-3.34614e-07
-3.19402e-07
-2.88005e-07
-2.9905e-07
-2.4421e-07
-2.76223e-07
-2.03561e-07
-2.513e-07
-1.66336e-07
-2.24716e-07
-1.32761e-07
-1.96961e-07
-1.02998e-07
-1.68576e-07
-7.71463e-08
-1.40157e-07
-5.52366e-08
-1.12348e-07
-3.72317e-08
-8.58441e-08
-2.3027e-08
-6.13885e-08
-1.24533e-08
-3.97737e-08
-5.28255e-09
-2.18404e-08
-1.23657e-09
-8.48218e-09
-6.66544e-10
-3.39709e-09
1.58404e-08
-1.30141e-08
4.95998e-08
-2.83165e-08
8.43529e-08
-4.88075e-08
1.19104e-07
-7.40201e-08
1.53071e-07
-1.03512e-07
1.85644e-07
-1.36864e-07
2.16351e-07
-1.73671e-07
2.44847e-07
-2.13549e-07
2.70892e-07
-2.56124e-07
2.94329e-07
-3.01038e-07
3.15076e-07
-3.47945e-07
3.33099e-07
-3.9651e-07
3.48409e-07
-4.4641e-07
3.61041e-07
-4.9733e-07
3.71051e-07
-5.48965e-07
3.78503e-07
-6.01019e-07
3.83466e-07
-6.532e-07
3.86006e-07
-7.05224e-07
3.86185e-07
-7.56813e-07
3.84058e-07
-8.07691e-07
3.79673e-07
-8.57588e-07
3.73069e-07
-9.06233e-07
3.6428e-07
-9.53363e-07
3.53335e-07
-9.98714e-07
3.40258e-07
-1.04203e-06
3.25077e-07
-1.08305e-06
3.07819e-07
-1.12152e-06
2.88519e-07
-1.15721e-06
2.67221e-07
-1.18987e-06
2.43977e-07
-1.21926e-06
2.18859e-07
-1.24518e-06
1.91949e-07
-1.26742e-06
1.63353e-07
-1.28578e-06
1.33195e-07
-1.30009e-06
1.01622e-07
-1.31019e-06
6.88034e-08
-1.31595e-06
3.49313e-08
-1.31726e-06
2.226e-10
-1.31404e-06
-3.50837e-08
-1.30622e-06
-7.07263e-08
-1.2938e-06
-1.06424e-07
-1.27679e-06
-1.41877e-07
-1.25522e-06
-1.76769e-07
-1.2292e-06
-2.10775e-07
-1.19884e-06
-2.43556e-07
-1.1643e-06
-2.74774e-07
-1.12581e-06
-3.04088e-07
-1.08359e-06
-3.31163e-07
-1.03795e-06
-3.55676e-07
-9.89208e-07
-3.77321e-07
-9.37728e-07
-3.95814e-07
-8.83912e-07
-4.109e-07
-8.28191e-07
-4.22359e-07
-7.71025e-07
-4.30012e-07
-7.12895e-07
-4.33724e-07
-6.543e-07
-4.33415e-07
-5.95749e-07
-4.29056e-07
-5.37755e-07
-4.2068e-07
-4.80828e-07
-4.08383e-07
-4.25463e-07
-3.92323e-07
-3.72139e-07
-3.72726e-07
-3.21305e-07
-3.49884e-07
-2.73374e-07
-3.24153e-07
-2.28717e-07
-2.95957e-07
-1.87654e-07
-2.6578e-07
-1.50446e-07
-2.34168e-07
-1.17296e-07
-2.01727e-07
-8.83357e-08
-1.69117e-07
-6.36325e-08
-1.37051e-07
-4.31818e-08
-1.06295e-07
-2.69105e-08
-7.76597e-08
-1.46799e-08
-5.20043e-08
-6.29127e-09
-3.02291e-08
-1.4944e-09
-1.3279e-08
-2.16095e-09
-3.73798e-09
1.95783e-08
-1.42849e-08
6.01467e-08
-3.10178e-08
1.01086e-07
-5.33577e-08
1.41444e-07
-8.0764e-08
1.80478e-07
-1.12729e-07
2.17609e-07
-1.48777e-07
2.52398e-07
-1.88455e-07
2.84526e-07
-2.31337e-07
3.13774e-07
-2.77017e-07
3.40009e-07
-3.25108e-07
3.63167e-07
-3.75242e-07
3.83233e-07
-4.27063e-07
4.0023e-07
-4.80233e-07
4.14211e-07
-5.34424e-07
4.25241e-07
-5.89319e-07
4.33398e-07
-6.44611e-07
4.38758e-07
-7e-07
4.41395e-07
-7.55195e-07
4.4138e-07
-8.09907e-07
4.38771e-07
-8.63855e-07
4.33621e-07
-9.16758e-07
4.25973e-07
-9.68341e-07
4.15864e-07
-1.01833e-06
4.03325e-07
-1.06646e-06
3.88384e-07
-1.11245e-06
3.71072e-07
-1.15605e-06
3.51418e-07
-1.197e-06
3.29464e-07
-1.23503e-06
3.05256e-07
-1.26991e-06
2.78856e-07
-1.30139e-06
2.50341e-07
-1.32925e-06
2.19806e-07
-1.35326e-06
1.87367e-07
-1.37323e-06
1.53164e-07
-1.38897e-06
1.17359e-07
-1.40031e-06
8.01416e-08
-1.4071e-06
4.1725e-08
-1.40923e-06
2.3501e-09
-1.4066e-06
-3.7717e-08
-1.39914e-06
-7.81857e-08
-1.38682e-06
-1.18743e-07
-1.36964e-06
-1.59054e-07
-1.34764e-06
-1.98767e-07
-1.3209e-06
-2.37516e-07
-1.28953e-06
-2.74925e-07
-1.2537e-06
-3.1061e-07
-1.2136e-06
-3.44189e-07
-1.16948e-06
-3.75283e-07
-1.12163e-06
-4.03527e-07
-1.07038e-06
-4.2857e-07
-1.0161e-06
-4.50089e-07
-9.59212e-07
-4.67789e-07
-9.00156e-07
-4.81416e-07
-8.39412e-07
-4.90756e-07
-7.77484e-07
-4.95652e-07
-7.14899e-07
-4.95999e-07
-6.52198e-07
-4.91757e-07
-5.89928e-07
-4.8295e-07
-5.28636e-07
-4.69675e-07
-4.68858e-07
-4.521e-07
-4.11115e-07
-4.30469e-07
-3.559e-07
-4.05099e-07
-3.0367e-07
-3.76383e-07
-2.5484e-07
-3.44787e-07
-2.09774e-07
-3.10846e-07
-1.68777e-07
-2.75165e-07
-1.32091e-07
-2.38413e-07
-9.98913e-08
-2.01317e-07
-7.2281e-08
-1.64662e-07
-4.92913e-08
-1.29284e-07
-3.08825e-08
-9.60685e-08
-1.69464e-08
-6.59404e-08
-7.31183e-09
-3.98637e-08
-1.75296e-09
-1.88379e-08
-3.91391e-09
-4.06635e-09
2.36447e-08
-1.55109e-08
7.15912e-08
-3.36271e-08
1.19202e-07
-5.77582e-08
1.65575e-07
-8.72928e-08
2.10012e-07
-1.21661e-07
2.51977e-07
-1.6033e-07
2.91068e-07
-2.02803e-07
3.26998e-07
-2.48612e-07
3.59583e-07
-2.97318e-07
3.88715e-07
-3.48506e-07
4.14355e-07
-4.01784e-07
4.36511e-07
-4.5678e-07
4.55226e-07
-5.13139e-07
4.70569e-07
-5.70519e-07
4.82621e-07
-6.28593e-07
4.91472e-07
-6.87046e-07
4.9721e-07
-7.4557e-07
4.99919e-07
-8.03864e-07
4.99674e-07
-8.61635e-07
4.96542e-07
-9.18595e-07
4.9058e-07
-9.74456e-07
4.81835e-07
-1.02894e-06
4.70346e-07
-1.08176e-06
4.56148e-07
-1.13265e-06
4.39271e-07
-1.18132e-06
4.19748e-07
-1.22752e-06
3.97613e-07
-1.27096e-06
3.72909e-07
-1.3114e-06
3.4569e-07
-1.34857e-06
3.16022e-07
-1.38222e-06
2.83991e-07
-1.41211e-06
2.49701e-07
-1.43802e-06
2.1328e-07
-1.45974e-06
1.74881e-07
-1.47706e-06
1.34681e-07
-1.48981e-06
9.28883e-08
-1.49782e-06
4.97382e-08
-1.50097e-06
5.49452e-09
-1.49913e-06
-3.95502e-08
-1.49224e-06
-8.50764e-08
-1.48025e-06
-1.30739e-07
-1.46313e-06
-1.76168e-07
-1.44092e-06
-2.20976e-07
-1.41369e-06
-2.64755e-07
-1.38152e-06
-3.07088e-07
-1.34458e-06
-3.47549e-07
-1.30306e-06
-3.85708e-07
-1.2572e-06
-4.21143e-07
-1.20729e-06
-4.53439e-07
-1.15366e-06
-4.82202e-07
-1.09669e-06
-5.07062e-07
-1.03679e-06
-5.27682e-07
-9.74443e-07
-5.43767e-07
-9.10129e-07
-5.55069e-07
-8.44384e-07
-5.61398e-07
-7.7776e-07
-5.62623e-07
-7.10831e-07
-5.58686e-07
-6.44181e-07
-5.496e-07
-5.78396e-07
-5.3546e-07
-5.14058e-07
-5.16438e-07
-4.51733e-07
-4.92795e-07
-3.9196e-07
-4.64872e-07
-3.35248e-07
-4.33096e-07
-2.82059e-07
-3.97975e-07
-2.32807e-07
-3.60098e-07
-1.87845e-07
-3.20127e-07
-1.47462e-07
-2.78796e-07
-1.11875e-07
-2.36903e-07
-8.12302e-08
-1.95307e-07
-5.55963e-08
-1.54918e-07
-3.49682e-08
-1.16697e-07
-1.92684e-08
-8.16402e-08
-8.3522e-09
-5.07799e-08
-2.01464e-09
-2.51755e-08
-5.92854e-09
-4.38197e-09
2.80266e-08
-1.66905e-08
8.38997e-08
-3.61398e-08
1.38651e-07
-6.19994e-08
1.91434e-07
-9.35906e-08
2.41603e-07
-1.30283e-07
2.8867e-07
-1.71492e-07
3.32277e-07
-2.16674e-07
3.7218e-07
-2.65323e-07
4.08231e-07
-3.16966e-07
4.40359e-07
-3.71163e-07
4.68552e-07
-4.27498e-07
4.92846e-07
-4.8558e-07
5.13309e-07
-5.4504e-07
5.30029e-07
-6.05524e-07
5.43106e-07
-6.66696e-07
5.52644e-07
-7.28231e-07
5.58745e-07
-7.89814e-07
5.61502e-07
-8.51139e-07
5.60999e-07
-9.11908e-07
5.57311e-07
-9.71826e-07
5.50498e-07
-1.0306e-06
5.40611e-07
-1.08795e-06
5.27695e-07
-1.14359e-06
5.11784e-07
-1.19723e-06
4.92912e-07
-1.2486e-06
4.71114e-07
-1.29741e-06
4.46427e-07
-1.3434e-06
4.18898e-07
-1.38629e-06
3.88583e-07
-1.42582e-06
3.55555e-07
-1.46174e-06
3.19907e-07
-1.49379e-06
2.81751e-07
-1.52174e-06
2.41226e-07
-1.54535e-06
1.98496e-07
-1.56443e-06
1.53756e-07
-1.57877e-06
1.07229e-07
-1.5882e-06
5.91709e-08
-1.59257e-06
9.86852e-09
-1.59176e-06
-4.03602e-08
-1.58567e-06
-9.1167e-08
-1.57424e-06
-1.42175e-07
-1.55742e-06
-1.92981e-07
-1.53524e-06
-2.43157e-07
-1.50774e-06
-2.92258e-07
-1.47501e-06
-3.39822e-07
-1.43718e-06
-3.85378e-07
-1.39444e-06
-4.28449e-07