/*--------------------------------*- C++ -*----------------------------------*\
  =========                 |
  \\      /  F ield         | OpenFOAM: The Open Source CFD Toolbox
   \\    /   O peration     | Website:  https://openfoam.org
    \\  /    A nd           | Version:  12
     \\/     M anipulation  |
\*---------------------------------------------------------------------------*/
FoamFile
{
    format      ascii;
    class       volVectorField;
    location    "2.5";
    object      U;
}
// * * * * * * * * * * * * * * * * * * * * * * * * * * * * * * * * * * * * * //

dimensions      [0 1 -1 0 0 0 0];

internalField   nonuniform List<vector> 
5625
(
(8.86074e-06 -8.86614e-06 0)
(4.06422e-05 -1.27412e-05 0)
(7.11302e-05 -1.10126e-05 0)
(8.647e-05 -6.72918e-06 0)
(7.73992e-05 -1.72555e-06 0)
(4.08844e-05 3.31778e-06 0)
(-2.31643e-05 8.05724e-06 0)
(-0.000113406 1.23295e-05 0)
(-0.000227736 1.60787e-05 0)
(-0.00036368 1.93062e-05 0)
(-0.000518631 2.20403e-05 0)
(-0.000690002 2.4322e-05 0)
(-0.000875307 2.61961e-05 0)
(-0.00107221 2.77071e-05 0)
(-0.00127852 2.88963e-05 0)
(-0.00149224 2.98009e-05 0)
(-0.00171151 3.04531e-05 0)
(-0.00193461 3.08794e-05 0)
(-0.00215996 3.11012e-05 0)
(-0.00238605 3.11346e-05 0)
(-0.00261147 3.09912e-05 0)
(-0.00283487 3.06779e-05 0)
(-0.00305491 3.01981e-05 0)
(-0.0032703 2.95519e-05 0)
(-0.00347974 2.87372e-05 0)
(-0.00368192 2.77499e-05 0)
(-0.00387556 2.65847e-05 0)
(-0.00405931 2.5236e-05 0)
(-0.00423185 2.36984e-05 0)
(-0.00439184 2.19674e-05 0)
(-0.00453794 2.00398e-05 0)
(-0.00466883 1.79145e-05 0)
(-0.0047832 1.5593e-05 0)
(-0.00487981 1.30798e-05 0)
(-0.00495747 1.0382e-05 0)
(-0.00501507 7.51024e-06 0)
(-0.00505161 4.48118e-06 0)
(-0.00506624 1.32335e-06 0)
(-0.00505828 -1.95873e-06 0)
(-0.00502717 -5.32119e-06 0)
(-0.00497261 -8.73814e-06 0)
(-0.0048945 -1.21732e-05 0)
(-0.00479299 -1.55873e-05 0)
(-0.00466851 -1.89386e-05 0)
(-0.00452173 -2.21831e-05 0)
(-0.00435362 -2.52755e-05 0)
(-0.00416543 -2.81698e-05 0)
(-0.0039587 -3.08201e-05 0)
(-0.00373525 -3.31822e-05 0)
(-0.00349714 -3.52139e-05 0)
(-0.00324671 -3.68762e-05 0)
(-0.00298649 -3.81346e-05 0)
(-0.00271922 -3.89595e-05 0)
(-0.00244779 -3.93273e-05 0)
(-0.00217521 -3.9221e-05 0)
(-0.00190455 -3.8631e-05 0)
(-0.00163892 -3.75548e-05 0)
(-0.00138142 -3.59977e-05 0)
(-0.00113507 -3.3973e-05 0)
(-0.000902756 -3.15009e-05 0)
(-0.00068722 -2.86094e-05 0)
(-0.00049097 -2.5333e-05 0)
(-0.000316252 -2.17132e-05 0)
(-0.00016499 -1.77981e-05 0)
(-3.87372e-05 -1.36433e-05 0)
(6.13875e-05 -9.31422e-06 0)
(0.000134773 -4.88794e-06 0)
(0.000181418 -4.64053e-07 0)
(0.000202073 3.82246e-06 0)
(0.000198456 7.77368e-06 0)
(0.000173563 1.10896e-05 0)
(0.000132146 1.33195e-05 0)
(8.17992e-05 1.37492e-05 0)
(3.48573e-05 1.09782e-05 0)
(4.39504e-06 4.39197e-06 0)
(1.28455e-05 -4.07384e-05 0)
(6.04409e-05 -6.01204e-05 0)
(9.11784e-05 -4.02911e-05 0)
(7.94663e-05 8.56351e-07 0)
(7.47293e-06 5.18611e-05 0)
(-0.000132149 0.000105917 0)
(-0.000340746 0.000159044 0)
(-0.00061615 0.00020899 0)
(-0.000954047 0.000254555 0)
(-0.00134889 0.000295189 0)
(-0.00179452 0.000330734 0)
(-0.00228458 0.000361268 0)
(-0.00281275 0.000387006 0)
(-0.00337292 0.00040823 0)
(-0.00395929 0.00042525 0)
(-0.00456637 0.000438375 0)
(-0.00518903 0.000447893 0)
(-0.00582243 0.000454058 0)
(-0.00646203 0.000457086 0)
(-0.00710352 0.000457153 0)
(-0.00774279 0.000454391 0)
(-0.00837587 0.000448894 0)
(-0.0089989 0.000440722 0)
(-0.00960808 0.000429905 0)
(-0.0101996 0.000416448 0)
(-0.0107699 0.000400342 0)
(-0.011315 0.000381569 0)
(-0.0118312 0.00036011 0)
(-0.0123148 0.000335949 0)
(-0.0127621 0.000309086 0)
(-0.0131693 0.00027954 0)
(-0.0135328 0.000247357 0)
(-0.013849 0.000212613 0)
(-0.0141147 0.000175422 0)
(-0.0143266 0.000135938 0)
(-0.0144819 9.43525e-05 0)
(-0.0145779 5.09148e-05 0)
(-0.0146124 5.99528e-06 0)
(-0.0145838 -4.02028e-05 0)
(-0.0144907 -8.72076e-05 0)
(-0.0143324 -0.000134598 0)
(-0.0141089 -0.000181905 0)
(-0.0138207 -0.000228621 0)
(-0.0134693 -0.00027421 0)
(-0.0130565 -0.000318118 0)
(-0.0125851 -0.000359778 0)
(-0.0120587 -0.00039862 0)
(-0.0114815 -0.000434085 0)
(-0.0108586 -0.000465633 0)
(-0.0101956 -0.000492758 0)
(-0.00949885 -0.000514994 0)
(-0.00877525 -0.000531932 0)
(-0.00803219 -0.000543226 0)
(-0.00727748 -0.000548603 0)
(-0.0065192 -0.000547876 0)
(-0.00576564 -0.000540944 0)
(-0.00502512 -0.0005278 0)
(-0.00430593 -0.000508538 0)
(-0.00361613 -0.000483348 0)
(-0.00296347 -0.000452522 0)
(-0.00235521 -0.000416452 0)
(-0.00179802 -0.000375631 0)
(-0.00129779 -0.000330654 0)
(-0.000859547 -0.000282221 0)
(-0.000487253 -0.00023115 0)
(-0.000183656 -0.000178399 0)
(4.99227e-05 -0.000125098 0)
(0.000213833 -7.26172e-05 0)
(0.000310433 -2.26705e-05 0)
(0.000344528 2.25242e-05 0)
(0.000323929 6.00059e-05 0)
(0.000260219 8.57363e-05 0)
(0.000170222 9.42224e-05 0)
(7.86438e-05 7.86843e-05 0)
(1.08982e-05 3.47656e-05 0)
(1.12839e-05 -7.16816e-05 0)
(4.114e-05 -9.11387e-05 0)
(3.05258e-05 -2.98757e-05 0)
(-4.94728e-05 7.71476e-05 0)
(-0.00021906 0.000207151 0)
(-0.000487509 0.000345473 0)
(-0.000857011 0.00048278 0)
(-0.0013251 0.000613322 0)
(-0.00188621 0.000733727 0)
(-0.00253286 0.000842197 0)
(-0.00325643 0.000937957 0)
(-0.00404781 0.00102089 0)
(-0.00489775 0.00109129 0)
(-0.00579715 0.0011497 0)
(-0.00673721 0.00119675 0)
(-0.00770949 0.00123313 0)
(-0.008706 0.00125951 0)
(-0.00971913 0.0012765 0)
(-0.0107417 0.00128463 0)
(-0.0117667 0.00128433 0)
(-0.0127875 0.00127594 0)
(-0.0137979 0.00125972 0)
(-0.0147914 0.00123584 0)
(-0.0157619 0.00120439 0)
(-0.0167034 0.00116543 0)
(-0.0176099 0.00111895 0)
(-0.0184752 0.00106496 0)
(-0.0192935 0.00100344 0)
(-0.0200588 0.000934395 0)
(-0.0207652 0.000857879 0)
(-0.0214069 0.000773991 0)
(-0.0219783 0.000682903 0)
(-0.0224738 0.000584874 0)
(-0.0228885 0.00048026 0)
(-0.0232174 0.000369524 0)
(-0.0234561 0.000253246 0)
(-0.0236009 0.000132134 0)
(-0.0236484 7.03992e-06 0)
(-0.0235961 -0.000121116 0)
(-0.0234423 -0.000251255 0)
(-0.0231862 -0.000382191 0)
(-0.0228277 -0.000512638 0)
(-0.0223681 -0.000641222 0)
(-0.0218095 -0.000766503 0)
(-0.0211551 -0.000886991 0)
(-0.0204095 -0.00100117 0)
(-0.0195781 -0.00110753 0)
(-0.0186677 -0.00120458 0)
(-0.0176861 -0.00129089 0)
(-0.016642 -0.00136512 0)
(-0.0155453 -0.00142606 0)
(-0.0144065 -0.00147261 0)
(-0.0132371 -0.00150388 0)
(-0.012049 -0.00151916 0)
(-0.0108545 -0.00151797 0)
(-0.00966645 -0.00150004 0)
(-0.00849747 -0.0014654 0)
(-0.00736021 -0.00141429 0)
(-0.00626699 -0.00134726 0)
(-0.00522961 -0.00126511 0)
(-0.00425911 -0.00116894 0)
(-0.00336561 -0.0010601 0)
(-0.00255804 -0.000940239 0)
(-0.00184393 -0.000811311 0)
(-0.00122919 -0.000675587 0)
(-0.000717823 -0.000535714 0)
(-0.000311655 -0.000394795 0)
(-9.96477e-06 -0.000256517 0)
(0.000190921 -0.000125351 0)
(0.000298143 -6.83291e-06 0)
(0.000322893 9.20485e-05 0)
(0.000281094 0.00016239 0)
(0.000194747 0.00019295 0)
(9.48757e-05 0.000170336 0)
(1.36532e-05 8.1596e-05 0)
(7.14446e-06 -8.77384e-05 0)
(-1.95715e-07 -7.96127e-05 0)
(-7.81204e-05 5.02975e-05 0)
(-0.000254101 0.000251326 0)
(-0.00054651 0.000489555 0)
(-0.000964278 0.000742038 0)
(-0.00150936 0.000993392 0)
(-0.00217869 0.00123362 0)
(-0.00296565 0.00145652 0)
(-0.00386127 0.00165851 0)
(-0.00485511 0.00183782 0)
(-0.00593596 0.0019939 0)
(-0.00709229 0.00212697 0)
(-0.00831258 0.00223774 0)
(-0.00958557 0.00232719 0)
(-0.0109004 0.00239642 0)
(-0.0122465 0.00244653 0)
(-0.0136139 0.00247854 0)
(-0.0149929 0.00249336 0)
(-0.0163744 0.00249177 0)
(-0.0177493 0.00247438 0)
(-0.019109 0.00244164 0)
(-0.0204451 0.00239389 0)
(-0.0217491 0.00233134 0)
(-0.0230129 0.0022541 0)
(-0.0242284 0.00216224 0)
(-0.0253874 0.00205579 0)
(-0.026482 0.00193479 0)
(-0.0275041 0.00179932 0)
(-0.0284461 0.00164954 0)
(-0.0293003 0.0014857 0)
(-0.0300592 0.0013082 0)
(-0.0307158 0.00111759 0)
(-0.0312633 0.000914622 0)
(-0.0316956 0.000700221 0)
(-0.0320071 0.000475544 0)
(-0.0321929 0.000241975 0)
(-0.0322489 1.13247e-06 0)
(-0.0321721 -0.00024517 0)
(-0.0319603 -0.000494882 0)
(-0.0316127 -0.000745753 0)
(-0.0311296 -0.000995349 0)
(-0.0305125 -0.00124109 0)
(-0.0297647 -0.00148026 0)
(-0.0288905 -0.00171007 0)
(-0.0278958 -0.0019277 0)
(-0.0267881 -0.00213032 0)
(-0.0255762 -0.00231518 0)
(-0.0242702 -0.00247962 0)
(-0.0228818 -0.00262116 0)
(-0.0214236 -0.00273753 0)
(-0.0199095 -0.00282674 0)
(-0.0183542 -0.00288714 0)
(-0.0167732 -0.00291741 0)
(-0.0151826 -0.00291668 0)
(-0.0135988 -0.00288449 0)
(-0.0120382 -0.00282088 0)
(-0.0105173 -0.00272636 0)
(-0.00905187 -0.00260196 0)
(-0.00765718 -0.00244922 0)
(-0.0063475 -0.00227021 0)
(-0.00513586 -0.00206754 0)
(-0.00403376 -0.00184434 0)
(-0.0030509 -0.00160434 0)
(-0.00219484 -0.00135185 0)
(-0.00147068 -0.0010919 0)
(-0.000880757 -0.000830301 0)
(-0.000424207 -0.000573881 0)
(-9.65434e-05 -0.000330716 0)
(0.000110837 -0.000110516 0)
(0.000211173 7.49095e-05 0)
(0.00022288 0.000211116 0)
(0.000170757 0.000280557 0)
(8.89343e-05 0.000262342 0)
(1.34013e-05 0.000132524 0)
(2.15937e-06 -7.9075e-05 0)
(-5.30266e-05 -6.02718e-06 0)
(-0.000214264 0.000223192 0)
(-0.000504636 0.000545599 0)
(-0.000937752 0.000917668 0)
(-0.00152035 0.00130886 0)
(-0.00225302 0.00169791 0)
(-0.00313146 0.00207049 0)
(-0.0041478 0.00241731 0)
(-0.00529169 0.00273277 0)
(-0.00655114 0.00301385 0)
(-0.00791322 0.00325933 0)
(-0.00936452 0.00346923 0)
(-0.0108916 0.00364434 0)
(-0.012481 0.00378592 0)
(-0.0141199 0.00389544 0)
(-0.0157957 0.00397444 0)
(-0.0174961 0.00402437 0)
(-0.0192094 0.00404656 0)
(-0.0209244 0.00404214 0)
(-0.0226299 0.00401201 0)
(-0.0243152 0.0039569 0)
(-0.0259699 0.00387731 0)
(-0.0275836 0.00377361 0)
(-0.0291462 0.00364602 0)
(-0.0306476 0.0034947 0)
(-0.0320777 0.00331976 0)
(-0.0334269 0.00312134 0)
(-0.0346852 0.00289966 0)
(-0.0358434 0.00265505 0)
(-0.036892 0.00238801 0)
(-0.037822 0.00209926 0)
(-0.0386251 0.00178976 0)
(-0.0392931 0.00146078 0)
(-0.0398187 0.00111387 0)
(-0.0401953 0.000750936 0)
(-0.0404171 0.000374236 0)
(-0.0404795 -1.36334e-05 0)
(-0.0403788 -0.000409737 0)
(-0.0401129 -0.000810805 0)
(-0.0396809 -0.00121326 0)
(-0.0390832 -0.00161324 0)
(-0.0383222 -0.00200668 0)
(-0.0374016 -0.00238931 0)
(-0.036327 -0.00275675 0)
(-0.0351056 -0.00310457 0)
(-0.0337464 -0.00342834 0)
(-0.0322601 -0.00372376 0)
(-0.030659 -0.0039867 0)
(-0.028957 -0.00421328 0)
(-0.0271693 -0.00439998 0)
(-0.0253126 -0.0045437 0)
(-0.0234045 -0.00464187 0)
(-0.0214635 -0.00469245 0)
(-0.0195088 -0.00469409 0)
(-0.0175601 -0.00464611 0)
(-0.015637 -0.00454857 0)
(-0.0137591 -0.0044023 0)
(-0.0119454 -0.00420894 0)
(-0.010214 -0.00397095 0)
(-0.00858215 -0.0036916 0)
(-0.00706529 -0.00337505 0)
(-0.00567725 -0.00302626 0)
(-0.00442962 -0.00265115 0)
(-0.0033315 -0.00225655 0)
(-0.00238912 -0.00185035 0)
(-0.00160544 -0.00144164 0)
(-0.000979768 -0.00104091 0)
(-0.00050734 -0.000660372 0)
(-0.000178879 -0.00031437 0)
(1.98439e-05 -1.98803e-05 0)
(0.000108445 0.000202899 0)
(0.000112927 0.000329963 0)
(6.8191e-05 0.000332715 0)
(1.16173e-05 0.00017636 0)
(-3.07232e-06 -4.1622e-05 0)
(-0.000111339 0.000139731 0)
(-0.000365185 0.000502372 0)
(-0.000781587 0.000974619 0)
(-0.00136748 0.00150535 0)
(-0.00212599 0.00205762 0)
(-0.0030553 0.00260495 0)
(-0.00414923 0.00312896 0)
(-0.00539828 0.00361741 0)
(-0.00679057 0.00406258 0)
(-0.00831264 0.00446014 0)
(-0.00994998 0.0048081 0)
(-0.0116876 0.00510618 0)
(-0.0135103 0.00535514 0)
(-0.0154031 0.00555647 0)
(-0.0173512 0.00571198 0)
(-0.0193401 0.0058236 0)
(-0.0213558 0.00589322 0)
(-0.0233848 0.00592256 0)
(-0.0254138 0.00591312 0)
(-0.02743 0.00586614 0)
(-0.0294208 0.00578259 0)
(-0.0313739 0.0056632 0)
(-0.0332771 0.0055085 0)
(-0.0351185 0.00531887 0)
(-0.0368863 0.00509458 0)
(-0.0385689 0.00483588 0)
(-0.0401546 0.00454308 0)
(-0.0416323 0.00421656 0)
(-0.0429908 0.00385692 0)
(-0.0442194 0.003465 0)
(-0.0453079 0.00304192 0)
(-0.0462463 0.00258918 0)
(-0.0470256 0.00210868 0)
(-0.0476374 0.00160276 0)
(-0.0480742 0.00107424 0)
(-0.0483296 0.000526397 0)
(-0.0483982 -3.69857e-05 0)
(-0.0482763 -0.000611659 0)
(-0.0479614 -0.00119291 0)
(-0.0474526 -0.00177562 0)
(-0.0467508 -0.00235428 0)
(-0.0458586 -0.00292307 0)
(-0.0447806 -0.00347593 0)
(-0.0435232 -0.00400665 0)
(-0.0420949 -0.00450894 0)
(-0.040506 -0.00497656 0)
(-0.0387687 -0.0054034 0)
(-0.0368973 -0.00578365 0)
(-0.0349075 -0.00611182 0)
(-0.0328169 -0.00638295 0)
(-0.0306444 -0.00659269 0)
(-0.0284103 -0.00673738 0)
(-0.0261355 -0.00681418 0)
(-0.0238422 -0.00682117 0)
(-0.0215526 -0.00675741 0)
(-0.0192893 -0.00662298 0)
(-0.0170747 -0.00641908 0)
(-0.0149304 -0.00614806 0)
(-0.0128773 -0.00581342 0)
(-0.010935 -0.00541984 0)
(-0.00912144 -0.00497322 0)
(-0.00745245 -0.0044807 0)
(-0.00594145 -0.00395064 0)
(-0.00459908 -0.00339279 0)
(-0.00343272 -0.00281828 0)
(-0.00244621 -0.00223985 0)
(-0.00163936 -0.00167204 0)
(-0.00100764 -0.00113153 0)
(-0.000541763 -0.00063753 0)
(-0.000227329 -0.000212335 0)
(-4.4494e-05 0.000118091 0)
(3.276e-05 0.000323405 0)
(3.83065e-05 0.000367704 0)
(9.0409e-06 0.00020686 0)
(-8.26279e-06 2.6106e-05 0)
(-0.000171736 0.000362625 0)
(-0.000523022 0.00089552 0)
(-0.00107218 0.00154751 0)
(-0.00181836 0.00226192 0)
(-0.00276008 0.00299677 0)
(-0.00389229 0.00372128 0)
(-0.00520629 0.0044136 0)
(-0.00669053 0.00505881 0)
(-0.00833141 0.00564729 0)
(-0.0101139 0.00617341 0)
(-0.0120219 0.00663443 0)
(-0.014039 0.0070297 0)
(-0.0161485 0.00735997 0)
(-0.0183339 0.00762686 0)
(-0.0205788 0.00783248 0)
(-0.0228672 0.00797916 0)
(-0.0251835 0.00806917 0)
(-0.0275125 0.00810464 0)
(-0.0298393 0.00808742 0)
(-0.0321495 0.00801907 0)
(-0.0344287 0.00790084 0)
(-0.0366631 0.00773369 0)
(-0.038839 0.00751835 0)
(-0.0409427 0.00725535 0)
(-0.0429609 0.00694513 0)
(-0.0448804 0.00658813 0)
(-0.0466883 0.00618485 0)
(-0.0483716 0.00573593 0)
(-0.0499182 0.0052423 0)
(-0.0513159 0.0047052 0)
(-0.0525531 0.00412627 0)
(-0.0536191 0.00350765 0)
(-0.0545036 0.00285199 0)
(-0.0551973 0.00216255 0)
(-0.055692 0.00144319 0)
(-0.0559807 0.000698375 0)
(-0.0560576 -6.67572e-05 0)
(-0.0559186 -0.000846473 0)
(-0.0555609 -0.00163444 0)
(-0.0549839 -0.00242379 0)
(-0.0541885 -0.00320716 0)
(-0.0531778 -0.00397681 0)
(-0.0519568 -0.00472465 0)
(-0.050533 -0.00544244 0)
(-0.0489155 -0.00612183 0)
(-0.047116 -0.00675454 0)
(-0.0451481 -0.00733249 0)
(-0.0430274 -0.00784795 0)
(-0.0407716 -0.00829369 0)
(-0.0384 -0.00866312 0)
(-0.0359336 -0.00895047 0)
(-0.0333948 -0.0091509 0)
(-0.030807 -0.00926063 0)
(-0.0281946 -0.00927712 0)
(-0.0255825 -0.00919908 0)
(-0.0229956 -0.00902665 0)
(-0.0204588 -0.0087614 0)
(-0.0179964 -0.00840644 0)
(-0.0156316 -0.0079664 0)
(-0.0133864 -0.00744754 0)
(-0.0112809 -0.00685768 0)
(-0.00933295 -0.00620631 0)
(-0.00755777 -0.00550456 0)
(-0.00596759 -0.0047653 0)
(-0.00457117 -0.00400322 0)
(-0.0033734 -0.00323498 0)
(-0.00237499 -0.00247942 0)
(-0.00157208 -0.00175788 0)
(-0.000955918 -0.0010946 0)
(-0.000512608 -0.000517167 0)
(-0.000222824 -5.72174e-05 0)
(-6.14408e-05 0.00024889 0)
(3.13405e-06 0.000358699 0)
(6.11198e-06 0.000220611 0)
(-1.32809e-05 0.000124408 0)
(-0.000232341 0.000664703 0)
(-0.000682986 0.00140651 0)
(-0.00136816 0.00226938 0)
(-0.00227868 0.00319295 0)
(-0.00340781 0.00413159 0)
(-0.00474666 0.00505124 0)
(-0.00628347 0.00592728 0)
(-0.00800427 0.00674261 0)
(-0.00989345 0.007486 0)
(-0.0119342 0.00815069 0)
(-0.014109 0.00873332 0)
(-0.0164 0.00923289 0)
(-0.018789 0.00965013 0)
(-0.0212581 0.0099868 0)
(-0.0237896 0.0102453 0)
(-0.0263661 0.0104283 0)
(-0.0289706 0.0105385 0)
(-0.0315865 0.0105784 0)
(-0.0341974 0.0105501 0)
(-0.0367874 0.0104555 0)
(-0.0393409 0.0102963 0)
(-0.0418425 0.0100735 0)
(-0.044277 0.00978809 0)
(-0.0466294 0.00944083 0)
(-0.048885 0.00903234 0)
(-0.0510291 0.00856326 0)
(-0.0530476 0.00803434 0)
(-0.0549262 0.00744655 0)
(-0.0566515 0.00680119 0)
(-0.0582102 0.0061 0)
(-0.0595898 0.00534521 0)
(-0.0607782 0.0045397 0)
(-0.0617645 0.00368698 0)
(-0.0625385 0.00279133 0)
(-0.0630914 0.00185777 0)
(-0.0634154 0.000892121 0)
(-0.0635044 -9.90162e-05 0)
(-0.0633539 -0.00110826 0)
(-0.0629611 -0.00212752 0)
(-0.0623251 -0.00314799 0)
(-0.061447 -0.00416031 0)
(-0.0603303 -0.00515461 0)
(-0.0589805 -0.00612064 0)
(-0.0574053 -0.00704791 0)
(-0.055615 -0.00792584 0)
(-0.0536221 -0.00874394 0)
(-0.0514413 -0.00949198 0)
(-0.0490895 -0.0101601 0)
(-0.0465859 -0.0107392 0)
(-0.0439513 -0.011221 0)
(-0.0412087 -0.0115979 0)
(-0.0383822 -0.011864 0)
(-0.0354974 -0.0120144 0)
(-0.0325808 -0.0120458 0)
(-0.0296595 -0.0119565 0)
(-0.0267607 -0.0117467 0)
(-0.0239117 -0.0114183 0)
(-0.0211392 -0.0109753 0)
(-0.0184686 -0.0104234 0)
(-0.0159242 -0.0097706 0)
(-0.0135282 -0.00902675 0)
(-0.0113006 -0.00820386 0)
(-0.00925843 -0.007316 0)
(-0.00741569 -0.00637938 0)
(-0.00578264 -0.00541245 0)
(-0.00436556 -0.00443598 0)
(-0.00316636 -0.0034733 0)
(-0.00218225 -0.00255052 0)
(-0.00140552 -0.00169692 0)
(-0.000823269 -0.000945387 0)
(-0.000417284 -0.00033299 0)
(-0.000163977 9.83218e-05 0)
(-3.48311e-05 0.000300373 0)
(3.09419e-06 0.000215795 0)
(-1.80807e-05 0.000252953 0)
(-0.000292135 0.00104623 0)
(-0.000842208 0.00203665 0)
(-0.00166426 0.00314244 0)
(-0.00274059 0.00430114 0)
(-0.00405887 0.00546477 0)
(-0.00560592 0.00659702 0)
(-0.00736658 0.00767129 0)
(-0.00932408 0.00866888 0)
(-0.0114606 0.00957733 0)
(-0.0137574 0.0103891 0)
(-0.0161953 0.0111003 0)
(-0.0187551 0.0117097 0)
(-0.0214172 0.0122182 0)
(-0.0241624 0.0126276 0)
(-0.0269719 0.0129406 0)
(-0.0298268 0.0131602 0)
(-0.0327091 0.0132896 0)
(-0.0356007 0.0133315 0)
(-0.0384843 0.0132884 0)
(-0.0413425 0.0131627 0)
(-0.0441585 0.012956 0)
(-0.0469155 0.0126698 0)
(-0.0495972 0.0123053 0)
(-0.0521874 0.0118634 0)
(-0.0546699 0.0113449 0)
(-0.0570291 0.0107508 0)
(-0.0592494 0.010082 0)
(-0.0613157 0.00933999 0)
(-0.0632132 0.0085264 0)
(-0.0649278 0.00764355 0)
(-0.0664457 0.00669435 0)
(-0.0677543 0.00568248 0)
(-0.0688416 0.00461242 0)
(-0.0696967 0.00348955 0)
(-0.07031 0.00232017 0)
(-0.0706734 0.00111154 0)
(-0.0707802 -0.000128141 0)
(-0.0706254 -0.00138973 0)
(-0.0702061 -0.00266321 0)
(-0.0695213 -0.00393776 0)
(-0.0685721 -0.00520184 0)
(-0.0673621 -0.00644331 0)
(-0.065897 -0.0076496 0)
(-0.0641851 -0.00880783 0)
(-0.0622371 -0.00990502 0)
(-0.0600663 -0.0109283 0)
(-0.0576884 -0.0118651 0)
(-0.0551212 -0.0127034 0)
(-0.0523852 -0.0134319 0)
(-0.0495027 -0.0140404 0)
(-0.046498 -0.0145197 0)
(-0.0433972 -0.0148623 0)
(-0.0402275 -0.0150621 0)
(-0.0370175 -0.0151152 0)
(-0.0337962 -0.0150193 0)
(-0.0305933 -0.0147745 0)
(-0.0274381 -0.014383 0)
(-0.0243595 -0.0138497 0)
(-0.0213854 -0.0131815 0)
(-0.0185423 -0.012388 0)
(-0.0158545 -0.0114814 0)
(-0.0133442 -0.0104761 0)
(-0.0110305 -0.00938948 0)
(-0.0089292 -0.0082411 0)
(-0.00705241 -0.00705333 0)
(-0.00540804 -0.00585121 0)
(-0.00399951 -0.00466266 0)
(-0.00282549 -0.00351865 0)
(-0.00187969 -0.00245349 0)
(-0.00115064 -0.00150527 0)
(-0.000621665 -0.000716276 0)
(-0.00027115 -0.000133606 0)
(-7.40542e-05 0.000189611 0)
(1.27047e-07 0.00019157 0)
(-2.26587e-05 0.000411081 0)
(-0.000350588 0.00150638 0)
(-0.000998986 0.00278553 0)
(-0.00195711 0.00416682 0)
(-0.00319884 0.005587 0)
(-0.00470607 0.00699693 0)
(-0.00646112 0.00835902 0)
(-0.0084451 0.0096455 0)
(-0.0106382 0.0108367 0)
(-0.0130202 0.0119194 0)
(-0.0155703 0.0128855 0)
(-0.0182677 0.0137311 0)
(-0.0210914 0.0144548 0)
(-0.0240209 0.0150575 0)
(-0.0270355 0.0155415 0)
(-0.0301152 0.0159098 0)
(-0.0332403 0.0161656 0)
(-0.0363914 0.0163125 0)
(-0.0395495 0.0163536 0)
(-0.042696 0.0162919 0)
(-0.0458126 0.0161298 0)
(-0.0488813 0.0158694 0)
(-0.0518843 0.0155123 0)
(-0.0548041 0.01506 0)
(-0.0576233 0.0145136 0)
(-0.0603248 0.0138741 0)
(-0.0628919 0.0131428 0)
(-0.0653078 0.012321 0)
(-0.0675566 0.0114105 0)
(-0.0696223 0.0104134 0)
(-0.07149 0.00933261 0)
(-0.073145 0.00817185 0)
(-0.0745737 0.00693562 0)
(-0.0757634 0.00562945 0)
(-0.0767025 0.00425989 0)
(-0.0773808 0.00283461 0)
(-0.0777895 0.00136238 0)
(-0.0779213 -0.000146887 0)
(-0.077771 -0.0016822 0)
(-0.0773353 -0.00323153 0)
(-0.0766128 -0.00478189 0)
(-0.0756046 -0.00631945 0)
(-0.0743142 -0.00782971 0)
(-0.0727474 -0.0092976 0)
(-0.0709129 -0.0107077 0)
(-0.0688217 -0.0120446 0)
(-0.0664875 -0.0132927 0)
(-0.0639267 -0.0144371 0)
(-0.0611581 -0.0154633 0)
(-0.058203 -0.0163578 0)
(-0.055085 -0.0171082 0)
(-0.0518298 -0.0177035 0)
(-0.0484649 -0.0181346 0)
(-0.0450192 -0.0183942 0)
(-0.0415232 -0.0184772 0)
(-0.038008 -0.0183808 0)
(-0.0345052 -0.0181049 0)
(-0.0310463 -0.0176522 0)
(-0.0276626 -0.017028 0)
(-0.0243843 -0.0162407 0)
(-0.02124 -0.0153016 0)
(-0.0182567 -0.0142249 0)
(-0.0154585 -0.0130279 0)
(-0.012867 -0.011731 0)
(-0.0105 -0.0103575 0)
(-0.00837164 -0.00893359 0)
(-0.00649176 -0.00748884 0)
(-0.00486564 -0.00605578 0)
(-0.00349374 -0.00467026 0)
(-0.0023715 -0.00337168 0)
(-0.00148923 -0.00220319 0)
(-0.000832112 -0.00121211 0)
(-0.000380733 -0.000450314 0)
(-0.000113659 2.4726e-05 0)
(-2.72454e-06 0.000147673 0)
(-2.70274e-05 0.000597977 0)
(-0.00040743 0.00204369 0)
(-0.00115231 0.00365162 0)
(-0.00224458 0.00534118 0)
(-0.00364991 0.00704943 0)
(-0.0053444 0.00872704 0)
(-0.00730576 0.0103361 0)
(-0.00951121 0.0118484 0)
(-0.0119378 0.013244 0)
(-0.0145625 0.0145095 0)
(-0.0173626 0.0156366 0)
(-0.0203154 0.0166215 0)
(-0.0233984 0.017463 0)
(-0.0265896 0.0181623 0)
(-0.0298675 0.018722 0)
(-0.0332107 0.0191454 0)
(-0.0365985 0.0194364 0)
(-0.0400107 0.0195988 0)
(-0.0434272 0.0196361 0)
(-0.0468285 0.0195516 0)
(-0.0501953 0.019348 0)
(-0.0535087 0.0190277 0)
(-0.0567499 0.0185926 0)
(-0.0599005 0.0180443 0)
(-0.0629421 0.0173842 0)
(-0.0658567 0.0166135 0)
(-0.0686265 0.0157338 0)
(-0.0712341 0.0147468 0)
(-0.0736623 0.0136546 0)
(-0.0758945 0.0124599 0)
(-0.0779147 0.0111663 0)
(-0.0797075 0.00977817 0)
(-0.0812585 0.008301 0)
(-0.0825543 0.00674138 0)
(-0.0835824 0.00510709 0)
(-0.084332 0.00340723 0)
(-0.0847936 0.00165216 0)
(-0.0849595 -0.000146453 0)
(-0.0848238 -0.00197568 0)
(-0.0843828 -0.00382138 0)
(-0.0836347 -0.00566833 0)
(-0.0825804 -0.00750034 0)
(-0.0812231 -0.00930037 0)
(-0.0795686 -0.0110508 0)
(-0.0776255 -0.0127335 0)
(-0.075405 -0.0143304 0)
(-0.0729211 -0.0158233 0)
(-0.0701907 -0.0171946 0)
(-0.0672332 -0.0184271 0)
(-0.0640708 -0.019505 0)
(-0.060728 -0.0204136 0)
(-0.0572316 -0.0211399 0)
(-0.0536105 -0.0216729 0)
(-0.0498954 -0.0220038 0)
(-0.0461182 -0.0221265 0)
(-0.0423122 -0.0220374 0)
(-0.0385109 -0.0217362 0)
(-0.0347481 -0.0212257 0)
(-0.0310575 -0.0205118 0)
(-0.0274714 -0.0196041 0)
(-0.0240213 -0.0185157 0)
(-0.0207363 -0.0172629 0)
(-0.0176433 -0.0158658 0)
(-0.0147661 -0.014348 0)
(-0.0121249 -0.0127365 0)
(-0.00973627 -0.0110615 0)
(-0.00761221 -0.00935716 0)
(-0.00576015 -0.00766061 0)
(-0.00418263 -0.00601272 0)
(-0.00287714 -0.0044579 0)
(-0.00183604 -0.00304436 0)
(-0.00104654 -0.00182428 0)
(-0.000491567 -0.000854084 0)
(-0.000153228 -0.00019516 0)
(-5.44013e-06 8.41417e-05 0)
(-3.12031e-05 0.000812751 0)
(-0.000462533 0.00265628 0)
(-0.0013016 0.00463264 0)
(-0.0025253 0.00666315 0)
(-0.0040914 0.00868605 0)
(-0.00597031 0.0106528 0)
(-0.00813508 0.0125259 0)
(-0.010559 0.0142775 0)
(-0.0132157 0.015888 0)
(-0.0160797 0.0173442 0)
(-0.0191258 0.0186384 0)
(-0.0223295 0.0197669 0)
(-0.0256668 0.0207291 0)
(-0.0291145 0.0215267 0)
(-0.0326496 0.0221626 0)
(-0.03625 0.0226409 0)
(-0.0398939 0.0229656 0)
(-0.0435602 0.0231412 0)
(-0.0472281 0.0231715 0)
(-0.0508772 0.0230601 0)
(-0.0544874 0.02281 0)
(-0.0580388 0.022424 0)
(-0.0615121 0.0219041 0)
(-0.0648878 0.0212522 0)
(-0.0681469 0.0204698 0)
(-0.0712704 0.0195586 0)
(-0.0742397 0.0185203 0)
(-0.0770367 0.0173568 0)
(-0.0796433 0.0160709 0)
(-0.0820421 0.0146659 0)
(-0.0842162 0.0131457 0)
(-0.0861497 0.0115158 0)
(-0.0878271 0.00978249 0)
(-0.0892343 0.00795344 0)
(-0.0903583 0.00603775 0)
(-0.0911873 0.00404594 0)
(-0.0917112 0.00199001 0)
(-0.0919216 -0.000116548 0)
(-0.0918121 -0.00225883 0)
(-0.0913781 -0.00442055 0)
(-0.0906177 -0.00658415 0)
(-0.089531 -0.00873098 0)
(-0.0881208 -0.0108414 0)
(-0.0863929 -0.0128951 0)
(-0.0843553 -0.0148713 0)
(-0.0820195 -0.0167489 0)
(-0.0793994 -0.0185069 0)
(-0.0765121 -0.020125 0)
(-0.0733775 -0.0215832 0)
(-0.0700183 -0.0228631 0)
(-0.0664599 -0.0239475 0)
(-0.0627301 -0.0248211 0)
(-0.0588591 -0.0254709 0)
(-0.054879 -0.0258865 0)
(-0.0508234 -0.0260604 0)
(-0.0467275 -0.0259882 0)
(-0.0426269 -0.0256691 0)
(-0.0385577 -0.0251057 0)
(-0.0345559 -0.0243048 0)
(-0.0306566 -0.0232769 0)
(-0.0268937 -0.0220367 0)
(-0.0232991 -0.0206029 0)
(-0.0199023 -0.0189982 0)
(-0.0167299 -0.0172494 0)
(-0.0138049 -0.0153872 0)
(-0.0111462 -0.0134463 0)
(-0.00876857 -0.0114649 0)
(-0.00668177 -0.00948528 0)
(-0.00489075 -0.0075532 0)
(-0.00339528 -0.00571817 0)
(-0.00218996 -0.00403343 0)
(-0.00126419 -0.00255598 0)
(-0.00060326 -0.00134665 0)
(-0.000192652 -0.000470564 0)
(-8.02528e-06 1.12158e-06 0)
(-3.5201e-05 0.00105449 0)
(-0.000515832 0.00334206 0)
(-0.00144646 0.0057258 0)
(-0.00279833 0.00812958 0)
(-0.00452161 0.0104936 0)
(-0.00658117 0.0127707 0)
(-0.00894547 0.0149248 0)
(-0.0115838 0.0169291 0)
(-0.0144666 0.0187648 0)
(-0.0175654 0.0204195 0)
(-0.0208529 0.0218864 0)
(-0.0243026 0.0231625 0)
(-0.027889 0.0242479 0)
(-0.0315874 0.025145 0)
(-0.035374 0.0258575 0)
(-0.0392255 0.0263898 0)
(-0.0431193 0.0267467 0)
(-0.0470335 0.026933 0)
(-0.0509465 0.0269531 0)
(-0.0548372 0.0268109 0)
(-0.0586848 0.0265097 0)
(-0.0624689 0.0260525 0)
(-0.0661693 0.0254416 0)
(-0.0697658 0.0246791 0)
(-0.0732388 0.0237668 0)
(-0.0765685 0.0227065 0)
(-0.0797358 0.0215002 0)
(-0.0827215 0.0201504 0)
(-0.085507 0.01866 0)
(-0.0880743 0.017033 0)
(-0.0904055 0.015274 0)
(-0.092484 0.0133892 0)
(-0.0942937 0.0113858 0)
(-0.0958195 0.00927266 0)
(-0.0970477 0.00706016 0)
(-0.0979657 0.00476027 0)
(-0.0985628 0.00238662 0)
(-0.0988297 -4.54577e-05 0)
(-0.0987591 -0.00251905 0)
(-0.0983459 -0.00501566 0)
(-0.0975873 -0.0075154 0)
(-0.0964829 -0.00999706 0)
(-0.0950348 -0.0124384 0)
(-0.0932482 -0.0148162 0)
(-0.091131 -0.0171068 0)
(-0.0886939 -0.0192863 0)
(-0.0859511 -0.0213307 0)
(-0.0829194 -0.0232164 0)
(-0.0796191 -0.0249209 0)
(-0.0760731 -0.0264226 0)
(-0.0723076 -0.0277018 0)
(-0.0683512 -0.0287407 0)
(-0.0642353 -0.0295241 0)
(-0.0599932 -0.0300396 0)
(-0.0556604 -0.0302781 0)
(-0.0512738 -0.0302341 0)
(-0.0468713 -0.0299061 0)
(-0.0424913 -0.0292967 0)
(-0.0381723 -0.028413 0)
(-0.0339522 -0.0272664 0)
(-0.0298677 -0.0258733 0)
(-0.0259537 -0.0242543 0)
(-0.0222426 -0.022435 0)
(-0.0187641 -0.0204455 0)
(-0.0155441 -0.0183201 0)
(-0.0126046 -0.0160978 0)
(-0.00996301 -0.0138216 0)
(-0.00763195 -0.0115384 0)
(-0.00561899 -0.00929915 0)
(-0.00392645 -0.00715859 0)
(-0.00255133 -0.00517501 0)
(-0.0014853 -0.00341027 0)
(-0.000715975 -0.00192962 0)
(-0.000232036 -0.000801964 0)
(-1.05012e-05 -0.000101256 0)
(-3.90334e-05 0.00132226 0)
(-0.000567291 0.00409877 0)
(-0.00158664 0.00692796 0)
(-0.00306302 0.00973676 0)
(-0.00493929 0.0124679 0)
(-0.007175 0.0150766 0)
(-0.0097341 0.0175286 0)
(-0.012582 0.0197987 0)
(-0.0156858 0.0218696 0)
(-0.0190144 0.0237305 0)
(-0.0225379 0.0253755 0)
(-0.0262281 0.026803 0)
(-0.0300579 0.0280139 0)
(-0.0340014 0.0290116 0)
(-0.0380334 0.0298006 0)
(-0.04213 0.0303862 0)
(-0.0462677 0.0307737 0)
(-0.0504238 0.0309684 0)
(-0.0545762 0.0309752 0)
(-0.0587031 0.0307984 0)
(-0.0627831 0.0304418 0)
(-0.0667952 0.0299085 0)
(-0.0707186 0.029201 0)
(-0.0745327 0.0283217 0)
(-0.0782171 0.0272726 0)
(-0.0817517 0.0260557 0)
(-0.0851164 0.0246733 0)
(-0.0882916 0.0231282 0)
(-0.091258 0.0214238 0)
(-0.0939969 0.0195644 0)
(-0.0964898 0.0175556 0)
(-0.0987192 0.015404 0)
(-0.100668 0.0131181 0)
(-0.102321 0.0107076 0)
(-0.103664 0.00818413 0)
(-0.104682 0.00556121 0)
(-0.105364 0.00285408 0)
(-0.105701 7.98726e-05 0)
(-0.105683 -0.00274245 0)
(-0.105306 -0.0055922 0)
(-0.104564 -0.00844708 0)
(-0.103458 -0.0112833 0)
(-0.101988 -0.0140759 0)
(-0.100158 -0.0167989 0)
(-0.0979764 -0.0194255 0)
(-0.0954529 -0.0219287 0)
(-0.0926011 -0.0242814 0)
(-0.0894378 -0.0264569 0)
(-0.085983 -0.0284295 0)
(-0.0822602 -0.0301746 0)
(-0.0782957 -0.0316694 0)
(-0.0741191 -0.0328934 0)
(-0.0697625 -0.033829 0)
(-0.0652607 -0.0344614 0)
(-0.0606509 -0.0347799 0)
(-0.0559717 -0.0347774 0)
(-0.0512633 -0.0344517 0)
(-0.0465667 -0.0338048 0)
(-0.0419229 -0.032844 0)
(-0.0373729 -0.0315816 0)
(-0.0329564 -0.0300354 0)
(-0.0287115 -0.028228 0)
(-0.0246741 -0.0261878 0)
(-0.0208771 -0.0239479 0)
(-0.0173496 -0.0215467 0)
(-0.0141171 -0.0190274 0)
(-0.0112001 -0.0164375 0)
(-0.00861423 -0.0138292 0)
(-0.00637007 -0.0112587 0)
(-0.00447266 -0.00878575 0)
(-0.00292158 -0.00647408 0)
(-0.00171082 -0.00439051 0)
(-0.000830274 -0.00260488 0)
(-0.000271626 -0.00119002 0)
(-1.29006e-05 -0.000222965 0)
(-4.27085e-05 0.00161514 0)
(-0.000616876 0.00492405 0)
(-0.00172194 0.00823569 0)
(-0.0033188 0.0114805 0)
(-0.0053434 0.0146045 0)
(-0.00775013 0.0175655 0)
(-0.0104986 0.0203319 0)
(-0.0135505 0.0228808 0)
(-0.0168695 0.0251971 0)
(-0.0204219 0.0272715 0)
(-0.0241755 0.0291001 0)
(-0.0281001 0.0306825 0)
(-0.0321673 0.0320212 0)
(-0.0363496 0.0331205 0)
(-0.040621 0.0339861 0)
(-0.0449566 0.0346241 0)
(-0.0493323 0.0350406 0)
(-0.0537246 0.0352415 0)
(-0.0581108 0.0352323 0)
(-0.0624688 0.0350178 0)
(-0.0667766 0.0346019 0)
(-0.0710127 0.033988 0)
(-0.0751559 0.0331792 0)
(-0.079185 0.0321776 0)
(-0.0830793 0.0309858 0)
(-0.0868181 0.0296058 0)
(-0.0903808 0.0280402 0)
(-0.0937472 0.0262921 0)
(-0.0968976 0.0243654 0)
(-0.0998124 0.0222648 0)
(-0.102473 0.0199964 0)
(-0.10486 0.0175677 0)
(-0.106957 0.014988 0)
(-0.108747 0.012268 0)
(-0.110214 0.0094208 0)
(-0.111345 0.00646107 0)
(-0.112126 0.00340574 0)
(-0.112547 0.000273749 0)
(-0.112598 -0.00291396 0)
(-0.112272 -0.00613449 0)
(-0.111564 -0.00936314 0)
(-0.110472 -0.0125735 0)
(-0.108997 -0.0157379 0)
(-0.107141 -0.0188273 0)
(-0.104911 -0.021812 0)
(-0.102317 -0.0246616 0)
(-0.0993703 -0.0273457 0)
(-0.0960886 -0.0298344 0)
(-0.0924914 -0.0320984 0)
(-0.0886018 -0.0341099 0)
(-0.0844467 -0.035843 0)
(-0.080056 -0.037274 0)