/*--------------------------------*- C++ -*----------------------------------*\
  =========                 |
  \\      /  F ield         | OpenFOAM: The Open Source CFD Toolbox
   \\    /   O peration     | Website:  https://openfoam.org
    \\  /    A nd           | Version:  12
     \\/     M anipulation  |
\*---------------------------------------------------------------------------*/
FoamFile
{
    format      ascii;
    class       volScalarField;
    location    "3";
    object      epsilon;
}
// * * * * * * * * * * * * * * * * * * * * * * * * * * * * * * * * * * * * * //

dimensions      [0 2 -3 0 0 0 0];

internalField   nonuniform List<scalar> 
5625
(
5.53697e-12
2.76447e-11
6.02962e-11
9.91967e-11
1.42339e-10
1.88451e-10
2.3657e-10
2.85894e-10
3.35724e-10
3.85442e-10
4.34493e-10
4.82383e-10
5.28673e-10
5.7298e-10
6.1498e-10
6.54402e-10
6.91033e-10
7.24715e-10
7.55344e-10
7.82864e-10
8.07268e-10
8.28588e-10
8.46894e-10
8.62283e-10
8.74878e-10
8.84817e-10
8.92248e-10
8.97324e-10
9.00189e-10
9.01011e-10
8.99933e-10
8.97076e-10
8.92553e-10
8.86465e-10
8.78896e-10
8.69921e-10
8.59598e-10
8.47976e-10
8.35098e-10
8.20991e-10
8.05681e-10
7.89189e-10
7.71539e-10
7.52753e-10
7.32856e-10
7.1188e-10
6.89859e-10
6.66839e-10
6.42872e-10
6.18017e-10
5.92345e-10
5.65932e-10
5.38866e-10
5.11239e-10
4.8315e-10
4.54706e-10
4.26014e-10
3.97187e-10
3.68337e-10
3.39577e-10
3.11019e-10
2.82774e-10
2.5495e-10
2.27654e-10
2.0099e-10
1.75065e-10
1.49986e-10
1.25869e-10
1.02841e-10
8.10538e-11
6.0695e-11
4.20217e-11
2.54264e-11
1.16269e-11
2.32722e-12
2.76655e-11
2.23878e-11
3.35798e-11
5.01365e-11
6.9504e-11
9.06194e-11
1.12858e-10
1.35769e-10
1.58988e-10
1.82202e-10
2.0514e-10
2.27561e-10
2.49254e-10
2.70036e-10
2.89749e-10
3.08265e-10
3.25481e-10
3.41322e-10
3.55736e-10
3.68696e-10
3.80195e-10
3.90249e-10
3.98887e-10
4.06155e-10
4.12108e-10
4.16809e-10
4.20329e-10
4.22737e-10
4.241e-10
4.24497e-10
4.23995e-10
4.22651e-10
4.20516e-10
4.17641e-10
4.14064e-10
4.0982e-10
4.0494e-10
3.99445e-10
3.93358e-10
3.86691e-10
3.79458e-10
3.7167e-10
3.63338e-10
3.54474e-10
3.45089e-10
3.352e-10
3.24823e-10
3.13981e-10
3.02697e-10
2.91e-10
2.78923e-10
2.66503e-10
2.53779e-10
2.40794e-10
2.27597e-10
2.14234e-10
2.00758e-10
1.8722e-10
1.73672e-10
1.60168e-10
1.4676e-10
1.335e-10
1.20439e-10
1.07629e-10
9.51199e-11
8.29643e-11
7.12165e-11
5.99363e-11
4.91933e-11
3.90754e-11
2.97041e-11
2.12747e-11
1.4171e-11
9.41153e-12
1.1621e-11
6.05261e-11
3.37243e-11
3.44221e-11
4.25203e-11
5.40165e-11
6.74275e-11
8.2004e-11
9.7281e-11
1.12925e-10
1.28675e-10
1.44314e-10
1.59656e-10
1.74542e-10
1.88835e-10
2.02421e-10
2.15204e-10
2.27108e-10
2.38076e-10
2.48069e-10
2.57065e-10
2.65057e-10
2.72051e-10
2.78067e-10
2.83133e-10
2.87285e-10
2.90568e-10
2.93025e-10
2.94707e-10
2.95656e-10
2.95928e-10
2.95569e-10
2.94618e-10
2.93112e-10
2.91084e-10
2.88564e-10
2.85576e-10
2.82141e-10
2.78276e-10
2.73998e-10
2.69316e-10
2.64241e-10
2.58783e-10
2.52949e-10
2.46749e-10
2.40193e-10
2.33293e-10
2.2606e-10
2.1851e-10
2.10662e-10
2.02534e-10
1.94149e-10
1.85533e-10
1.76714e-10
1.6772e-10
1.58584e-10
1.49338e-10
1.40019e-10
1.3066e-10
1.21299e-10
1.11971e-10
1.02714e-10
9.3564e-11
8.45581e-11
7.57338e-11
6.713e-11
5.87881e-11
5.07541e-11
4.30824e-11
3.58423e-11
2.9131e-11
2.31002e-11
1.80225e-11
1.44828e-11
1.41283e-11
2.53605e-11
1.001e-10
5.06656e-11
4.28539e-11
4.51395e-11
5.18028e-11
6.08502e-11
7.13285e-11
8.26841e-11
9.45484e-11
1.06651e-10
1.18778e-10
1.30756e-10
1.42439e-10
1.53703e-10
1.64446e-10
1.74583e-10
1.84046e-10
1.92783e-10
2.00759e-10
2.0795e-10
2.14347e-10
2.19953e-10
2.24779e-10
2.28845e-10
2.32179e-10
2.34813e-10
2.36783e-10
2.38125e-10
2.38872e-10
2.39071e-10
2.38758e-10
2.37963e-10
2.36717e-10
2.35046e-10
2.32974e-10
2.30523e-10
2.27709e-10
2.24549e-10
2.21055e-10
2.17237e-10
2.13105e-10
2.08668e-10
2.03932e-10
1.98908e-10
1.93603e-10
1.88028e-10
1.82194e-10
1.76112e-10
1.69799e-10
1.63269e-10
1.56542e-10
1.49637e-10
1.42577e-10
1.35383e-10
1.28083e-10
1.20701e-10
1.13266e-10
1.05806e-10
9.83485e-11
9.09246e-11
8.35641e-11
7.62979e-11
6.91578e-11
6.21775e-11
5.53934e-11
4.88463e-11
4.25848e-11
3.66702e-11
3.1186e-11
2.62555e-11
2.20807e-11
1.9033e-11
1.7922e-11
2.11181e-11
4.17604e-11
1.44722e-10
7.08068e-11
5.49687e-11
5.23706e-11
5.52824e-11
6.11456e-11
6.87791e-11
7.75217e-11
8.69498e-11
9.67632e-11
1.06735e-10
1.16684e-10
1.26462e-10
1.35947e-10
1.45037e-10
1.53648e-10
1.61712e-10
1.69179e-10
1.7601e-10
1.82181e-10
1.87679e-10
1.92502e-10
1.96657e-10
2.00158e-10
2.03027e-10
2.05289e-10
2.06975e-10
2.08114e-10
2.08733e-10
2.08874e-10
2.08567e-10
2.07839e-10
2.06714e-10
2.05218e-10
2.03372e-10
2.01195e-10
1.98702e-10
1.95907e-10
1.92824e-10
1.89461e-10
1.85828e-10
1.81933e-10
1.77784e-10
1.73389e-10
1.68757e-10
1.63897e-10
1.58818e-10
1.53533e-10
1.48053e-10
1.42394e-10
1.3657e-10
1.306e-10
1.24502e-10
1.18296e-10
1.12005e-10
1.05649e-10
9.92537e-11
9.28432e-11
8.64432e-11
8.008e-11
7.37814e-11
6.75762e-11
6.14952e-11
5.55719e-11
4.98441e-11
4.43564e-11
3.91643e-11
3.43402e-11
2.99861e-11
2.62566e-11
2.34066e-11
2.1909e-11
2.28139e-11
2.93184e-11
6.0001e-11
1.935e-10
9.32558e-11
6.93897e-11
6.23008e-11
6.19747e-11
6.52148e-11
7.05991e-11
7.73487e-11
8.49734e-11
9.31383e-11
1.01594e-10
1.10146e-10
1.18636e-10
1.26936e-10
1.34939e-10
1.42558e-10
1.49723e-10
1.56378e-10
1.62482e-10
1.68007e-10
1.72937e-10
1.77266e-10
1.80996e-10
1.84138e-10
1.86709e-10
1.8873e-10
1.90227e-10
1.91227e-10
1.91749e-10
1.91839e-10
1.91519e-10
1.90812e-10
1.89745e-10
1.88338e-10
1.86611e-10
1.84583e-10
1.82268e-10
1.7968e-10
1.76829e-10
1.73727e-10
1.70382e-10
1.66802e-10
1.62995e-10
1.58968e-10
1.5473e-10
1.50289e-10
1.45655e-10
1.40838e-10
1.3585e-10
1.30704e-10
1.25414e-10
1.19996e-10
1.14468e-10
1.08847e-10
1.03153e-10
9.74085e-11
9.1634e-11
8.58531e-11
8.00899e-11
7.437e-11
6.87203e-11
6.31697e-11
5.77503e-11
5.24974e-11
4.74522e-11
4.26648e-11
3.81989e-11
3.41406e-11
3.06121e-11
2.77989e-11
2.60091e-11
2.58203e-11
2.8544e-11
3.82955e-11
7.95767e-11
2.45872e-10
1.1757e-10
8.54847e-11
7.40596e-11
7.07692e-11
7.17054e-11
7.51756e-11
8.02764e-11
8.64555e-11
9.3334e-11
1.00633e-10
1.08141e-10
1.15688e-10
1.23137e-10
1.30371e-10
1.37299e-10
1.43843e-10
1.49944e-10
1.55555e-10
1.60645e-10
1.65192e-10
1.69188e-10
1.7263e-10
1.75528e-10
1.77893e-10
1.79745e-10
1.81106e-10
1.82001e-10
1.82445e-10
1.82487e-10
1.82142e-10
1.81435e-10
1.80389e-10
1.79024e-10
1.7736e-10
1.75414e-10
1.732e-10
1.70731e-10
1.68018e-10
1.65071e-10
1.61899e-10
1.58508e-10
1.54907e-10
1.51103e-10
1.47103e-10
1.42915e-10
1.38549e-10
1.34014e-10
1.29321e-10
1.24482e-10
1.19511e-10
1.14423e-10
1.09234e-10
1.03962e-10
9.86257e-11
9.3246e-11
8.78442e-11
8.24433e-11
7.70676e-11
7.17429e-11
6.64971e-11
6.13604e-11
5.63663e-11
5.15539e-11
4.69697e-11
4.26705e-11
3.87297e-11
3.52461e-11
3.23612e-11
3.0292e-11
2.94004e-11
3.03745e-11
3.48075e-11
4.78018e-11
1.00114e-10
3.01438e-10
1.43485e-10
1.0291e-10
8.71837e-11
8.10741e-11
7.98997e-11
8.16697e-11
8.53459e-11
9.03003e-11
9.61123e-11
1.0248e-10
1.0917e-10
1.15995e-10
1.22803e-10
1.29469e-10
1.35893e-10
1.41992e-10
1.477e-10
1.52965e-10
1.5775e-10
1.62031e-10
1.65793e-10
1.69034e-10
1.71757e-10
1.73974e-10
1.75701e-10
1.76959e-10
1.7777e-10
1.78149e-10
1.78145e-10
1.77771e-10
1.7705e-10
1.76004e-10
1.74656e-10
1.73022e-10
1.71119e-10
1.68962e-10
1.66562e-10
1.63931e-10
1.61078e-10
1.5801e-10
1.54735e-10
1.51259e-10
1.47588e-10
1.43731e-10
1.39693e-10
1.35484e-10
1.31112e-10
1.26588e-10
1.21923e-10
1.1713e-10
1.12225e-10
1.07223e-10
1.02142e-10
9.70016e-11
9.18224e-11
8.66266e-11
8.14379e-11
7.62817e-11
7.11853e-11
6.61784e-11
6.12938e-11
5.65686e-11
5.20455e-11
4.77758e-11
4.38233e-11
4.02707e-11
3.72302e-11
3.48631e-11
3.34181e-11
3.33113e-11
3.53486e-11
4.14208e-11
5.7664e-11
1.21309e-10
3.59899e-10
1.70819e-10
1.21456e-10
1.01397e-10
9.25385e-11
8.93736e-11
8.95845e-11
9.1987e-11
9.58752e-11
1.00782e-10
1.06372e-10
1.12389e-10
1.18633e-10
1.2494e-10
1.31176e-10
1.37228e-10
1.43003e-10
1.48429e-10
1.53449e-10
1.5802e-10
1.62113e-10
1.65711e-10
1.68807e-10
1.71403e-10
1.7351e-10
1.75142e-10
1.76319e-10
1.77059e-10
1.77383e-10
1.77336e-10
1.7693e-10
1.76188e-10
1.75133e-10
1.73785e-10
1.72162e-10
1.7028e-10
1.68153e-10
1.65792e-10
1.63208e-10
1.60409e-10
1.57401e-10
1.54191e-10
1.50785e-10
1.47188e-10
1.43407e-10
1.39448e-10
1.35318e-10
1.31026e-10
1.26582e-10
1.21998e-10
1.17286e-10
1.1246e-10
1.07539e-10
1.02539e-10
9.74804e-11
9.23856e-11
8.72776e-11
8.21818e-11
7.71254e-11
7.21378e-11
6.72514e-11
6.25019e-11
5.793e-11
5.35831e-11
4.95179e-11
4.58054e-11
4.25379e-11
3.98408e-11
3.78956e-11
3.69818e-11
3.75736e-11
4.05983e-11
4.82559e-11
6.77457e-11
1.42905e-10
4.21013e-10
1.99437e-10
1.40978e-10
1.16518e-10
1.04939e-10
9.98534e-11
9.86036e-11
9.98395e-11
1.02774e-10
1.0689e-10
1.11818e-10
1.17281e-10
1.23058e-10
1.28971e-10
1.34872e-10
1.40638e-10
1.46171e-10
1.5139e-10
1.56231e-10
1.60647e-10
1.64605e-10
1.68085e-10
1.71078e-10
1.73582e-10
1.75607e-10
1.77167e-10
1.7828e-10
1.78963e-10
1.7924e-10
1.79154e-10
1.78718e-10
1.77954e-10
1.76885e-10
1.75531e-10
1.7391e-10
1.72037e-10
1.69925e-10
1.67585e-10
1.65026e-10
1.62256e-10
1.5928e-10
1.56103e-10
1.52731e-10
1.49167e-10
1.45418e-10
1.41488e-10
1.37383e-10
1.33113e-10
1.28686e-10
1.24113e-10
1.19408e-10
1.14586e-10
1.09663e-10
1.04659e-10
9.95946e-11
9.44938e-11
8.93814e-11
8.4285e-11
7.9234e-11
7.42608e-11
6.94007e-11
6.46932e-11
6.01829e-11
5.5922e-11
5.19733e-11
4.84149e-11
4.53488e-11
4.29136e-11
4.1312e-11
4.08529e-11
4.2072e-11
4.60209e-11
5.5216e-11
7.79339e-11
1.64679e-10
4.84578e-10
2.2923e-10
1.61371e-10
1.32423e-10
1.18122e-10
1.11155e-10
1.08511e-10
1.08659e-10
1.10725e-10
1.14138e-10
1.18493e-10
1.23488e-10
1.28883e-10
1.34484e-10
1.40129e-10
1.45686e-10
1.51047e-10
1.56122e-10
1.60841e-10
1.65153e-10
1.6902e-10
1.72418e-10
1.75336e-10
1.77773e-10
1.79735e-10
1.81236e-10
1.82296e-10
1.82929e-10
1.83164e-10
1.83042e-10
1.82575e-10
1.81787e-10
1.80701e-10
1.79337e-10
1.7771e-10
1.75838e-10
1.73731e-10
1.714e-10
1.68852e-10
1.66094e-10
1.63131e-10
1.59965e-10
1.56601e-10
1.53042e-10
1.49291e-10
1.45353e-10
1.41234e-10
1.3694e-10
1.32481e-10
1.27867e-10
1.23112e-10
1.18232e-10
1.13244e-10
1.08169e-10
1.03029e-10
9.78495e-11
9.26584e-11
8.74855e-11
8.23631e-11
7.73269e-11
7.24158e-11
6.76731e-11
6.31479e-11
5.88977e-11
5.49911e-11
5.1514e-11
4.85777e-11
4.63344e-11
4.50085e-11
4.49382e-11
4.67224e-11
5.15389e-11
6.2223e-11
8.81322e-11
1.86435e-10
5.50415e-10
2.60106e-10
1.82551e-10
1.49017e-10
1.31975e-10
1.2315e-10
1.19152e-10
1.18273e-10
1.19535e-10
1.22314e-10
1.26167e-10
1.30764e-10
1.35845e-10
1.41199e-10
1.46651e-10
1.52057e-10
1.57298e-10
1.62277e-10
1.66918e-10
1.71163e-10
1.74971e-10
1.78315e-10
1.81183e-10
1.8357e-10
1.85485e-10
1.86941e-10
1.87958e-10
1.88549e-10
1.88748e-10
1.88593e-10
1.88098e-10
1.87288e-10
1.86184e-10
1.84807e-10
1.83173e-10
1.81297e-10
1.7919e-10
1.7686e-10
1.74315e-10
1.71559e-10
1.68595e-10
1.65425e-10
1.62051e-10
1.58474e-10
1.54698e-10
1.50724e-10
1.46558e-10
1.42205e-10
1.37675e-10
1.32978e-10
1.28128e-10
1.23141e-10
1.18036e-10
1.12835e-10
1.07561e-10
1.02244e-10
9.69125e-11
9.15996e-11
8.63413e-11
8.11766e-11
7.61483e-11
7.13041e-11
6.66981e-11
6.23928e-11
5.84633e-11
5.50031e-11
5.21335e-11
5.00203e-11
4.89083e-11
4.91682e-11
5.14608e-11
5.7091e-11
6.9213e-11
9.82582e-11
2.08005e-10
6.1836e-10
2.91981e-10
2.04449e-10
1.66226e-10
1.46413e-10
1.35737e-10
1.30413e-10
1.28553e-10
1.29063e-10
1.31264e-10
1.34672e-10
1.3893e-10
1.43753e-10
1.48915e-10
1.54224e-10
1.59526e-10
1.64691e-10
1.69613e-10
1.7421e-10
1.78419e-10
1.82195e-10
1.85507e-10
1.88342e-10
1.90697e-10
1.92577e-10
1.93998e-10
1.94979e-10
1.95534e-10
1.95702e-10
1.95518e-10
1.94998e-10
1.94167e-10
1.93047e-10
1.91657e-10
1.90015e-10
1.88134e-10
1.86024e-10
1.83692e-10
1.81144e-10
1.78382e-10
1.75408e-10
1.72222e-10
1.68824e-10
1.65214e-10
1.61392e-10
1.5736e-10
1.53122e-10
1.48683e-10
1.44052e-10
1.39238e-10
1.34255e-10
1.29122e-10
1.23856e-10
1.18483e-10
1.13029e-10
1.07523e-10
1.01999e-10
9.64919e-11
9.1042e-11
8.56919e-11
8.04888e-11
7.5485e-11
7.07394e-11
6.63204e-11
6.23096e-11
5.88083e-11
5.59477e-11
5.39082e-11
5.29539e-11
5.34894e-11
5.62369e-11
6.26282e-11
7.61327e-11
1.08242e-10
2.29243e-10
6.88258e-10
3.24779e-10
2.27001e-10
1.83987e-10
1.61367e-10
1.48839e-10
1.42208e-10
1.39398e-10
1.392e-10
1.40868e-10
1.43881e-10
1.47847e-10
1.52462e-10
1.57477e-10
1.62688e-10
1.67926e-10
1.73051e-10
1.7795e-10
1.82532e-10
1.86729e-10
1.90493e-10
1.93793e-10
1.9661e-10
1.98944e-10
2.00799e-10
2.02193e-10
2.03145e-10
2.03669e-10
2.03811e-10
2.03601e-10
2.03059e-10
2.02209e-10
2.01074e-10
1.99673e-10
1.98024e-10
1.96137e-10
1.94022e-10
1.91685e-10
1.8913e-10
1.86358e-10
1.83367e-10
1.80156e-10
1.76723e-10
1.73066e-10
1.69184e-10
1.65078e-10
1.60748e-10
1.562e-10
1.51442e-10
1.46483e-10
1.41338e-10
1.36025e-10
1.30564e-10
1.24981e-10
1.19305e-10
1.13568e-10
1.07806e-10
1.02059e-10
9.63686e-11
9.07832e-11
8.53541e-11
8.01384e-11
7.52005e-11
7.06145e-11
6.64689e-11
6.28729e-11
5.9968e-11
5.79499e-11
5.71009e-11
5.78605e-11
6.10115e-11
6.81109e-11
8.29385e-11
1.18024e-10
2.50027e-10
7.59954e-10
3.58425e-10
2.50151e-10
2.02246e-10
1.76779e-10
1.62394e-10
1.54469e-10
1.5073e-10
1.4986e-10
1.51035e-10
1.53692e-10
1.5741e-10
1.61857e-10
1.66765e-10
1.71916e-10
1.77124e-10
1.82241e-10
1.87144e-10
1.91735e-10
1.95942e-10
1.99713e-10
2.03013e-10
2.05826e-10
2.08148e-10
2.09987e-10
2.1136e-10
2.12289e-10
2.12786e-10
2.12904e-10
2.12672e-10
2.1211e-10
2.11243e-10
2.10095e-10
2.08685e-10
2.07028e-10
2.05135e-10
2.03015e-10
2.00672e-10
1.98107e-10
1.9532e-10
1.92307e-10
1.89065e-10
1.85589e-10
1.81875e-10
1.77921e-10
1.73725e-10
1.69288e-10
1.64614e-10
1.59708e-10
1.54582e-10
1.4925e-10
1.43731e-10
1.38045e-10
1.32222e-10
1.2629e-10
1.20285e-10
1.14247e-10
1.08218e-10
1.02245e-10
9.63803e-11
9.06793e-11
8.52046e-11
8.00261e-11
7.52241e-11
7.08941e-11
6.71537e-11
6.41548e-11
6.21083e-11
6.13153e-11
6.22494e-11
6.57538e-11
7.35082e-11
8.95956e-11
1.27558e-10
2.70258e-10
8.33297e-10
3.92845e-10
2.73844e-10
2.20953e-10
1.92599e-10
1.76346e-10
1.67135e-10
1.62486e-10
1.60974e-10
1.61688e-10
1.64026e-10
1.67531e-10
1.71846e-10
1.76683e-10
1.81805e-10
1.87015e-10
1.9215e-10
1.97081e-10
2.01702e-10
2.05937e-10
2.09728e-10
2.13042e-10
2.15859e-10
2.18178e-10
2.20006e-10
2.21363e-10
2.22272e-10
2.22746e-10
2.22844e-10
2.22592e-10
2.22011e-10
2.2113e-10
2.1997e-10
2.18551e-10
2.16887e-10
2.14989e-10
2.12863e-10
2.10512e-10
2.07936e-10
2.0513e-10
2.02091e-10
1.98812e-10
1.95286e-10
1.91509e-10
1.87473e-10
1.83177e-10
1.78621e-10
1.73805e-10
1.68737e-10
1.63427e-10
1.57888e-10
1.5214e-10
1.46207e-10
1.40116e-10
1.339e-10
1.27598e-10
1.2125e-10
1.14905e-10
1.08612e-10
1.02428e-10
9.64138e-11
9.06371e-11
8.51736e-11
8.01103e-11
7.55496e-11
7.16179e-11
6.84778e-11
6.63557e-11
6.55715e-11
6.66324e-11
7.04408e-11
7.87967e-11
9.60774e-11
1.36807e-10
2.89861e-10
9.08129e-10
4.27964e-10
2.98024e-10
2.40059e-10
2.08781e-10
1.90648e-10
1.80158e-10
1.74614e-10
1.72483e-10
1.72764e-10
1.74813e-10
1.78138e-10
1.82353e-10
1.8715e-10
1.92272e-10
1.97508e-10
2.02686e-10
2.07664e-10
2.12333e-10
2.16609e-10
2.20434e-10
2.23771e-10
2.26601e-10
2.28922e-10
2.30745e-10
2.32089e-10
2.32981e-10
2.33434e-10
2.33513e-10
2.33242e-10
2.32645e-10
2.31749e-10
2.30578e-10
2.29151e-10
2.27481e-10
2.25577e-10
2.23445e-10
2.21085e-10
2.18494e-10
2.15669e-10
2.126e-10
2.0928e-10
2.057e-10
2.01851e-10
1.97728e-10
1.93324e-10
1.88639e-10
1.83672e-10
1.7843e-10
1.72922e-10
1.67162e-10
1.6117e-10
1.54969e-10
1.4859e-10
1.42068e-10
1.35442e-10
1.28758e-10
1.22066e-10
1.15421e-10
1.08882e-10
1.02518e-10
9.64e-11
9.06108e-11
8.52437e-11
8.04089e-11
7.62417e-11
7.29155e-11
7.06722e-11
6.98514e-11
7.09925e-11
7.50565e-11
8.39599e-11
1.02366e-10
1.45747e-10
3.08783e-10
9.84287e-10
4.63706e-10
3.22637e-10
2.5952e-10
2.25281e-10
2.05257e-10
1.93492e-10
1.87066e-10
1.84334e-10
1.84209e-10
1.85997e-10
1.89169e-10
1.93312e-10
1.98094e-10
2.03241e-10
2.08527e-10
2.13767e-10
2.18811e-10
2.23542e-10
2.27872e-10
2.3174e-10
2.35107e-10
2.37955e-10
2.40284e-10
2.42104e-10
2.43438e-10
2.44315e-10
2.44747e-10
2.44809e-10
2.44519e-10
2.43906e-10
2.42997e-10
2.41815e-10
2.40379e-10
2.38702e-10
2.36792e-10
2.34652e-10
2.32282e-10
2.29676e-10
2.26828e-10
2.23727e-10
2.20363e-10
2.16725e-10
2.12802e-10
2.08586e-10
2.0407e-10
1.9925e-10
1.94125e-10
1.88701e-10
1.82987e-10
1.76995e-10
1.70746e-10
1.64265e-10
1.57583e-10
1.50736e-10
1.43767e-10
1.36723e-10
1.29659e-10
1.22633e-10
1.1571e-10
1.08961e-10
1.02467e-10
9.63139e-11
9.06034e-11
8.54535e-11
8.10085e-11
7.74533e-11
7.50447e-11
7.41436e-11
7.53195e-11
7.95912e-11
8.89885e-11
1.0845e-10
1.54364e-10
3.26996e-10
1.06161e-09
4.99992e-10
3.47628e-10
2.79288e-10
2.42059e-10
2.20133e-10
2.07096e-10
1.99801e-10
1.96482e-10
1.95976e-10
1.97525e-10
2.00569e-10
2.04664e-10
2.09455e-10
2.14649e-10
2.20004e-10
2.25323e-10
2.30447e-10
2.35252e-10
2.39646e-10
2.43564e-10
2.46967e-10
2.49838e-10
2.52176e-10
2.53996e-10
2.55321e-10
2.56182e-10
2.56595e-10
2.56638e-10
2.5633e-10
2.557e-10
2.54777e-10
2.53583e-10
2.52138e-10
2.50453e-10
2.48535e-10
2.46387e-10
2.44005e-10
2.41383e-10
2.3851e-10
2.35376e-10
2.31966e-10
2.28268e-10
2.24269e-10
2.19958e-10
2.15327e-10
2.10369e-10
2.05084e-10
1.99475e-10
1.93549e-10
1.8732e-10
1.80808e-10
1.74037e-10
1.67041e-10
1.59857e-10
1.52529e-10
1.45107e-10
1.3765e-10
1.30219e-10
1.22884e-10
1.15722e-10
1.08818e-10
1.02267e-10
9.61761e-11
9.06721e-11
8.5909e-11
8.20833e-11
7.94668e-11
7.84426e-11
7.9609e-11
8.40414e-11
9.38794e-11
1.14328e-10
1.62654e-10
3.44494e-10
1.13991e-09
5.36737e-10
3.72939e-10
2.99317e-10
2.59072e-10
2.35237e-10
2.20932e-10
2.12777e-10
2.08886e-10
2.08018e-10
2.0935e-10
2.12287e-10
2.16356e-10
2.21176e-10
2.26434e-10
2.31875e-10
2.37287e-10
2.42503e-10
2.47392e-10
2.51857e-10
2.55831e-10
2.59274e-10
2.6217e-10
2.64519e-10
2.66339e-10
2.67655e-10
2.68498e-10
2.6889e-10
2.68915e-10
2.68588e-10
2.67939e-10
2.67e-10
2.65793e-10
2.64337e-10
2.62644e-10
2.60718e-10
2.5856e-10
2.56165e-10
2.53525e-10
2.50628e-10
2.47459e-10
2.44003e-10
2.40245e-10
2.3617e-10
2.31764e-10
2.27018e-10
2.21923e-10
2.16478e-10
2.10682e-10
2.04545e-10
1.98077e-10
1.91299e-10
1.84235e-10
1.76919e-10
1.69389e-10
1.61692e-10
1.53879e-10
1.46012e-10
1.38156e-10
1.30387e-10
1.22786e-10
1.15443e-10
1.08461e-10
1.01955e-10
9.60599e-11
9.094e-11
8.68037e-11
8.39377e-11
8.27488e-11
8.38622e-11
8.84092e-11
9.86359e-11
1.20003e-10
1.70624e-10
3.61293e-10
1.219e-09
5.73857e-10
3.9851e-10
3.19561e-10
2.76279e-10
2.50531e-10
2.34961e-10
2.25958e-10
2.21508e-10
2.20296e-10
2.21429e-10
2.24277e-10
2.28337e-10
2.33203e-10
2.38541e-10
2.4408e-10
2.49598e-10
2.54915e-10
2.59895e-10
2.64436e-10
2.68469e-10
2.71955e-10
2.74876e-10
2.77236e-10
2.79054e-10
2.8036e-10
2.81184e-10
2.81554e-10
2.81558e-10
2.81209e-10
2.8054e-10
2.79583e-10
2.78362e-10
2.76893e-10
2.75189e-10
2.73253e-10
2.71085e-10
2.68677e-10
2.66019e-10
2.63096e-10
2.59894e-10
2.56393e-10
2.52577e-10
2.48427e-10
2.4393e-10
2.39072e-10
2.33844e-10
2.28242e-10
2.22265e-10
2.15918e-10
2.09215e-10
2.02173e-10
1.94817e-10
1.87179e-10
1.793e-10
1.71227e-10
1.63015e-10
1.54726e-10
1.4643e-10
1.38207e-10
1.30143e-10
1.22336e-10
1.14893e-10
1.07939e-10
1.01618e-10
9.61039e-11
9.16182e-11
8.84618e-11
8.70679e-11
8.80856e-11
9.27022e-11
1.03267e-10
1.25488e-10
1.78293e-10
3.77428e-10
1.29871e-09
6.11261e-10
4.24281e-10
3.3997e-10
2.9364e-10
2.65976e-10
2.49147e-10
2.39307e-10
2.34312e-10
2.3277e-10
2.33718e-10
2.36494e-10
2.40559e-10
2.45484e-10
2.50915e-10
2.56563e-10
2.62194e-10
2.67619e-10
2.72694e-10
2.77314e-10
2.81409e-10
2.84937e-10
2.87883e-10
2.90253e-10
2.92067e-10
2.9336e-10
2.94162e-10
2.94508e-10
2.94488e-10
2.94114e-10
2.93423e-10
2.92446e-10
2.91207e-10
2.89725e-10
2.88009e-10
2.86062e-10
2.83882e-10
2.81461e-10
2.78786e-10
2.7584e-10
2.72606e-10
2.69064e-10
2.65193e-10
2.60974e-10
2.5639e-10
2.51427e-10
2.46073e-10
2.4032e-10
2.34169e-10
2.27621e-10
2.20689e-10
2.13389e-10
2.05745e-10
1.97789e-10
1.89563e-10
1.81113e-10
1.72496e-10
1.63777e-10
1.5503e-10
1.46337e-10
1.37792e-10
1.29496e-10
1.21566e-10
1.14133e-10
1.07352e-10
1.01409e-10
9.65355e-11
9.30489e-11
9.14102e-11
9.22904e-11
9.69329e-11
1.07787e-10
1.30801e-10
1.85686e-10
3.92957e-10
1.37882e-09
6.48855e-10
4.50186e-10
3.60495e-10
3.11111e-10
2.81535e-10
2.63454e-10
2.52788e-10
2.47259e-10
2.454e-10
2.46177e-10
2.48892e-10
2.52976e-10
2.5797e-10
2.63502e-10
2.69267e-10
2.75016e-10
2.80552e-10
2.85726e-10
2.90426e-10
2.94582e-10
2.98151e-10
3.0112e-10
3.03496e-10
3.05304e-10
3.0658e-10
3.07357e-10
3.07676e-10
3.07628e-10
3.07226e-10
3.0651e-10
3.0551e-10
3.04253e-10
3.02755e-10
3.01026e-10
2.99069e-10
2.96878e-10
2.94445e-10
2.91754e-10
2.88789e-10
2.85527e-10
2.81948e-10
2.78029e-10
2.73748e-10
2.69087e-10
2.64027e-10
2.58556e-10
2.52665e-10
2.46349e-10
2.39612e-10
2.32461e-10
2.24912e-10
2.1699e-10
2.08724e-10
2.00155e-10
1.9133e-10
1.82309e-10
1.73157e-10
1.6395e-10
1.54777e-10
1.45733e-10
1.36928e-10
1.28486e-10
1.20547e-10
1.13275e-10
1.06866e-10
1.01569e-10
9.77131e-11
9.57907e-11
9.64925e-11
1.01118e-10
1.12215e-10
1.35965e-10
1.92837e-10
4.07953e-10
1.45913e-09
6.86542e-10
4.76162e-10
3.81085e-10
3.28651e-10
2.97169e-10
2.77846e-10
2.66364e-10
2.60313e-10
2.58148e-10
2.58765e-10
2.61429e-10
2.65539e-10
2.7061e-10
2.76249e-10
2.82134e-10
2.88005e-10
2.93655e-10
2.98926e-10
3.03706e-10
3.0792e-10
3.11527e-10
3.14515e-10
3.16894e-10
3.18691e-10
3.19946e-10
3.20693e-10
3.20983e-10
3.20903e-10
3.20471e-10
3.19726e-10
3.18702e-10
3.17425e-10
3.15911e-10
3.14169e-10
3.12201e-10
3.10002e-10
3.0756e-10
3.04859e-10
3.01878e-10
2.98596e-10
2.94988e-10
2.91029e-10
2.86696e-10
2.81968e-10
2.76824e-10
2.71249e-10
2.65233e-10
2.58767e-10
2.51854e-10
2.44499e-10
2.36716e-10
2.28527e-10
2.19962e-10
2.11059e-10
2.01867e-10
1.92445e-10
1.82859e-10
1.7319e-10
1.63527e-10
1.53973e-10
1.44642e-10
1.35666e-10
1.27194e-10
1.194e-10
1.12493e-10
1.06735e-10
1.02473e-10
1.00228e-10
1.00711e-10
1.05279e-10
1.16575e-10
1.41008e-10
1.99787e-10
4.22503e-10
1.53941e-09
7.24222e-10
5.02139e-10
4.01687e-10
3.46214e-10
3.1284e-10
2.92287e-10
2.80001e-10
2.73438e-10
2.70976e-10
2.71441e-10
2.74061e-10
2.78201e-10
2.83353e-10
2.89102e-10
2.95109e-10
3.01101e-10
3.06862e-10
3.12229e-10
3.17085e-10
3.21353e-10
3.24994e-10
3.27997e-10
3.30373e-10
3.32155e-10
3.33386e-10
3.34098e-10
3.34355e-10
3.3424e-10
3.33774e-10
3.32999e-10
3.3195e-10
3.30651e-10
3.29122e-10
3.27369e-10
3.25394e-10
3.2319e-10
3.20744e-10
3.18039e-10
3.15051e-10
3.11757e-10
3.08131e-10
3.04145e-10
2.99773e-10
2.94992e-10
2.89779e-10
2.84117e-10
2.77991e-10
2.71393e-10
2.64321e-10
2.56778e-10
2.48777e-10
2.40337e-10
2.31487e-10
2.22263e-10
2.12714e-10
2.02898e-10
1.92883e-10
1.82751e-10
1.72594e-10
1.6252e-10
1.52649e-10
1.4312e-10
1.34091e-10
1.25747e-10
1.18309e-10
1.12055e-10
1.0735e-10
1.04744e-10
1.04969e-10
1.09439e-10
1.20894e-10
1.45965e-10
2.06583e-10
4.36707e-10
1.61946e-09
7.61791e-10
5.28048e-10
4.22248e-10
3.63758e-10
3.28507e-10
3.06739e-10
2.93661e-10
2.86596e-10
2.83845e-10
2.84163e-10
2.86743e-10
2.90916e-10
2.9615e-10
3.02007e-10
3.08133e-10
3.14243e-10
3.20112e-10
3.2557e-10
3.30496e-10
3.34814e-10
3.38482e-10
3.41494e-10
3.43863e-10
3.45624e-10
3.46825e-10
3.47498e-10
3.4772e-10
3.47566e-10
3.47064e-10
3.46258e-10
3.45183e-10
3.43866e-10
3.42323e-10
3.40563e-10
3.38586e-10
3.36384e-10
3.33942e-10
3.31242e-10
3.28258e-10
3.24965e-10
3.21334e-10
3.17336e-10
3.12942e-10
3.08125e-10
3.02861e-10
2.9713e-10
2.90914e-10
2.84203e-10
2.76991e-10
2.6928e-10
2.6108e-10
2.52407e-10
2.43289e-10
2.33759e-10
2.23866e-10
2.13666e-10
2.03229e-10
1.92637e-10
1.81986e-10
1.71385e-10
1.60963e-10
1.50864e-10
1.41256e-10
1.32336e-10
1.24337e-10
1.17553e-10
1.12367e-10
1.09362e-10
1.09291e-10
1.13624e-10
1.252e-10
1.50869e-10
2.13276e-10
4.50672e-10
1.69903e-09
7.99144e-10
5.53818e-10
4.42713e-10
3.81236e-10
3.44132e-10
3.21166e-10
3.07309e-10
2.9975e-10
2.96716e-10
2.9689e-10
2.9943e-10
3.03635e-10
3.08947e-10
3.14908e-10
3.21149e-10
3.27371e-10
3.3334e-10
3.38881e-10
3.43871e-10
3.4823e-10
3.5192e-10
3.54933e-10
3.57289e-10
3.59024e-10
3.6019e-10
3.60821e-10
3.61005e-10
3.60811e-10
3.60273e-10
3.59436e-10
3.58338e-10
3.57004e-10
3.55453e-10
3.53693e-10
3.51722e-10
3.49531e-10
3.47106e-10
3.44423e-10
3.41459e-10
3.38183e-10
3.34564e-10
3.30572e-10
3.26175e-10
3.21343e-10
3.16049e-10
3.10269e-10
3.03985e-10
2.97182e-10
2.89852e-10
2.81994e-10
2.73615e-10
2.64729e-10
2.5536e-10
2.45542e-10
2.3532e-10
2.24749e-10
2.139e-10
2.02854e-10
1.91709e-10
1.8058e-10
1.69598e-10
1.58916e-10
1.48711e-10
1.39189e-10
1.306e-10
1.23253e-10
1.17552e-10
1.14106e-10
1.13704e-10
1.17864e-10
1.29525e-10
1.55759e-10
2.19919e-10
4.64513e-10
1.7779e-09
8.36173e-10
5.79378e-10
4.63028e-10
3.98602e-10
3.59674e-10
3.3553e-10
3.20908e-10
3.12863e-10
3.09549e-10
3.0958e-10
3.12077e-10
3.1631e-10
3.21693e-10
3.2775e-10
3.34096e-10
3.40421e-10
3.46481e-10
3.52097e-10
3.5714e-10
3.61533e-10
3.65235e-10
3.68244e-10
3.70579e-10
3.72284e-10
3.73411e-10
3.73996e-10
3.7414e-10
3.73907e-10
3.73334e-10
3.7247e-10
3.71352e-10
3.70009e-10
3.68458e-10
3.66706e-10
3.64753e-10
3.62588e-10
3.60193e-10
3.57547e-10
3.54619e-10
3.5138e-10
3.47796e-10
3.43833e-10
3.39455e-10
3.34632e-10
3.29331e-10
3.23528e-10
3.17198e-10
3.10326e-10
3.029e-10
2.94917e-10
2.86379e-10
2.773e-10
2.67699e-10
2.5761e-10
2.47075e-10
2.36148e-10
2.24897e-10
2.13406e-10
2.01773e-10
1.90116e-10
1.78569e-10
1.67293e-10
1.56474e-10
1.46329e-10
1.37123e-10
1.29182e-10
1.2293e-10
1.19004e-10
1.18235e-10
1.22187e-10
1.33902e-10
1.60674e-10
2.26566e-10
4.78344e-10
1.85584e-09
8.72771e-10
6.04655e-10
4.83136e-10
4.15812e-10
3.75092e-10
3.49793e-10
3.3442e-10
3.25898e-10
3.22303e-10
3.2219e-10
3.24639e-10
3.2889e-10
3.34334e-10
3.40477e-10
3.46916e-10
3.5333e-10
3.5947e-10
3.65148e-10
3.70235e-10
3.7465e-10
3.78357e-10
3.81353e-10
3.83663e-10
3.85332e-10
3.86417e-10
3.86954e-10
3.8706e-10
3.86788e-10
3.86184e-10
3.85298e-10
3.84169e-10
3.82825e-10
3.81286e-10
3.79558e-10
3.77638e-10
3.75516e-10
3.73173e-10
3.70583e-10
3.67717e-10
3.6454e-10
3.61016e-10
3.57107e-10
3.52776e-10
3.47988e-10
3.42708e-10
3.36906e-10
3.30556e-10
3.23639e-10
3.1614e-10
3.08053e-10
2.99377e-10
2.90124e-10
2.8031e-10
2.69967e-10
2.59134e-10
2.47865e-10
2.36226e-10
2.243e-10
2.12185e-10
2.00001e-10
1.87888e-10
1.76011e-10
1.64564e-10
1.53777e-10
1.43929e-10
1.35363e-10
1.28527e-10
1.24084e-10
1.22914e-10
1.26623e-10
1.38361e-10
1.6565e-10
2.3327e-10
4.92277e-10
1.93262e-09
9.0883e-10
6.29576e-10
5.02983e-10
4.32818e-10
3.90346e-10
3.63917e-10
3.47808e-10
3.38815e-10
3.34938e-10
3.34678e-10
3.37069e-10
3.41327e-10
3.46819e-10
3.53031e-10
3.59548e-10
3.66037e-10
3.72241e-10
3.77968e-10
3.83085e-10
3.87513e-10
3.91215e-10
3.94191e-10
3.9647e-10
3.981e-10
3.99139e-10
3.99631e-10
3.997e-10
3.99394e-10
3.98766e-10
3.97866e-10
3.96737e-10
3.95407e-10
3.93895e-10
3.92208e-10
3.90342e-10
3.88286e-10
3.86019e-10
3.83514e-10
3.80736e-10
3.77651e-10
3.74217e-10
3.70395e-10
3.66142e-10
3.61419e-10
3.56189e-10
3.50417e-10
3.44074e-10
3.37137e-10
3.29588e-10
3.21417e-10
3.12623e-10
3.03213e-10
2.93203e-10
2.82621e-10
2.71505e-10
2.59906e-10
2.4789e-10
2.35539e-10
2.2295e-10
2.10245e-10
1.97566e-10
1.85083e-10
1.72998e-10
1.61552e-10
1.51039e-10
1.4182e-10
1.34369e-10
1.29371e-10
1.27766e-10
1.31199e-10
1.42933e-10
1.70724e-10
2.40082e-10
5.0642e-10
2.008e-09
9.44244e-10
6.54071e-10
5.22513e-10
4.49575e-10
4.05395e-10
3.77864e-10
3.61036e-10
3.51578e-10
3.47416e-10
3.47e-10
3.49322e-10
3.53572e-10
3.59093e-10
3.65357e-10
3.71933e-10
3.78479e-10
3.8473e-10
3.90489e-10
3.95624e-10
4.00052e-10
4.0374e-10
4.06689e-10
4.08931e-10
4.1052e-10
4.11513e-10
4.11962e-10
4.12e-10
4.11668e-10
4.11025e-10
4.10125e-10
4.0901e-10
4.07711e-10
4.06247e-10
4.04624e-10
4.02839e-10
4.00877e-10
3.98717e-10
3.96327e-10
3.93673e-10
3.90714e-10
3.87407e-10
3.83706e-10
3.79566e-10
3.74944e-10
3.69796e-10
3.64085e-10
3.57777e-10
3.50845e-10
3.43269e-10
3.35035e-10
3.26139e-10
3.16588e-10
3.06394e-10
2.95585e-10
2.84197e-10
2.72279e-10
2.59896e-10
2.47128e-10
2.34073e-10
2.20852e-10
2.07608e-10
1.94517e-10
1.81787e-10
1.69669e-10
1.58471e-10
1.48575e-10
1.40477e-10
1.34891e-10
1.32818e-10
1.35942e-10
1.47648e-10
1.7593e-10
2.47048e-10
5.20872e-10
2.08177e-09
9.78911e-10
6.7807e-10
5.41673e-10
4.66039e-10
4.202e-10
3.91598e-10
3.74065e-10
3.64147e-10
3.59696e-10
3.59116e-10
3.61353e-10
3.65575e-10
3.71106e-10
3.77399e-10
3.84012e-10
3.90594e-10
3.96872e-10
4.02648e-10
4.07784e-10
4.12201e-10
4.15865e-10
4.1878e-10
4.20983e-10
4.2253e-10
4.23479e-10
4.23891e-10
4.23904e-10
4.23557e-10
4.22913e-10
4.22029e-10
4.20949e-10
4.19704e-10
4.18313e-10
4.16783e-10
4.15109e-10
4.13275e-10
4.11256e-10
4.09021e-10
4.0653e-10
4.03738e-10
4.00598e-10
3.9706e-10
3.93074e-10
3.88591e-10
3.83562e-10
3.77946e-10
3.71703e-10
3.64803e-10
3.57222e-10
3.48943e-10
3.39961e-10
3.30279e-10
3.19912e-10
3.08882e-10
2.97227e-10
2.84996e-10
2.72252e-10
2.59073e-10
2.45557e-10
2.31824e-10
2.1802e-10
2.0432e-10
1.9094e-10
1.7814e-10
1.66241e-10
1.55645e-10
1.46872e-10
1.40665e-10
1.38092e-10
1.40877e-10
1.52531e-10
1.81298e-10
2.54211e-10
5.35718e-10
2.15371e-09
1.01273e-09
7.01506e-10
5.6041e-10
4.82165e-10
4.34721e-10
4.0508e-10
3.86861e-10
3.76486e-10
3.7174e-10
3.70983e-10
3.73117e-10
3.77289e-10
3.82805e-10
3.89102e-10
3.95728e-10
4.02322e-10
4.08608e-10
4.1438e-10
4.19503e-10
4.23896e-10
4.27526e-10
4.30402e-10
4.32563e-10
4.34069e-10
4.3498e-10
4.35365e-10
4.35364e-10
4.35016e-10
4.3439e-10
4.33543e-10
4.32521e-10
4.31357e-10
4.3007e-10
4.28666e-10
4.27139e-10
4.25472e-10
4.23638e-10
4.21601e-10
4.19318e-10
4.1674e-10
4.13815e-10
4.10487e-10
4.06701e-10
4.024e-10
3.97532e-10
3.92047e-10
3.85903e-10
3.79063e-10
3.71499e-10
3.63193e-10
3.54136e-10
3.44332e-10
3.33793e-10
3.22544e-10
3.10622e-10
2.98076e-10
2.8497e-10
2.7138e-10
2.57405e-10
2.43163e-10
2.28799e-10
2.14492e-10
2.00459e-10
1.8697e-10
1.74358e-10
1.63042e-10
1.5357e-10
1.4671e-10
1.43608e-10