/*--------------------------------*- C++ -*----------------------------------*\
  =========                 |
  \\      /  F ield         | OpenFOAM: The Open Source CFD Toolbox
   \\    /   O peration     | Website:  https://openfoam.org
    \\  /    A nd           | Version:  12
     \\/     M anipulation  |
\*---------------------------------------------------------------------------*/
FoamFile
{
    format      ascii;
    class       volScalarField;
    location    "3";
    object      k;
}
// * * * * * * * * * * * * * * * * * * * * * * * * * * * * * * * * * * * * * //

dimensions      [0 2 -2 0 0 0 0];

internalField   nonuniform List<scalar> 
5625
(
1.19557e-15
5.96919e-15
1.30195e-14
2.14191e-14
3.07345e-14
4.06914e-14
5.10815e-14
6.17317e-14
7.24913e-14
8.32267e-14
9.38181e-14
1.04159e-13
1.14154e-13
1.23721e-13
1.3279e-13
1.41302e-13
1.49212e-13
1.56484e-13
1.63098e-13
1.6904e-13
1.7431e-13
1.78913e-13
1.82866e-13
1.86189e-13
1.88908e-13
1.91054e-13
1.92659e-13
1.93755e-13
1.94374e-13
1.94551e-13
1.94318e-13
1.93702e-13
1.92725e-13
1.9141e-13
1.89776e-13
1.87838e-13
1.85609e-13
1.831e-13
1.80319e-13
1.77273e-13
1.73967e-13
1.70406e-13
1.66595e-13
1.62539e-13
1.58242e-13
1.53713e-13
1.48958e-13
1.43988e-13
1.38813e-13
1.33446e-13
1.27902e-13
1.22199e-13
1.16355e-13
1.1039e-13
1.04325e-13
9.81827e-14
9.19874e-14
8.57629e-14
7.95334e-14
7.33234e-14
6.7157e-14
6.10582e-14
5.50503e-14
4.91563e-14
4.33989e-14
3.78009e-14
3.23858e-14
2.71783e-14
2.2206e-14
1.75016e-14
1.31056e-14
9.07356e-15
5.49021e-15
2.51055e-15
5.02507e-16
5.97368e-15
5.13817e-14
1.15686e-13
1.91629e-13
2.75644e-13
3.65359e-13
4.58933e-13
5.54821e-13
6.51677e-13
7.483e-13
8.43616e-13
9.36665e-13
1.0266e-12
1.11267e-12
1.19425e-12
1.27081e-12
1.34195e-12
1.40735e-12
1.46681e-12
1.52024e-12
1.5676e-12
1.60897e-12
1.64448e-12
1.67433e-12
1.69875e-12
1.71801e-12
1.7324e-12
1.74223e-12
1.74775e-12
1.74932e-12
1.74721e-12
1.74164e-12
1.73284e-12
1.72101e-12
1.7063e-12
1.68887e-12
1.66882e-12
1.64626e-12
1.62124e-12
1.59383e-12
1.56409e-12
1.53205e-12
1.49777e-12
1.46129e-12
1.42264e-12
1.38191e-12
1.33914e-12
1.29444e-12
1.2479e-12
1.19964e-12
1.14979e-12
1.0985e-12
1.04595e-12
9.92305e-13
9.37768e-13
8.82541e-13
8.26835e-13
7.70866e-13
7.14854e-13
6.59017e-13
6.03573e-13
5.48736e-13
4.94716e-13
4.41719e-13
3.8995e-13
3.39612e-13
2.90914e-13
2.44079e-13
1.99352e-13
1.57022e-13
1.17449e-13
8.11179e-14
4.87505e-14
2.1597e-14
2.50927e-15
1.30691e-14
1.16033e-13
2.63514e-13
4.38383e-13
6.32072e-13
8.38963e-13
1.05475e-12
1.27587e-12
1.49918e-12
1.72193e-12
1.94164e-12
2.15609e-12
2.36331e-12
2.5616e-12
2.7495e-12
2.92579e-12
3.08954e-12
3.24002e-12
3.37679e-12
3.49959e-12
3.60841e-12
3.70339e-12
3.78486e-12
3.85327e-12
3.90917e-12
3.95318e-12
3.98599e-12
4.00829e-12
4.02069e-12
4.024e-12
4.01885e-12
4.00578e-12
3.98529e-12
3.95783e-12
3.9238e-12
3.8835e-12
3.83721e-12
3.78514e-12
3.72747e-12
3.66432e-12
3.59582e-12
3.52205e-12
3.44313e-12
3.35915e-12
3.27021e-12
3.17647e-12
3.07807e-12
2.97522e-12
2.86814e-12
2.75711e-12
2.64244e-12
2.52446e-12
2.40358e-12
2.2802e-12
2.15478e-12
2.02777e-12
1.89966e-12
1.77096e-12
1.64216e-12
1.51378e-12
1.3863e-12
1.26023e-12
1.13603e-12
1.0142e-12
8.9518e-13
7.79454e-13
6.67497e-13
5.59815e-13
4.56974e-13
3.59637e-13
2.68636e-13
1.85107e-13
1.10771e-13
4.86516e-14
5.47599e-15
2.16142e-14
1.93207e-13
4.40661e-13
7.35211e-13
1.06208e-12
1.41153e-12
1.77614e-12
2.14979e-12
2.52716e-12
2.90354e-12
3.27473e-12
3.63696e-12
3.98691e-12
4.32167e-12
4.63877e-12
4.93617e-12
5.21225e-12
5.46584e-12
5.69616e-12
5.90281e-12
6.08575e-12
6.24528e-12
6.38193e-12
6.4965e-12
6.58993e-12
6.6633e-12
6.71777e-12
6.75452e-12
6.77456e-12
6.77936e-12
6.76996e-12
6.74723e-12
6.71205e-12
6.66518e-12
6.60728e-12
6.53888e-12
6.46044e-12
6.37231e-12
6.27479e-12
6.16809e-12
6.05241e-12
5.92791e-12
5.79474e-12
5.65308e-12
5.50311e-12
5.34505e-12
5.17918e-12
5.00582e-12
4.82537e-12
4.63828e-12
4.44507e-12
4.24633e-12
4.0427e-12
3.83489e-12
3.62364e-12
3.40976e-12
3.19405e-12
2.97736e-12
2.76054e-12
2.54442e-12
2.32986e-12
2.11768e-12
1.90868e-12
1.70366e-12
1.50341e-12
1.3087e-12
1.12034e-12
9.39181e-13
7.66179e-13
6.02457e-13
4.49445e-13
3.09109e-13
1.84444e-13
8.06617e-14
9.01714e-15
3.1249e-14
2.80007e-13
6.40122e-13
1.07003e-12
1.54799e-12
2.0595e-12
2.59353e-12
3.14094e-12
3.69386e-12
4.24533e-12
4.78911e-12
5.31967e-12
5.83209e-12
6.32209e-12
6.78603e-12
7.22091e-12
7.62436e-12
7.99465e-12
8.33066e-12
8.63181e-12
8.8981e-12
9.12996e-12
9.32822e-12
9.49408e-12
9.62895e-12
9.73445e-12
9.81231e-12
9.8643e-12
9.89181e-12
9.89723e-12
9.88196e-12
9.84732e-12
9.79458e-12
9.72487e-12
9.63915e-12
9.53822e-12
9.42274e-12
9.29322e-12
9.15007e-12
8.99362e-12
8.82415e-12
8.64188e-12
8.44703e-12
8.23985e-12
8.02059e-12
7.78959e-12
7.54723e-12
7.294e-12
7.03045e-12
6.75726e-12
6.47518e-12
6.18507e-12
5.88787e-12
5.58461e-12
5.2764e-12
4.96437e-12
4.64974e-12
4.33373e-12
4.01757e-12
3.7025e-12
3.38974e-12
3.0805e-12
2.77594e-12
2.47723e-12
2.1855e-12
1.90189e-12
1.62755e-12
1.36375e-12
1.11188e-12
8.736e-13
6.51031e-13
4.47108e-13
2.66278e-13
1.16177e-13
1.29557e-14
4.17816e-14
3.74804e-13
8.58001e-13
1.43605e-12
2.07971e-12
2.76928e-12
3.48967e-12
4.2284e-12
4.9747e-12
5.71906e-12
6.45298e-12
7.1689e-12
7.86012e-12
8.52081e-12
9.14603e-12
9.73168e-12
1.02746e-11
1.07724e-11
1.12235e-11
1.16274e-11
1.19839e-11
1.22937e-11
1.25581e-11
1.27785e-11
1.29572e-11
1.30962e-11
1.31979e-11
1.32648e-11
1.32987e-11
1.33032e-11
1.328e-11
1.32308e-11
1.31574e-11
1.30615e-11
1.29441e-11
1.28065e-11
1.26495e-11
1.24739e-11
1.22801e-11
1.20686e-11
1.18397e-11
1.15938e-11
1.13311e-11
1.10519e-11
1.07566e-11
1.04457e-11
1.01196e-11
9.77897e-12
9.42458e-12
9.0573e-12
8.67817e-12
8.28832e-12
7.88904e-12
7.48171e-12
7.0678e-12
6.64888e-12
6.22654e-12
5.80243e-12
5.37822e-12
4.95557e-12
4.53612e-12
4.12147e-12
3.71319e-12
3.31284e-12
2.92192e-12
2.54196e-12
2.17451e-12
1.82126e-12
1.48409e-12
1.16525e-12
8.67634e-13
5.95231e-13
3.54044e-13
1.54257e-13
1.71826e-14
5.30899e-14
4.76535e-13
1.09181e-12
1.82896e-12
2.65079e-12
3.53208e-12
4.45334e-12
5.39845e-12
6.35346e-12
7.30605e-12
8.2452e-12
9.16112e-12
1.00451e-11
1.08897e-11
1.16884e-11
1.24359e-11
1.31282e-11
1.37623e-11
1.43362e-11
1.4849e-11
1.53009e-11
1.56926e-11
1.60259e-11
1.63028e-11
1.65261e-11
1.66987e-11
1.68237e-11
1.69042e-11
1.69426e-11
1.69439e-11
1.69099e-11
1.68431e-11
1.67457e-11
1.66198e-11
1.64669e-11
1.62886e-11
1.60858e-11
1.58595e-11
1.56104e-11
1.5339e-11
1.50457e-11
1.4731e-11
1.43951e-11
1.40385e-11
1.36616e-11
1.32648e-11
1.2849e-11
1.24148e-11
1.19632e-11
1.14954e-11
1.10126e-11
1.05163e-11
1.00081e-11
9.48987e-12
8.96338e-12
8.43065e-12
7.89373e-12
7.35472e-12
6.81572e-12
6.27885e-12
5.7462e-12
5.21979e-12
4.70163e-12
4.19365e-12
3.69778e-12
3.21595e-12
2.75012e-12
2.30243e-12
1.87528e-12
1.47156e-12
1.09498e-12
7.50606e-13
4.46073e-13
1.94188e-13
2.16171e-14
6.50882e-14
5.84443e-13
1.33979e-12
2.24573e-12
3.25673e-12
4.34174e-12
5.47664e-12
6.64141e-12
7.81866e-12
8.993e-12
1.01507e-11
1.12795e-11
1.23685e-11
1.34084e-11
1.43911e-11
1.531e-11
1.61601e-11
1.69375e-11
1.76401e-11
1.82666e-11
1.88174e-11
1.92936e-11
1.96972e-11
2.00312e-11
2.02988e-11
2.05039e-11
2.06505e-11
2.07421e-11
2.07824e-11
2.07775e-11
2.07294e-11
2.06413e-11
2.0516e-11
2.03561e-11
2.01636e-11
1.99402e-11
1.96873e-11
1.9406e-11
1.90971e-11
1.87613e-11
1.83991e-11
1.80109e-11
1.75971e-11
1.71582e-11
1.66947e-11
1.62072e-11
1.56965e-11
1.51636e-11
1.46096e-11
1.4036e-11
1.34442e-11
1.28361e-11
1.22137e-11
1.15791e-11
1.09347e-11
1.02828e-11
9.62602e-12
8.96689e-12
8.30801e-12
7.65194e-12
7.00124e-12
6.3584e-12
5.72582e-12
5.10589e-12
4.50093e-12
3.91329e-12
3.34536e-12
2.79976e-12
2.27941e-12
1.78785e-12
1.32961e-12
9.10919e-13
5.41016e-13
2.35386e-13
2.61937e-14
7.77113e-14
6.97952e-13
1.60061e-12
2.6841e-12
3.89418e-12
5.1937e-12
6.55371e-12
7.95004e-12
9.36166e-12
1.07699e-11
1.21581e-11
1.35112e-11
1.48162e-11
1.60614e-11
1.72373e-11
1.83357e-11
1.93504e-11
2.02771e-11
2.11129e-11
2.18566e-11
2.25086e-11
2.30704e-11
2.35446e-11
2.39349e-11
2.42455e-11
2.44809e-11
2.46463e-11
2.47457e-11
2.47845e-11
2.47694e-11
2.4703e-11
2.45894e-11
2.44319e-11
2.42336e-11
2.3997e-11
2.37241e-11
2.34167e-11
2.3076e-11
2.27029e-11
2.22983e-11
2.18628e-11
2.13968e-11
2.09008e-11
2.03754e-11
1.9821e-11
1.92385e-11
1.86287e-11
1.79928e-11
1.73322e-11
1.66485e-11
1.59435e-11
1.52194e-11
1.44785e-11
1.37235e-11
1.29571e-11
1.21821e-11
1.14016e-11
1.06185e-11
9.83612e-12
9.05733e-12
8.2852e-12
7.52268e-12
6.77262e-12
6.03782e-12
5.32104e-12
4.62503e-12
3.95263e-12
3.30691e-12
2.69135e-12
2.11015e-12
1.56865e-12
1.07421e-12
6.37723e-13
2.77354e-13
3.08568e-14
9.09074e-14
8.166e-13
1.87322e-12
3.14228e-12
4.56049e-12
6.08436e-12
7.67992e-12
9.31865e-12
1.09757e-11
1.26288e-11
1.42582e-11
1.58461e-11
1.73767e-11
1.88363e-11
2.02133e-11
2.1498e-11
2.26833e-11
2.37638e-11
2.47362e-11
2.55993e-11
2.63536e-11
2.70011e-11
2.7545e-11
2.79898e-11
2.83407e-11
2.86034e-11
2.87838e-11
2.88867e-11
2.89198e-11
2.88898e-11
2.88005e-11
2.86564e-11
2.84618e-11
2.82203e-11
2.79348e-11
2.76078e-11
2.72412e-11
2.68365e-11
2.63949e-11
2.59173e-11
2.54043e-11
2.48564e-11
2.42743e-11
2.36584e-11
2.30094e-11
2.23281e-11
2.16157e-11
2.08733e-11
2.01026e-11
1.93055e-11
1.8484e-11
1.76408e-11
1.67785e-11
1.59001e-11
1.50088e-11
1.4108e-11
1.32011e-11
1.22917e-11
1.13834e-11
1.04796e-11
9.58402e-12
8.69989e-12
7.83056e-12
6.97926e-12
6.14916e-12
5.34343e-12
4.56535e-12
3.81845e-12
3.10674e-12
2.43506e-12
1.80959e-12
1.2388e-12
7.35199e-13
3.19661e-13
3.55583e-14
1.04633e-13
9.39997e-13
2.15673e-12
3.61876e-12
5.25344e-12
7.01074e-12
8.85144e-12
1.07425e-11
1.26551e-11
1.45632e-11
1.64437e-11
1.82757e-11
2.00407e-11
2.17225e-11
2.33076e-11
2.47846e-11
2.61451e-11
2.73829e-11
2.84943e-11
2.94779e-11
3.03345e-11
3.10665e-11
3.16781e-11
3.21747e-11
3.25623e-11
3.28481e-11
3.3039e-11
3.31401e-11
3.31626e-11
3.31125e-11
3.29947e-11
3.28149e-11
3.25778e-11
3.22878e-11
3.19483e-11
3.15621e-11
3.11315e-11
3.06582e-11
3.01436e-11
2.95887e-11
2.89941e-11
2.83605e-11
2.76885e-11
2.69786e-11
2.62317e-11
2.54486e-11
2.46304e-11
2.37788e-11
2.28953e-11
2.19823e-11
2.10421e-11
2.00775e-11
1.90917e-11
1.80881e-11
1.70702e-11
1.6042e-11
1.50074e-11
1.39703e-11
1.2935e-11
1.19053e-11
1.08853e-11
9.87883e-12
8.88962e-12
7.92131e-12
6.9775e-12
6.06177e-12
5.17782e-12
4.32963e-12
3.52174e-12
2.75963e-12
2.05026e-12
1.4032e-12
8.32574e-13
3.61928e-13
4.02561e-14
1.18848e-13
1.0678e-12
2.45034e-12
4.11222e-12
5.97111e-12
7.97023e-12
1.0065e-11
1.22176e-11
1.43949e-11
1.65673e-11
1.87079e-11
2.07925e-11
2.27998e-11
2.47109e-11
2.65101e-11
2.81844e-11
2.97238e-11
3.11214e-11
3.23731e-11
3.34773e-11
3.44351e-11
3.52497e-11
3.5926e-11
3.64704e-11
3.68905e-11
3.71943e-11
3.739e-11
3.74836e-11
3.749e-11
3.74137e-11
3.72615e-11
3.70399e-11
3.67546e-11
3.64104e-11
3.60113e-11
3.55607e-11
3.50611e-11
3.45145e-11
3.39224e-11
3.32859e-11
3.26057e-11
3.18827e-11
3.11173e-11
3.03103e-11
2.94624e-11
2.85747e-11
2.76485e-11
2.66853e-11
2.56872e-11
2.46566e-11
2.35961e-11
2.2509e-11
2.13986e-11
2.02689e-11
1.91239e-11
1.79678e-11
1.68051e-11
1.56403e-11
1.44779e-11
1.33224e-11
1.21782e-11
1.10497e-11
9.94103e-12
8.85622e-12
7.79929e-12
6.77421e-12
5.78509e-12
4.83637e-12
3.93308e-12
3.08129e-12
2.28878e-12
1.56614e-12
9.29091e-13
4.03828e-13
4.49136e-14
1.3352e-13
1.19969e-12
2.75333e-12
4.62145e-12
6.71172e-12
8.96044e-12
1.13174e-11
1.37401e-11
1.61909e-11
1.8636e-11
2.10449e-11
2.33899e-11
2.56465e-11
2.77931e-11
2.98115e-11
3.16871e-11
3.34083e-11
3.49673e-11
3.63596e-11
3.75836e-11
3.86407e-11
3.95348e-11
4.0272e-11
4.08597e-11
4.13068e-11
4.16229e-11
4.18165e-11
4.18972e-11
4.18806e-11
4.17716e-11
4.15785e-11
4.13088e-11
4.0969e-11
4.05646e-11
4.01003e-11
3.95798e-11
3.9006e-11
3.83811e-11
3.77069e-11
3.69846e-11
3.6215e-11
3.53988e-11
3.45369e-11
3.36298e-11
3.26784e-11
3.16839e-11
3.06477e-11
2.95714e-11
2.84574e-11
2.73082e-11
2.61269e-11
2.49168e-11
2.36818e-11
2.24262e-11
2.11543e-11
1.98709e-11
1.85809e-11
1.72891e-11
1.60006e-11
1.47204e-11
1.34533e-11
1.22041e-11
1.09772e-11
9.77734e-12
8.60871e-12
7.47574e-12
6.38294e-12
5.33516e-12
4.33792e-12
3.39787e-12
2.52352e-12
1.72651e-12
1.0241e-12
4.45079e-13
4.94994e-14
1.48612e-13
1.33536e-12
3.06501e-12
5.14527e-12
7.47359e-12
9.97913e-12
1.2606e-11
1.53065e-11
1.80387e-11
2.07644e-11
2.34491e-11
2.60615e-11
2.85736e-11
3.0961e-11
3.32031e-11
3.52831e-11
3.71881e-11
3.89093e-11
4.04416e-11
4.17837e-11
4.29373e-11
4.39071e-11
4.47004e-11
4.53259e-11
4.57941e-11
4.61161e-11
4.63003e-11
4.63619e-11
4.6315e-11
4.61663e-11
4.59254e-11
4.56008e-11
4.51999e-11
4.47291e-11
4.41935e-11
4.35974e-11
4.29441e-11
4.22361e-11
4.14752e-11
4.06629e-11
3.98e-11
3.88874e-11
3.79258e-11
3.69161e-11
3.58591e-11
3.4756e-11
3.36083e-11
3.2418e-11
3.11875e-11
2.99196e-11
2.86174e-11
2.72849e-11
2.59261e-11
2.45455e-11
2.31481e-11
2.17388e-11
2.03231e-11
1.89062e-11
1.74936e-11
1.60906e-11
1.47026e-11
1.33347e-11
1.19919e-11
1.06791e-11
9.40091e-12
8.1622e-12
6.96784e-12
5.82308e-12
4.7339e-12
3.70751e-12
2.75313e-12
1.8834e-12
1.11706e-12
4.85443e-13
5.39872e-14
1.64093e-13
1.47452e-12
3.3847e-12
5.68257e-12
8.25507e-12
1.10241e-11
1.39278e-11
1.69135e-11
1.99343e-11
2.29477e-11
2.5915e-11
2.8801e-11
3.15742e-11
3.42071e-11
3.66764e-11
3.89631e-11
4.10531e-11
4.29363e-11
4.46074e-11
4.60649e-11
4.73114e-11
4.83525e-11
4.91965e-11
4.98538e-11
5.03363e-11
5.06569e-11
5.08241e-11
5.08599e-11
5.07751e-11
5.05793e-11
5.02833e-11
4.98967e-11
4.9428e-11
4.88843e-11
4.82714e-11
4.7594e-11
4.68558e-11
4.60596e-11
4.52076e-11
4.43011e-11
4.33413e-11
4.23291e-11
4.12652e-11
4.01506e-11
3.89861e-11
3.77731e-11
3.65133e-11
3.52086e-11
3.38616e-11
3.24754e-11
3.10534e-11
2.95996e-11
2.81185e-11
2.66149e-11
2.50939e-11
2.35612e-11
2.20222e-11
2.04828e-11
1.89487e-11
1.74258e-11
1.59197e-11
1.44359e-11
1.29799e-11
1.15569e-11
1.0172e-11
8.83022e-12
7.53693e-12
6.29777e-12
5.11913e-12
4.00875e-12
2.97653e-12
2.03605e-12
1.20752e-12
5.24729e-13
5.83556e-14
1.7993e-13
1.61688e-12
3.71173e-12
6.23219e-12
9.0545e-12
1.20931e-11
1.52801e-11
1.85575e-11
2.18736e-11
2.51811e-11
2.84371e-11
3.16022e-11
3.46412e-11
3.75234e-11
4.02227e-11
4.27179e-11
4.49932e-11
4.70376e-11
4.88453e-11
5.04152e-11
5.17503e-11
5.28573e-11
5.3746e-11
5.44284e-11
5.49183e-11
5.52291e-11
5.53719e-11
5.53746e-11
5.5244e-11
5.49934e-11
5.46348e-11
5.41791e-11
5.36357e-11
5.30125e-11
5.2316e-11
5.15516e-11
5.07233e-11
4.98341e-11
4.88865e-11
4.7882e-11
4.68219e-11
4.57072e-11
4.45387e-11
4.33173e-11
4.2044e-11
4.07204e-11
3.9348e-11
3.79291e-11
3.64664e-11
3.49631e-11
3.34227e-11
3.18497e-11
3.02486e-11
2.86245e-11
2.69829e-11
2.53297e-11
2.36706e-11
2.2012e-11
2.03598e-11
1.87203e-11
1.70995e-11
1.55033e-11
1.39374e-11
1.24074e-11
1.09189e-11
9.47726e-12
8.08809e-12
6.75745e-12
5.49216e-12
4.30045e-12
3.19287e-12
2.18391e-12
1.29515e-12
5.6279e-13
6.25884e-14
1.96088e-13
1.76212e-12
4.04539e-12
6.79298e-12
9.8702e-12
1.31839e-11
1.666e-11
2.02351e-11
2.38523e-11
2.74598e-11
3.10098e-11
3.44588e-11
3.77677e-11
4.09023e-11
4.38336e-11
4.65381e-11
4.89983e-11
5.12023e-11
5.31439e-11
5.48222e-11
5.6241e-11
5.74082e-11
5.83351e-11
5.90355e-11
5.95251e-11
5.9817e-11
5.993e-11
5.98901e-11
5.9706e-11
5.93928e-11
5.8964e-11
5.84319e-11
5.78069e-11
5.70977e-11
5.63117e-11
5.54546e-11
5.4531e-11
5.35442e-11
5.24969e-11
5.13908e-11
5.02274e-11
4.90077e-11
4.77325e-11
4.6403e-11
4.50202e-11
4.35856e-11
4.2101e-11
4.05688e-11
3.89916e-11
3.73729e-11
3.57165e-11
3.40267e-11
3.23086e-11
3.05672e-11
2.88085e-11
2.70383e-11
2.5263e-11
2.34889e-11
2.17225e-11
1.99703e-11
1.82386e-11
1.65337e-11
1.48616e-11
1.32284e-11
1.16398e-11
1.01016e-11
8.61987e-12
7.20093e-12
5.85203e-12
4.58186e-12
3.40159e-12
2.32657e-12
1.37972e-12
5.99526e-13
6.66742e-14
2.12533e-13
1.90994e-12
4.38497e-12
7.36372e-12
1.07004e-11
1.42941e-11
1.80645e-11
2.19425e-11
2.58662e-11
2.97786e-11
3.36272e-11
3.73642e-11
4.09463e-11
4.43356e-11
4.75002e-11
5.04142e-11
5.30583e-11
5.54196e-11
5.74917e-11
5.9274e-11
6.07711e-11
6.19922e-11
6.29503e-11
6.36612e-11
6.41426e-11
6.44069e-11
6.44831e-11
6.43921e-11
6.41464e-11
6.37628e-11
6.32565e-11
6.26408e-11
6.19274e-11
6.1126e-11
6.02445e-11
5.92894e-11
5.82656e-11
5.71769e-11
5.60262e-11
5.48154e-11
5.3546e-11
5.22192e-11
5.0836e-11
4.93975e-11
4.79049e-11
4.63597e-11
4.47638e-11
4.31195e-11
4.14298e-11
3.96981e-11
3.79284e-11
3.61251e-11
3.42933e-11
3.24385e-11
3.05665e-11
2.86836e-11
2.67961e-11
2.49109e-11
2.30345e-11
2.11737e-11
1.93352e-11
1.75256e-11
1.57513e-11
1.40185e-11
1.23335e-11
1.07024e-11
9.13153e-12
7.62759e-12
6.19822e-12
4.85258e-12
3.60239e-12
2.46384e-12
1.4611e-12
6.3488e-13
7.06069e-14
2.29227e-13
2.06001e-12
4.72971e-12
7.94317e-12
1.15433e-11
1.54213e-11
1.94905e-11
2.36761e-11
2.79106e-11
3.21322e-11
3.62834e-11
4.03116e-11
4.41694e-11
4.7815e-11
5.12134e-11
5.43363e-11
5.71626e-11
5.96785e-11
6.18771e-11
6.37584e-11
6.53279e-11
6.65964e-11
6.75786e-11
6.82923e-11
6.87568e-11
6.89855e-11
6.90176e-11
6.88673e-11
6.8552e-11
6.80904e-11
6.74991e-11
6.67929e-11
6.59847e-11
6.50849e-11
6.41025e-11
6.30444e-11
6.19161e-11
6.07217e-11
5.94643e-11
5.81461e-11
5.67687e-11
5.53334e-11
5.38414e-11
5.22936e-11
5.06915e-11
4.90366e-11
4.73308e-11
4.55765e-11
4.37767e-11
4.1935e-11
4.00552e-11
3.8142e-11
3.62005e-11
3.42363e-11
3.22554e-11
3.0264e-11
2.8269e-11
2.62769e-11
2.4295e-11
2.233e-11
2.0389e-11
1.84788e-11
1.66062e-11
1.47778e-11
1.30001e-11
1.12796e-11
9.62303e-12
8.03738e-12
6.53069e-12
5.11254e-12
3.79522e-12
2.59566e-12
1.53926e-12
6.6884e-13
7.43852e-14
2.46135e-13
2.21198e-12
5.07885e-12
8.53001e-12
1.23969e-11
1.65629e-11
2.09347e-11
2.54317e-11
2.9981e-11
3.45152e-11
3.8972e-11
4.32939e-11
4.7429e-11
5.13318e-11
5.49639e-11
5.82944e-11
6.13006e-11
6.39676e-11
6.62884e-11
6.82634e-11
6.98992e-11
7.12081e-11
7.22071e-11
7.29161e-11
7.33539e-11
7.3541e-11
7.35203e-11
7.33028e-11
7.29104e-11
7.23633e-11
7.16802e-11
7.08771e-11
6.99679e-11
6.89644e-11
6.78761e-11
6.67107e-11
6.54741e-11
6.41707e-11
6.2804e-11
6.13764e-11
5.98896e-11
5.8345e-11
5.67439e-11
5.50874e-11
5.33767e-11
5.16136e-11
4.97999e-11
4.79381e-11
4.60312e-11
4.40827e-11
4.20965e-11
4.00774e-11
3.80305e-11
3.59613e-11
3.38759e-11
3.17807e-11
2.96826e-11
2.75884e-11
2.55053e-11
2.34404e-11
2.14011e-11
1.93944e-11
1.74275e-11
1.55072e-11
1.36404e-11
1.1834e-11
1.0095e-11
8.4308e-12
6.84983e-12
5.36205e-12
3.98027e-12
2.72217e-12
1.61427e-12
7.01438e-13
7.80123e-14
2.63214e-13
2.36551e-12
5.43155e-12
9.12286e-12
1.32594e-11
1.77163e-11
2.23938e-11
2.72052e-11
3.20721e-11
3.69217e-11
4.16863e-11
4.63035e-11
5.07169e-11
5.4877e-11
5.87418e-11
6.22781e-11
6.54612e-11
6.82755e-11
7.07136e-11
7.27766e-11
7.44723e-11
7.58149e-11
7.68231e-11
7.75195e-11
7.79214e-11
7.80623e-11
7.79793e-11
7.76873e-11
7.72104e-11
7.65711e-11
7.57897e-11
7.48837e-11
7.38682e-11
7.27561e-11
7.15577e-11
7.02813e-11
6.89333e-11
6.75185e-11
6.60407e-11
6.45025e-11
6.29057e-11
6.12518e-11
5.95422e-11
5.77779e-11
5.59604e-11
5.40912e-11
5.21722e-11
5.02059e-11
4.81952e-11
4.61437e-11
4.40552e-11
4.19343e-11
3.97862e-11
3.76165e-11
3.54313e-11
3.32369e-11
3.10402e-11
2.88483e-11
2.66684e-11
2.45079e-11
2.23743e-11
2.0275e-11
1.82174e-11
1.62087e-11
1.42562e-11
1.2367e-11
1.05487e-11
8.8089e-12
7.15644e-12
5.60171e-12
4.158e-12
2.84366e-12
1.68632e-12
7.32746e-13
8.14964e-14
2.80424e-13
2.52021e-12
5.78697e-12
9.72029e-12
1.41285e-11
1.88786e-11
2.3864e-11
2.89922e-11
3.41788e-11
3.93456e-11
4.44193e-11
4.93327e-11
5.40245e-11
5.8441e-11
6.25371e-11
6.62766e-11
6.96333e-11
7.25904e-11
7.51407e-11
7.72859e-11
7.9035e-11
8.04042e-11
8.14143e-11
8.20903e-11
8.24484e-11
8.2537e-11
8.23839e-11
8.20102e-11
8.14422e-11
8.07046e-11
7.98191e-11
7.8805e-11
7.76787e-11
7.6454e-11
7.5142e-11
7.37518e-11
7.22903e-11
7.07626e-11
6.91728e-11
6.75236e-11
6.58171e-11
6.40548e-11
6.22379e-11
6.03678e-11
5.84456e-11
5.6473e-11
5.44519e-11
5.23845e-11
5.02738e-11
4.81231e-11
4.59364e-11
4.37182e-11
4.14734e-11
3.92077e-11
3.6927e-11
3.46378e-11
3.23469e-11
3.00615e-11
2.77889e-11
2.55367e-11
2.33126e-11
2.11242e-11
1.89792e-11
1.68853e-11
1.485e-11
1.2881e-11
1.0986e-11
9.17318e-12
7.45174e-12
5.83244e-12
4.32905e-12
2.96058e-12
1.75564e-12
7.62873e-13
8.48496e-14
2.97722e-13
2.6757e-12
6.1442e-12
1.03208e-11
1.50021e-11
2.00468e-11
2.53418e-11
3.07881e-11
3.62957e-11
4.17804e-11
4.71638e-11
5.23732e-11
5.73425e-11
6.20141e-11
6.6339e-11
7.02787e-11
7.3805e-11
7.69003e-11
7.95575e-11
8.17788e-11
8.35749e-11
8.49638e-11
8.59691e-11
8.66161e-11
8.69239e-11
8.69539e-11
8.6724e-11
8.62622e-11
8.55973e-11
8.47558e-11
8.37614e-11
8.2635e-11
8.13942e-11
8.00539e-11
7.86261e-11
7.71203e-11
7.55441e-11
7.39031e-11
7.22014e-11
7.04419e-11
6.86268e-11
6.67578e-11
6.48359e-11
6.28625e-11
6.08387e-11
5.8766e-11
5.66462e-11
5.44816e-11
5.22748e-11
5.00292e-11
4.77485e-11
4.54371e-11
4.31e-11
4.07425e-11
3.83706e-11
3.59907e-11
3.36096e-11
3.12346e-11
2.8873e-11
2.65325e-11
2.42211e-11
2.19466e-11
1.97172e-11
1.75407e-11
1.54251e-11
1.33786e-11
1.14092e-11
9.5256e-12
7.73727e-12
6.05543e-12
4.4943e-12
3.07348e-12
1.82258e-12
7.9196e-13
8.80875e-14
3.15062e-13
2.83157e-12
6.50231e-12
1.09228e-11
1.58779e-11
2.1218e-11
2.68232e-11
3.25882e-11
3.84169e-11
4.42196e-11
4.99121e-11
5.54164e-11
6.06618e-11
6.5586e-11
7.01369e-11
7.4273e-11
7.79645e-11
8.11931e-11
8.39514e-11
8.62429e-11
8.80796e-11
8.94818e-11
9.04755e-11
9.10847e-11
9.13393e-11
9.13028e-11
9.09903e-11
9.0435e-11
8.96682e-11
8.87185e-11
8.76115e-11
8.63696e-11
8.50118e-11
8.3554e-11
8.20091e-11
8.03873e-11
7.86966e-11
7.69428e-11
7.51304e-11
7.32625e-11
7.13411e-11
6.93679e-11
6.73441e-11
6.52707e-11
6.31489e-11
6.09799e-11
5.87654e-11
5.65076e-11
5.42089e-11
5.18724e-11
4.95019e-11
4.71014e-11
4.46759e-11
4.22306e-11
3.97713e-11
3.73044e-11
3.48366e-11
3.23753e-11
2.99278e-11
2.7502e-11
2.5106e-11
2.2748e-11
2.04363e-11
1.81794e-11
1.59855e-11
1.38633e-11
1.18213e-11
9.8685e-12
8.01489e-12
6.27209e-12
4.65476e-12
3.18307e-12
1.88753e-12
8.2018e-13
9.12292e-14
3.32398e-13
2.9874e-12
6.86036e-12
1.15247e-11
1.67535e-11
2.2389e-11
2.8304e-11
3.43873e-11
4.05366e-11
4.66562e-11
5.26563e-11
5.84537e-11
6.39725e-11
6.91464e-11
7.39194e-11
7.82478e-11
8.20997e-11
8.54562e-11
8.83101e-11
9.06657e-11
9.25369e-11
9.3946e-11
9.49217e-11
9.5486e-11
9.56852e-11
9.55746e-11
9.51746e-11
9.45215e-11
9.3649e-11
9.25878e-11
9.13657e-11
9.00064e-11
8.85304e-11
8.69546e-11
8.52928e-11
8.35557e-11
8.17518e-11
7.98873e-11
7.79666e-11
7.59931e-11
7.39687e-11
7.1895e-11
6.97731e-11
6.76038e-11
6.53881e-11
6.31271e-11
6.08222e-11
5.84754e-11
5.60889e-11
5.36657e-11
5.12092e-11
4.87234e-11
4.62131e-11
4.36834e-11
4.11399e-11
3.85891e-11
3.60375e-11
3.34925e-11
3.09616e-11
2.84527e-11
2.59742e-11
2.35345e-11
2.11423e-11
1.88064e-11
1.65356e-11
1.43389e-11
1.22253e-11
1.02045e-11
8.28668e-12
6.48403e-12
4.81159e-12
3.29012e-12
1.95095e-12
8.47727e-13
9.42962e-14
3.49682e-13
3.14276e-12
7.21733e-12
1.21248e-11
1.76265e-11
2.35564e-11
2.97802e-11
3.61804e-11
4.26485e-11
4.9083e-11
5.53883e-11
6.14758e-11
6.72647e-11
7.26842e-11
7.76752e-11
8.21909e-11
8.61982e-11
8.96771e-11
9.26209e-11
9.50349e-11
9.69347e-11
9.83449e-11
9.92968e-11
9.98107e-11
9.99509e-11
9.97614e-11
9.92701e-11
9.85159e-11
9.7535e-11
9.63606e-11
9.5022e-11
9.35449e-11
9.19509e-11
9.0258e-11
8.84808e-11
8.66307e-11
8.47164e-11
8.27443e-11
8.07192e-11
7.86441e-11
7.65212e-11
7.43516e-11
7.21363e-11
6.98759e-11
6.7571e-11
6.52226e-11
6.28318e-11
6.04002e-11
5.793e-11
5.54238e-11
5.28849e-11
5.03171e-11
4.7725e-11
4.51136e-11
4.24886e-11
3.98561e-11
3.72229e-11
3.45961e-11
3.19835e-11
2.93931e-11
2.68334e-11
2.43131e-11
2.18413e-11
1.94271e-11
1.708e-11
1.48093e-11
1.26248e-11
1.05364e-11
8.5549e-12
6.69296e-12
4.96606e-12
3.39546e-12
2.01332e-12
8.7481e-13
9.73118e-14
3.66864e-13
3.29721e-12
7.57222e-12
1.27214e-11
1.84945e-11
2.47169e-11
3.12475e-11
3.79622e-11
4.47464e-11
5.14927e-11
5.80998e-11
6.44734e-11
7.0528e-11
7.61886e-11
8.13925e-11
8.60904e-11
9.02474e-11
9.38433e-11
9.68714e-11
9.93382e-11
1.01261e-10
1.02667e-10
1.0359e-10
1.04049e-10
1.04127e-10
1.03856e-10
1.03271e-10
1.02413e-10
1.01323e-10
1.00035e-10
9.85802e-11
9.69862e-11
9.52761e-11
9.34686e-11
9.15791e-11
8.96196e-11
8.75991e-11
8.55243e-11
8.33997e-11
8.12284e-11
7.90123e-11
7.67524e-11
7.44492e-11
7.21031e-11
6.97143e-11
6.72835e-11
6.48113e-11
6.22993e-11
5.97491e-11
5.71633e-11
5.4545e-11
5.18979e-11
4.92263e-11
4.65352e-11
4.38302e-11
4.11175e-11
3.84038e-11
3.56964e-11
3.30029e-11
3.03316e-11
2.76912e-11
2.50907e-11
2.25395e-11
2.00472e-11
1.76237e-11
1.5279e-11
1.30232e-11
1.08671e-11
8.82191e-12
6.9007e-12
5.11947e-12
3.49998e-12
2.07517e-12
9.0165e-13
1.003e-13
3.83894e-13
3.45031e-12
7.92401e-12
1.33128e-11
1.93548e-11
2.58671e-11
3.27015e-11
3.97273e-11
4.6824e-11
5.38779e-11
6.07821e-11
6.7437e-11
7.37522e-11
7.96484e-11
8.50595e-11
8.99338e-11
9.42349e-11
9.7942e-11
1.01049e-10
1.03563e-10
1.05505e-10
1.06904e-10
1.07791e-10
1.08194e-10
1.08207e-10
1.07851e-10
1.07171e-10
1.0621e-10
1.05011e-10
1.0361e-10
1.02041e-10
1.00333e-10
9.85105e-11
9.65925e-11
9.45955e-11
9.25319e-11
9.04109e-11
8.82394e-11
8.60217e-11
8.37607e-11
8.1458e-11
7.91142e-11
7.67295e-11
7.43036e-11
7.18366e-11
6.93284e-11
6.67796e-11
6.41911e-11
6.15646e-11
5.89021e-11
5.62068e-11
5.34821e-11
5.07324e-11
4.79627e-11
4.51785e-11
4.2386e-11
3.9592e-11
3.68039e-11
3.40294e-11
3.1277e-11
2.85556e-11
2.58744e-11
2.32432e-11
2.06722e-11
1.81715e-11
1.5752e-11
1.34243e-11
1.11996e-11
9.09007e-12
7.10909e-12
5.27316e-12
3.60457e-12
2.137e-12
9.2847e-13
1.03287e-13
4.00724e-13
3.6016e-12
8.27165e-12
1.38973e-11
2.0205e-11
2.70035e-11
3.41377e-11
4.14704e-11
4.88746e-11
5.6231e-11
6.34268e-11
7.03571e-11
7.69267e-11
8.30522e-11
8.86643e-11
9.37089e-11
9.81482e-11
1.01961e-10
1.05141e-10
1.07699e-10
1.09655e-10
1.11042e-10
1.11889e-10
1.12238e-10
1.12183e-10
1.11742e-10
1.10967e-10
1.09905e-10
1.08598e-10
1.07088e-10
1.05408e-10
1.03591e-10
1.0166e-10
9.96375e-11
9.75394e-11
9.53785e-11
9.31644e-11
9.09036e-11
8.86005e-11
8.62576e-11
8.38759e-11
8.14556e-11
7.89963e-11
7.64973e-11
7.3958e-11
7.13778e-11
6.87569e-11
6.60958e-11
6.33959e-11
6.06591e-11
5.78883e-11
5.50871e-11
5.22597e-11
4.94112e-11
4.65474e-11
4.36744e-11
4.07992e-11
3.79293e-11
3.50728e-11
3.22381e-11
2.94344e-11
2.66712e-11
2.39588e-11
2.13075e-11
1.87283e-11
1.62324e-11
1.38314e-11
1.15369e-11
9.36174e-12
7.31991e-12
5.42844e-12
3.71012e-12
2.19933e-12
9.5549e-13
1.06295e-13
4.17302e-13
3.75063e-12
8.61411e-12
1.4473e-11
2.10424e-11
2.81228e-11
3.55519e-11
4.31859e-11
5.0892e-11
5.85445e-11
6.60252e-11
7.3224e-11
8.00411e-11
8.6389e-11
9.21952e-11
9.74035e-11
1.01975e-10
1.05887e-10
1.09136e-10
1.11732e-10
1.13699e-10
1.15071e-10
1.15877e-10
1.16175e-10
1.16048e-10
1.15525e-10
1.14657e-10
1.13495e-10
1.12085e-10
1.1047e-10
1.08685e-10
1.06764e-10
1.04733e-10
1.02613e-10
1.00422e-10
9.81721e-11
9.58735e-11
9.35324e-11
9.11528e-11
8.87368e-11
8.62847e-11
8.37962e-11
8.12701e-11
7.8705e-11
7.60996e-11
7.34529e-11
7.07644e-11
6.80343e-11
6.52635e-11
6.24541e-11
5.96086e-11
5.67307e-11
5.3825e-11
5.08964e-11
4.79512e-11
4.49957e-11
4.20371e-11
3.90833e-11
3.61424e-11
3.32231e-11
3.0335e-11
2.74877e-11
2.46919e-11
2.19583e-11
1.92986e-11
1.67243e-11
1.42478e-11
1.18817e-11
9.6391e-12
7.53487e-12
5.58655e-12
3.81745e-12
2.26265e-12
9.82919e-13
1.09349e-13
4.33579e-13
3.89695e-12
8.95037e-12
1.50383e-11
2.18646e-11
2.92215e-11
3.69395e-11
4.48686e-11
5.28695e-11
6.08109e-11
6.85689e-11
7.60284e-11
8.3085e-11
8.96476e-11
9.56406e-11
1.01006e-10
1.05703e-10
1.0971e-10
1.13023e-10
1.15654e-10
1.17628e-10
1.18984e-10
1.19748e-10
1.19995e-10
1.19799e-10
1.19194e-10
1.18238e-10
1.16981e-10
1.15473e-10
1.13759e-10
1.11877e-10
1.09861e-10
1.07737e-10
1.0553e-10
1.03255e-10
1.00926e-10
9.85533e-11
9.61422e-11
9.36964e-11
9.12172e-11
8.87043e-11
8.61566e-11
8.3572e-11
8.09483e-11
7.82834e-11
7.55757e-11
7.2824e-11
7.0028e-11
6.71886e-11
6.43073e-11
6.1387e-11
5.84314e-11
5.54452e-11
5.24341e-11
4.94043e-11
4.6363e-11
4.33175e-11
4.02761e-11
3.72473e-11
3.42403e-11
3.12645e-11
2.83301e-11
2.5448e-11
2.26294e-11
1.98863e-11
1.72311e-11
1.46767e-11
1.22364e-11
9.92421e-12
7.75556e-12
5.74865e-12
3.92734e-12
2.32741e-12
1.01095e-12
1.1247e-13
4.49507e-13
4.04014e-12
9.27943e-12
1.55915e-11
2.26691e-11
3.02962e-11
3.82965e-11
4.65132e-11
5.48011e-11
6.30229e-11
7.10495e-11
7.87609e-11
8.60483e-11
9.28172e-11
9.8989e-11
1.04504e-10
1.0932e-10
1.13416e-10
1.16789e-10
1.19451e-10
1.21432e-10
1.22772e-10
1.23495e-10
1.23692e-10
1.2343e-10
1.22749e-10
1.21709e-10
1.20364e-10
1.18766e-10
1.16962e-10
1.14991e-10
1.12889e-10
1.10683e-10
1.08398e-10
1.06051e-10
1.03655e-10
1.0122e-10
9.87502e-11
9.62494e-11
9.37181e-11
9.1155e-11
8.85578e-11
8.59237e-11
8.32494e-11
8.05319e-11
7.77687e-11
7.4958e-11
7.20991e-11
6.91924e-11
6.62395e-11
6.32432e-11
6.02076e-11
5.71379e-11
5.40402e-11
5.09215e-11
4.77893e-11
4.4652e-11
4.1518e-11
3.83965e-11
3.5297e-11
3.22293e-11
2.9204e-11
2.62319e-11
2.33249e-11
2.04953e-11
1.7756e-11
1.51206e-11
1.26033e-11
1.02188e-11
7.98335e-12
5.91574e-12
4.04046e-12
2.394e-12
1.03975e-12
1.15675e-13
4.6504e-13
4.17979e-12
9.60033e-12
1.6131e-11
2.34535e-11
3.13438e-11
3.96186e-11
4.81146e-11
5.66805e-11
6.51734e-11
7.3459e-11
8.14126e-11
8.89214e-11
9.58873e-11
1.0223e-10
1.07886e-10
1.12815e-10
1.16996e-10
1.20424e-10
1.23116e-10
1.25103e-10
1.26426e-10
1.2711e-10
1.27262e-10
1.26938e-10
1.26187e-10
1.2507e-10
1.23645e-10
1.21966e-10
1.20082e-10
1.18033e-10
1.15856e-10
1.13581e-10
1.11231e-10
1.08825e-10
1.06374e-10
1.03889e-10
1.01374e-10
9.88304e-11
9.62589e-11
9.36568e-11
9.10208e-11
8.83467e-11
8.56302e-11
8.28673e-11
8.00543e-11
7.71889e-11
7.42697e-11
7.12968e-11
6.82717e-11
6.51975e-11
6.20787e-11
5.89209e-11
5.57312e-11
5.25174e-11
4.92879e-11
4.6052e-11
4.28189e-11
3.95985e-11
3.64006e-11
3.32357e-11
3.01143e-11
2.70479e-11
2.40484e-11
2.11284e-11
1.83015e-11
1.55818e-11
1.29843e-11
1.05245e-11