/*--------------------------------*- C++ -*----------------------------------*\
  =========                 |
  \\      /  F ield         | OpenFOAM: The Open Source CFD Toolbox
   \\    /   O peration     | Website:  https://openfoam.org
    \\  /    A nd           | Version:  12
     \\/     M anipulation  |
\*---------------------------------------------------------------------------*/
FoamFile
{
    format      ascii;
    class       volScalarField;
    location    "3";
    object      nut;
}
// * * * * * * * * * * * * * * * * * * * * * * * * * * * * * * * * * * * * * //

dimensions      [0 2 -1 0 0 0 0];

internalField   nonuniform List<scalar> 
5625
(
2.32339e-20
1.16001e-19
2.53011e-19
4.16243e-19
5.97272e-19
7.90767e-19
9.92682e-19
1.19965e-18
1.40874e-18
1.61737e-18
1.82319e-18
2.02414e-18
2.21838e-18
2.4043e-18
2.58054e-18
2.74596e-18
2.89967e-18
3.041e-18
3.16953e-18
3.285e-18
3.38741e-18
3.47687e-18
3.55368e-18
3.61826e-18
3.67111e-18
3.71281e-18
3.744e-18
3.7653e-18
3.77732e-18
3.78077e-18
3.77625e-18
3.76426e-18
3.74528e-18
3.71973e-18
3.68797e-18
3.65031e-18
3.607e-18
3.55823e-18
3.50419e-18
3.445e-18
3.38075e-18
3.31155e-18
3.23749e-18
3.15866e-18
3.07517e-18
2.98715e-18
2.89475e-18
2.79816e-18
2.69759e-18
2.59329e-18
2.48557e-18
2.37474e-18
2.26116e-18
2.14523e-18
2.02737e-18
1.90801e-18
1.78762e-18
1.66666e-18
1.5456e-18
1.42492e-18
1.30508e-18
1.18656e-18
1.06981e-18
9.55269e-19
8.43384e-19
7.34597e-19
6.29363e-19
5.28164e-19
4.31537e-19
3.40114e-19
2.54685e-19
1.76329e-19
1.06693e-19
4.87883e-20
9.76537e-21
1.16088e-19
1.06132e-17
3.58698e-17
6.59191e-17
9.83851e-17
1.32575e-16
1.67961e-16
2.04055e-16
2.40405e-16
2.76592e-16
3.12234e-16
3.46986e-16
3.80539e-16
4.12622e-16
4.43007e-16
4.715e-16
4.97954e-16
5.22256e-16
5.44334e-16
5.64152e-16
5.81708e-16
5.97029e-16
6.10169e-16
6.21201e-16
6.30216e-16
6.37318e-16
6.42616e-16
6.46222e-16
6.48238e-16
6.48794e-16
6.47992e-16
6.45918e-16
6.42653e-16
6.3827e-16
6.32831e-16
6.26385e-16
6.18976e-16
6.10634e-16
6.01379e-16
5.91238e-16
5.80231e-16
5.68373e-16
5.55678e-16
5.42162e-16
5.27842e-16
5.12738e-16
4.96878e-16
4.8029e-16
4.63013e-16
4.45091e-16
4.26572e-16
4.07513e-16
3.87978e-16
3.68032e-16
3.4775e-16
3.27208e-16
3.06484e-16
2.8566e-16
2.64818e-16
2.4404e-16
2.23406e-16
2.02997e-16
1.82889e-16
1.63157e-16
1.43876e-16
1.25117e-16
1.06953e-16
8.94566e-17
7.27071e-17
5.67882e-17
4.17948e-17
2.78363e-17
1.50938e-17
4.46036e-18
4.87634e-20
2.53976e-19
3.59302e-17
1.81556e-16
4.06774e-16
6.65655e-16
9.39488e-16
1.22098e-15
1.506e-15
1.79126e-15
2.07386e-15
2.3511e-15
2.62054e-15
2.87995e-15
3.12739e-15
3.36119e-15
3.57997e-15
3.78265e-15
3.96847e-15
4.13692e-15
4.28779e-15
4.42114e-15
4.53724e-15
4.63654e-15
4.71967e-15
4.78738e-15
4.84049e-15
4.8799e-15
4.90649e-15
4.92103e-15
4.92461e-15
4.91799e-15
4.90182e-15
4.87673e-15
4.84327e-15
4.8019e-15
4.753e-15
4.69687e-15
4.63374e-15
4.56377e-15
4.48712e-15
4.40389e-15
4.31419e-15
4.2181e-15
4.11571e-15
4.00713e-15
3.89251e-15
3.77204e-15
3.64592e-15
3.51445e-15
3.37795e-15
3.2368e-15
3.09143e-15
2.94232e-15
2.79001e-15
2.63505e-15
2.47803e-15
2.31958e-15
2.16031e-15
2.00087e-15
1.84188e-15
1.68395e-15
1.52767e-15
1.37363e-15
1.22235e-15
1.07435e-15
9.3011e-16
7.90078e-16
6.54686e-16
5.24361e-16
3.99591e-16
2.81161e-16
1.71109e-16
7.62508e-17
1.5078e-17
1.06417e-19
4.20034e-19
6.63094e-17
4.07814e-16
1.07773e-15
1.95976e-15
2.94686e-15
3.98046e-15
5.0305e-15
6.07929e-15
7.11435e-15
8.12564e-15
9.10456e-15
1.00436e-14
1.09361e-14
1.17767e-14
1.25609e-14
1.32852e-14
1.39472e-14
1.45456e-14
1.508e-14
1.55508e-14
1.59594e-14
1.63077e-14
1.65981e-14
1.68337e-14
1.70176e-14
1.71531e-14
1.72436e-14
1.72918e-14
1.73019e-14
1.72765e-14
1.7218e-14
1.71287e-14
1.70104e-14
1.68648e-14
1.6693e-14
1.64963e-14
1.62752e-14
1.60302e-14
1.57619e-14
1.54705e-14
1.51562e-14
1.48192e-14
1.44597e-14
1.40781e-14
1.36749e-14
1.32505e-14
1.28057e-14
1.23415e-14
1.18591e-14
1.13597e-14
1.0845e-14
1.03166e-14
9.77648e-15
9.22662e-15
8.66918e-15
8.10637e-15
7.54046e-15
6.97368e-15
6.40825e-15
5.84632e-15
5.28993e-15
4.74097e-15
4.20123e-15
3.6723e-15
3.15566e-15
2.65269e-15
2.16485e-15
1.69412e-15
1.24415e-15
8.23345e-16
4.51815e-16
1.70838e-16
2.77282e-17
1.75233e-19
6.07271e-19
9.96568e-17
6.70892e-16
1.96765e-15
3.90113e-15
6.24312e-15
8.80172e-15
1.14535e-14
1.41233e-14
1.67631e-14
1.93396e-14
2.18274e-14
2.42065e-14
2.64603e-14
2.85757e-14
3.05422e-14
3.23524e-14
3.40013e-14
3.54865e-14
3.68081e-14
3.79683e-14
3.89713e-14
3.98228e-14
4.05299e-14
4.11005e-14
4.15432e-14
4.18667e-14
4.20798e-14
4.21894e-14
4.22071e-14
4.21389e-14
4.19906e-14
4.1768e-14
4.14758e-14
4.11177e-14
4.06969e-14
4.02157e-14
3.96756e-14
3.90778e-14
3.84231e-14
3.77118e-14
3.69443e-14
3.61209e-14
3.52418e-14
3.43078e-14
3.33197e-14
3.22788e-14
3.1187e-14
3.00463e-14
2.88598e-14
2.76306e-14
2.63625e-14
2.506e-14
2.37278e-14
2.23708e-14
2.09945e-14
1.96044e-14
1.82061e-14
1.6805e-14
1.54066e-14
1.40161e-14
1.26384e-14
1.12778e-14
9.93851e-15
8.62444e-15
7.3393e-15
6.08727e-15
4.87429e-15
3.71056e-15
2.61595e-15
1.6297e-15
8.21191e-16
2.79714e-16
4.1433e-17
2.51773e-19
8.11954e-19
1.35574e-16
9.54825e-16
2.97914e-15
6.2811e-15
1.05835e-14
1.55243e-14
2.08038e-14
2.62116e-14
3.16055e-14
3.68888e-14
4.19933e-14
4.68689e-14
5.14779e-14
5.57917e-14
5.97896e-14
6.34574e-14
6.67866e-14
6.97746e-14
7.24234e-14
7.47396e-14
7.67335e-14
7.84187e-14
7.98109e-14
8.09278e-14
8.17879e-14
8.241e-14
8.28126e-14
8.30098e-14
8.30273e-14
8.28756e-14
8.25673e-14
8.21138e-14
8.15246e-14
8.08073e-14
7.99676e-14
7.90101e-14
7.79376e-14
7.67521e-14
7.54546e-14
7.40457e-14
7.25255e-14
7.08943e-14
6.91525e-14
6.73011e-14
6.53418e-14
6.32768e-14
6.11097e-14
5.88447e-14
5.64876e-14
5.40447e-14
5.15239e-14
4.89338e-14
4.62838e-14
4.35841e-14
4.08453e-14
3.80784e-14
3.52945e-14
3.25044e-14
2.97189e-14
2.6948e-14
2.42012e-14
2.14874e-14
1.88151e-14
1.61928e-14
1.36304e-14
1.11408e-14
8.7441e-15
6.47542e-15
4.39595e-15
2.60489e-15
1.23496e-15
3.95223e-16
5.59224e-17
3.33916e-19
1.03171e-18
1.73833e-16
1.25501e-15
4.06508e-15
8.93615e-15
1.56585e-14
2.37431e-14
3.26733e-14
4.20215e-14
5.14716e-14
6.08002e-14
6.98474e-14
7.84991e-14
8.66735e-14
9.43124e-14
1.01375e-13
1.07837e-13
1.13683e-13
1.18912e-13
1.2353e-13
1.27551e-13
1.30998e-13
1.33896e-13
1.36277e-13
1.38174e-13
1.39621e-13
1.40654e-13
1.41305e-13
1.41602e-13
1.41592e-13
1.41291e-13
1.40723e-13
1.39908e-13
1.38862e-13
1.37598e-13
1.36127e-13
1.34456e-13
1.3259e-13
1.30531e-13
1.28282e-13
1.25842e-13
1.23213e-13
1.20394e-13
1.17385e-13
1.14189e-13
1.10807e-13
1.07245e-13
1.03507e-13
9.96021e-14
9.55391e-14
9.13296e-14
8.6987e-14
8.2526e-14
7.7963e-14
7.33155e-14
6.86017e-14
6.38402e-14
5.90499e-14
5.42493e-14
4.94566e-14
4.4689e-14
3.99632e-14
3.52955e-14
3.07019e-14
2.62004e-14
2.18138e-14
1.75752e-14
1.35364e-14
9.78028e-15
6.43388e-15
3.67027e-15
1.66939e-15
5.14496e-16
7.09976e-17
4.20091e-19
1.26488e-18
2.14249e-16
1.56984e-15
5.2062e-15
1.1774e-14
2.12336e-14
3.3053e-14
4.65136e-14
6.09281e-14
7.57308e-14
9.04888e-14
1.04886e-13
1.18697e-13
1.31761e-13
1.43967e-13
1.55237e-13
1.65525e-13
1.74808e-13
1.83084e-13
1.90366e-13
1.96682e-13
2.0207e-13
2.06575e-13
2.10252e-13
2.13157e-13
2.15349e-13
2.16885e-13
2.17817e-13
2.18199e-13
2.181e-13
2.17548e-13
2.16581e-13
2.15231e-13
2.13525e-13
2.11484e-13
2.09124e-13
2.06456e-13
2.03488e-13
2.00224e-13
1.96668e-13
1.92819e-13
1.8868e-13
1.84249e-13
1.79529e-13
1.74522e-13
1.69232e-13
1.63667e-13
1.57836e-13
1.5175e-13
1.45426e-13
1.38881e-13
1.32136e-13
1.25213e-13
1.18138e-13
1.10937e-13
1.03637e-13
9.62685e-14
8.88586e-14
8.14359e-14
7.4028e-14
6.66618e-14
5.93637e-14
5.21607e-14
4.50819e-14
3.81628e-14
3.145e-14
2.50115e-14
1.8949e-14
1.34128e-14
8.60839e-15
4.77642e-15
2.11266e-15
6.35982e-16
8.64769e-17
5.0903e-19
1.51018e-18
2.56659e-16
1.89844e-15
6.39465e-15
1.47486e-14
2.71635e-14
4.31503e-14
6.18379e-14
8.227e-14
1.03582e-13
1.25067e-13
1.46186e-13
1.66536e-13
1.85827e-13
2.03857e-13
2.20493e-13
2.35655e-13
2.49306e-13
2.6144e-13
2.72079e-13
2.81268e-13
2.89068e-13
2.95554e-13
3.00807e-13
3.04916e-13
3.0797e-13
3.10061e-13
3.1126e-13
3.11668e-13
3.1137e-13
3.10414e-13
3.08859e-13
3.06753e-13
3.04134e-13
3.01036e-13
2.97481e-13
2.93487e-13
2.89067e-13
2.84227e-13
2.78972e-13
2.73305e-13
2.67228e-13
2.60743e-13
2.53852e-13
2.46561e-13
2.38876e-13
2.30809e-13
2.22373e-13
2.13588e-13
2.04474e-13
1.95058e-13
1.85369e-13
1.7544e-13
1.65305e-13
1.55003e-13
1.44571e-13
1.3405e-13
1.2348e-13
1.129e-13
1.02348e-13
9.18644e-14
8.1488e-14
7.1261e-14
6.12316e-14
5.14605e-14
4.20295e-14
3.30551e-14
2.47035e-14
1.72027e-14
1.08363e-14
5.89404e-15
2.55809e-15
7.585e-16
1.02195e-16
5.99651e-19
1.76663e-18
3.00923e-16
2.24012e-15
7.62672e-15
1.78372e-14
3.33664e-14
5.38348e-14
7.82791e-14
1.05492e-13
1.34286e-13
1.63629e-13
1.9269e-13
2.20834e-13
2.47595e-13
2.72642e-13
2.95758e-13
3.16806e-13
3.35719e-13
3.52486e-13
3.67136e-13
3.79734e-13
3.90368e-13
3.99149e-13
4.06197e-13
4.11643e-13
4.15618e-13
4.18251e-13
4.19637e-13
4.1995e-13
4.19281e-13
4.17709e-13
4.15316e-13
4.12171e-13
4.0833e-13
4.0384e-13
3.98734e-13
3.9304e-13
3.86775e-13
3.79953e-13
3.72581e-13
3.64666e-13
3.56212e-13
3.47223e-13
3.37706e-13
3.27669e-13
3.17124e-13
3.06088e-13
2.94581e-13
2.82629e-13
2.70262e-13
2.57515e-13
2.44427e-13
2.3104e-13
2.17403e-13
2.03562e-13
1.89569e-13
1.75474e-13
1.6133e-13
1.47188e-13
1.33099e-13
1.19117e-13
1.05296e-13
9.1697e-14
7.83933e-14
6.54779e-14
5.30767e-14
4.13642e-14
3.05788e-14
2.10269e-14
1.30628e-14
7.00504e-15
3.00116e-15
8.81023e-16
1.18003e-16
6.91016e-19
2.03335e-18
3.46916e-16
2.59423e-15
8.90017e-15
2.10281e-14
3.9796e-14
6.49824e-14
9.55847e-14
1.30174e-13
1.67235e-13
2.05375e-13
2.43424e-13
2.8046e-13
3.15787e-13
3.48906e-13
3.7948e-13
4.07298e-13
4.32253e-13
4.54319e-13
4.73532e-13
4.89979e-13
5.03784e-13
5.15098e-13
5.24089e-13
5.30935e-13
5.35817e-13
5.38912e-13
5.40339e-13
5.40381e-13
5.39108e-13
5.36649e-13
5.33114e-13
5.28598e-13
5.23179e-13
5.16921e-13
5.09872e-13
5.0207e-13
4.93544e-13
4.84314e-13
4.74394e-13
4.63795e-13
4.52528e-13
4.40601e-13
4.28027e-13
4.14821e-13
4.00999e-13
3.86587e-13
3.71613e-13
3.56109e-13
3.40117e-13
3.23681e-13
3.0685e-13
2.89679e-13
2.72223e-13
2.54543e-13
2.36701e-13
2.18759e-13
2.0078e-13
1.82827e-13
1.64966e-13
1.47262e-13
1.29789e-13
1.12629e-13
9.58824e-14
7.96802e-14
6.41973e-14
4.96706e-14
3.64116e-14
2.48007e-14
1.5252e-14
8.09722e-15
3.43833e-15
1.00262e-15
1.33768e-16
7.82309e-19
2.30962e-18
3.94522e-16
2.96013e-15
1.02131e-14
2.43143e-14
4.64249e-14
7.65184e-14
1.13586e-13
1.56015e-13
2.01963e-13
2.49658e-13
2.97555e-13
3.44396e-13
3.89214e-13
4.313e-13
4.70168e-13
5.0551e-13
5.37162e-13
5.65077e-13
5.89296e-13
6.0993e-13
6.2714e-13
6.41127e-13
6.52112e-13
6.60331e-13
6.66024e-13
6.6941e-13
6.70659e-13
6.70179e-13
6.68003e-13
6.64322e-13
6.59285e-13
6.53015e-13
6.45617e-13
6.37176e-13
6.27759e-13
6.1742e-13
6.062e-13
5.94129e-13
5.81231e-13
5.67527e-13
5.53033e-13
5.37769e-13
5.21752e-13
5.05005e-13
4.87556e-13
4.69436e-13
4.50684e-13
4.31341e-13
4.11459e-13
3.91091e-13
3.70297e-13
3.4914e-13
3.27689e-13
3.06012e-13
2.84181e-13
2.62268e-13
2.40346e-13
2.18491e-13
1.96777e-13
1.75287e-13
1.5411e-13
1.3335e-13
1.13137e-13
9.36416e-14
7.50883e-14
5.77758e-14
4.20858e-14
2.84659e-14
1.7379e-14
9.16163e-15
3.86665e-15
1.12246e-15
1.49371e-16
8.7282e-19
2.59472e-18
4.43632e-16
3.33714e-15
1.15637e-14
2.76905e-14
5.32359e-14
8.8393e-14
1.32172e-13
1.82802e-13
2.38125e-13
2.95977e-13
3.54409e-13
4.11793e-13
4.66851e-13
5.1863e-13
5.66467e-13
6.09933e-13
6.48796e-13
6.82977e-13
7.1252e-13
7.37559e-13
7.583e-13
7.74996e-13
7.87932e-13
7.97408e-13
8.03731e-13
8.07142e-13
8.07961e-13
8.06628e-13
8.0319e-13
7.97903e-13
7.90957e-13
7.82511e-13
7.72701e-13
7.61638e-13
7.49414e-13
7.36099e-13
7.21752e-13
7.06417e-13
6.90133e-13
6.72929e-13
6.54836e-13
6.3588e-13
6.16091e-13
5.95502e-13
5.7415e-13
5.52076e-13
5.29328e-13
5.05959e-13
4.82028e-13
4.57599e-13
4.32741e-13
4.07525e-13
3.82029e-13
3.56328e-13
3.30503e-13
3.04634e-13
2.78802e-13
2.5309e-13
2.27585e-13
2.02379e-13
1.77579e-13
1.53309e-13
1.29729e-13
1.07044e-13
8.55289e-14
6.55394e-14
4.75206e-14
3.19821e-14
1.94262e-14
1.01914e-14
4.28363e-15
1.23981e-15
1.64711e-16
9.61937e-19
2.88802e-18
4.94141e-16
3.72459e-15
1.295e-14
3.11521e-14
6.02159e-14
1.00571e-13
1.51265e-13
2.10385e-13
2.75467e-13
3.43947e-13
4.13454e-13
4.8196e-13
5.47844e-13
6.09881e-13
6.67203e-13
7.19244e-13
7.65688e-13
8.06419e-13
8.41478e-13
8.71026e-13
8.95315e-13
9.14657e-13
9.29407e-13
9.39938e-13
9.46632e-13
9.49735e-13
9.49818e-13
9.47238e-13
9.42134e-13
9.34817e-13
9.25522e-13
9.14454e-13
9.01783e-13
8.87652e-13
8.72179e-13
8.55459e-13
8.3757e-13
8.18576e-13
7.9853e-13
7.77477e-13
7.55461e-13
7.3252e-13
7.08698e-13
6.84038e-13
6.58587e-13
6.32398e-13
6.05529e-13
5.78042e-13
5.50004e-13
5.21489e-13
4.92572e-13
4.63332e-13
4.33852e-13
4.04215e-13
3.74505e-13
3.44808e-13
3.1521e-13
2.85801e-13
2.56675e-13
2.27934e-13
1.99697e-13
1.72108e-13
1.4535e-13
1.19664e-13
9.5366e-14
7.28649e-14
5.26617e-14
3.53214e-14
2.13809e-14
1.11811e-14
4.68717e-15
1.35406e-15
1.797e-16
1.04915e-18
3.18887e-18
5.45942e-16
4.12174e-15
1.43698e-14
3.46939e-14
6.73533e-14
1.13023e-13
1.70809e-13
2.38648e-13
3.13794e-13
3.93271e-13
4.74269e-13
5.54339e-13
6.31492e-13
7.04206e-13
7.71387e-13
8.32314e-13
8.86577e-13
9.34014e-13
9.74665e-13
1.00872e-12
1.03647e-12
1.0583e-12
1.07465e-12
1.08596e-12
1.09269e-12
1.0951e-12
1.09409e-12
1.08983e-12
1.08262e-12
1.07283e-12
1.06073e-12
1.04658e-12
1.0306e-12
1.01296e-12
9.93816e-13
9.73286e-13
9.51473e-13
9.28462e-13
9.04326e-13
8.79127e-13
8.52923e-13
8.25771e-13
7.97723e-13
7.68837e-13
7.39171e-13
7.08788e-13
6.77756e-13
6.46145e-13
6.14031e-13
5.81492e-13
5.48611e-13
5.1547e-13
4.82157e-13
4.48757e-13
4.15358e-13
3.82048e-13
3.48915e-13
3.16051e-13
2.83556e-13
2.51538e-13
2.20125e-13
1.89477e-13
1.59797e-13
1.31353e-13
1.045e-13
7.96899e-14
5.74732e-14
3.8465e-14
2.3234e-14
1.21267e-14
5.07558e-15
1.46469e-15
1.9427e-16
1.13404e-18
3.49663e-18
5.98929e-16
4.52785e-15
1.58207e-14
3.83105e-14
7.46366e-14
1.25727e-13
1.90751e-13
2.67501e-13
3.52952e-13
4.43711e-13
5.36515e-13
6.28477e-13
7.17219e-13
8.00901e-13
8.78187e-13
9.48188e-13
1.01039e-12
1.06458e-12
1.11079e-12
1.14924e-12
1.18029e-12
1.20438e-12
1.22203e-12
1.23379e-12
1.24015e-12
1.24147e-12
1.23895e-12
1.23257e-12
1.2228e-12
1.21006e-12
1.1947e-12
1.17703e-12
1.1573e-12
1.13574e-12
1.11253e-12
1.08782e-12
1.06174e-12
1.03441e-12
1.00591e-12
9.76324e-13
9.45735e-13
9.14208e-13
8.81813e-13
8.48618e-13
8.14693e-13
7.80111e-13
7.44948e-13
7.0928e-13
6.7319e-13
6.36762e-13
6.00079e-13
5.63228e-13
5.26297e-13
4.89373e-13
4.52541e-13
4.1589e-13
3.79509e-13
3.43488e-13
3.07928e-13
2.72941e-13
2.38662e-13
2.05258e-13
1.72949e-13
1.42026e-13
1.12872e-13
8.59775e-14
6.19341e-14
4.14013e-14
2.49796e-14
1.30251e-14
5.44759e-15
1.57131e-15
2.08366e-16
1.2163e-18
3.81063e-18
6.52989e-16
4.9421e-15
1.72999e-14
4.19955e-14
8.20533e-14
1.38656e-13
2.11044e-13
2.96864e-13
3.9281e-13
4.95068e-13
5.9991e-13
7.03996e-13
8.04543e-13
8.99377e-13
9.86905e-13
1.06606e-12
1.13621e-12
1.1971e-12
1.24876e-12
1.29143e-12
1.32552e-12
1.35158e-12
1.37019e-12
1.38201e-12
1.38751e-12
1.38742e-12
1.38289e-12
1.37394e-12
1.36114e-12
1.345e-12
1.32594e-12
1.30432e-12
1.28044e-12
1.25457e-12
1.22694e-12
1.19773e-12
1.1671e-12
1.13519e-12
1.10212e-12
1.06798e-12
1.03286e-12
9.96869e-13
9.6007e-13
9.22549e-13
8.84386e-13
8.45662e-13
8.06459e-13
7.66861e-13
7.26952e-13
6.86819e-13
6.46547e-13
6.06223e-13
5.65932e-13
5.2576e-13
4.8579e-13
4.46106e-13
4.06794e-13
3.67943e-13
3.29651e-13
2.92029e-13
2.55214e-13
2.19379e-13
1.84754e-13
1.51645e-13
1.20457e-13
9.17117e-14
6.60346e-14
4.41246e-14
2.66142e-14
1.38746e-14
5.80236e-15
1.67367e-15
2.21952e-16
1.2957e-18
4.13021e-18
7.08008e-16
5.36365e-15
1.88047e-14
4.57422e-14
8.95894e-14
1.51785e-13
2.31644e-13
3.26664e-13
4.3325e-13
5.47165e-13
6.64208e-13
7.80571e-13
8.93052e-13
9.99129e-13
1.09694e-12
1.18524e-12
1.26328e-12
1.33074e-12
1.38765e-12
1.43428e-12
1.47113e-12
1.4988e-12
1.51798e-12
1.52944e-12
1.53362e-12
1.53174e-12
1.52472e-12
1.51273e-12
1.49646e-12
1.47649e-12
1.45331e-12
1.42733e-12
1.39894e-12
1.36843e-12
1.33607e-12
1.30209e-12
1.26669e-12
1.23001e-12
1.19221e-12
1.1534e-12
1.11369e-12
1.07319e-12
1.03199e-12
9.90187e-13
9.47861e-13
9.05103e-13
8.62001e-13
8.18641e-13
7.7511e-13
7.31493e-13
6.87875e-13
6.44341e-13
6.00972e-13
5.57849e-13
5.1505e-13
4.72655e-13
4.30743e-13
3.89397e-13
3.48711e-13
3.08793e-13
2.69777e-13
2.31838e-13
1.9521e-13
1.60209e-13
1.27255e-13
9.68925e-14
6.97746e-14
4.66341e-14
2.81371e-14
1.46744e-14
6.13949e-15
1.77162e-15
2.35007e-16
1.37213e-18
4.45464e-18
7.63865e-16
5.79158e-15
2.03319e-14
4.95428e-14
9.72295e-14
1.65088e-13
2.52502e-13
3.56829e-13
4.74157e-13
5.99842e-13
7.29188e-13
8.57912e-13
9.82382e-13
1.09972e-12
1.20779e-12
1.30515e-12
1.39093e-12
1.46477e-12
1.52668e-12
1.57698e-12
1.61623e-12
1.64513e-12
1.66449e-12
1.67513e-12
1.67753e-12
1.67345e-12
1.66349e-12
1.64802e-12
1.62785e-12
1.60364e-12
1.57596e-12
1.54528e-12
1.51205e-12
1.47661e-12
1.43929e-12
1.40034e-12
1.35998e-12
1.3184e-12
1.27578e-12
1.23225e-12
1.18794e-12
1.14296e-12
1.09741e-12
1.05141e-12
1.00504e-12
9.58401e-13
9.11575e-13
8.64653e-13
8.1772e-13
7.70861e-13
7.24157e-13
6.77687e-13
6.31528e-13
5.85754e-13
5.40437e-13
4.95647e-13
4.51458e-13
4.07945e-13
3.65194e-13
3.23307e-13
2.82414e-13
2.42687e-13
2.0436e-13
1.6775e-13
1.33289e-13
1.01534e-13
7.3162e-14
4.89338e-14
2.95498e-14
1.54249e-14
6.45902e-15
1.86515e-15
2.47528e-16
1.44555e-18
4.7832e-18
8.20434e-16
6.22494e-15
2.18781e-14
5.3389e-14
1.04957e-13
1.78533e-13
2.73569e-13
3.87279e-13
5.1542e-13
6.52941e-13
7.94642e-13
9.35753e-13
1.07221e-12
1.20076e-12
1.31899e-12
1.42527e-12
1.5186e-12
1.59857e-12
1.66519e-12
1.71883e-12
1.76012e-12
1.78986e-12
1.80898e-12
1.81826e-12
1.81855e-12
1.81182e-12
1.79849e-12
1.77912e-12
1.75466e-12
1.72585e-12
1.69333e-12
1.65766e-12
1.61932e-12
1.57874e-12
1.53625e-12
1.49218e-12
1.44676e-12
1.40022e-12
1.35275e-12
1.3045e-12
1.25561e-12
1.20622e-12
1.15644e-12
1.10637e-12
1.05611e-12
1.00577e-12
9.55414e-13
9.05148e-13
8.55048e-13
8.05196e-13
7.55667e-13
7.06534e-13
6.57866e-13
6.0973e-13
5.6219e-13
5.15307e-13
4.69145e-13
4.23771e-13
3.79262e-13
3.35712e-13
2.93244e-13
2.52022e-13
2.12276e-13
1.74323e-13
1.38596e-13
1.05661e-13
7.62121e-14
5.10316e-14
3.08559e-14
1.61276e-14
6.76141e-15
1.95436e-15
2.59526e-16
1.51604e-18
5.11511e-18
8.7758e-16
6.66271e-15
2.34396e-14
5.72717e-14
1.12753e-13
1.92088e-13
2.94794e-13
4.17933e-13
5.56927e-13
7.06309e-13
8.60369e-13
1.01385e-12
1.16222e-12
1.30189e-12
1.43015e-12
1.54515e-12
1.6458e-12
1.73162e-12
1.80263e-12
1.85925e-12
1.90219e-12
1.93237e-12
1.95081e-12
1.95825e-12
1.95618e-12
1.9463e-12
1.92922e-12
1.90557e-12
1.87648e-12
1.84276e-12
1.80512e-12
1.7642e-12
1.72056e-12
1.67465e-12
1.62688e-12
1.57759e-12
1.52707e-12
1.47555e-12
1.42325e-12
1.37033e-12
1.31697e-12
1.26328e-12
1.20939e-12
1.15542e-12
1.10145e-12
1.0476e-12
9.93933e-13
9.40547e-13
8.87517e-13
8.34917e-13
7.82815e-13
7.31278e-13
6.80366e-13
6.30137e-13
5.80645e-13
5.31942e-13
4.84083e-13
4.37124e-13
3.91134e-13
3.46195e-13
3.02421e-13
2.59968e-13
2.19058e-13
1.80002e-13
1.4323e-13
1.09309e-13
7.89459e-14
5.29393e-14
3.20611e-14
1.6785e-14
7.04753e-15
2.03948e-15
2.71029e-16
1.58375e-18
5.44957e-18
9.35165e-16
7.10381e-15
2.50127e-14
6.11812e-14
1.20597e-13
2.05719e-13
3.16119e-13
4.48707e-13
5.9856e-13
7.5979e-13
9.26173e-13
1.09195e-12
1.25214e-12
1.40278e-12
1.54088e-12
1.66439e-12
1.77208e-12
1.86345e-12
1.93852e-12
1.99776e-12
2.04198e-12
2.07218e-12
2.08954e-12
2.09471e-12
2.08996e-12
2.07654e-12
2.05533e-12
2.0271e-12
1.99307e-12
1.95417e-12
1.91119e-12
1.86485e-12
1.81575e-12
1.76442e-12
1.7113e-12
1.65678e-12
1.60115e-12
1.54469e-12
1.48763e-12
1.43016e-12
1.37243e-12
1.31459e-12
1.25677e-12
1.19907e-12
1.1416e-12
1.08444e-12
1.02768e-12
9.71399e-13
9.15667e-13
8.60551e-13
8.06113e-13
7.52408e-13
6.99491e-13
6.47408e-13
5.96204e-13
5.45922e-13
4.96605e-13
4.48302e-13
4.01068e-13
3.54977e-13
3.10132e-13
2.66678e-13
2.24826e-13
1.84877e-13
1.47253e-13
1.1252e-13
8.139e-14
5.46717e-14
3.31731e-14
1.74003e-14
7.3186e-15
2.12082e-15
2.82077e-16
1.64891e-18
5.78572e-18
9.93043e-16
7.54711e-15
2.65931e-14
6.51072e-14
1.2847e-13
2.19388e-13
3.37485e-13
4.79514e-13
6.40197e-13
8.13228e-13
9.91855e-13
1.16982e-12
1.3417e-12
1.50313e-12
1.65085e-12
1.78261e-12
1.89708e-12
1.99368e-12
2.07247e-12
2.13397e-12
2.17909e-12
2.20896e-12
2.22478e-12
2.22735e-12
2.21961e-12
2.20231e-12
2.17666e-12
2.14357e-12
2.10437e-12
2.06009e-12
2.01161e-12
1.95972e-12
1.90509e-12
1.84829e-12
1.78982e-12
1.73008e-12
1.66941e-12
1.60811e-12
1.54641e-12
1.48451e-12
1.42258e-12
1.36077e-12
1.29919e-12
1.23797e-12
1.17719e-12
1.11694e-12
1.0573e-12
9.98337e-13
9.40117e-13
8.82698e-13
8.26134e-13
7.70472e-13
7.15756e-13
6.62024e-13
6.09311e-13
5.57651e-13
5.07078e-13
4.57628e-13
4.09349e-13
3.62303e-13
3.16581e-13
2.72317e-13
2.29709e-13
1.89046e-13
1.50738e-13
1.15343e-13
8.35747e-14
5.62464e-14
3.4201e-14
1.79778e-14
7.57621e-15
2.19883e-15
2.92725e-16
1.71183e-18
6.12269e-18
1.05106e-15
7.99142e-15
2.81766e-14
6.90385e-14
1.36348e-13
2.33055e-13
3.58828e-13
5.1026e-13
6.81715e-13
8.6646e-13
1.05722e-12
1.24723e-12
1.43061e-12
1.60264e-12
1.75974e-12
1.89949e-12
2.02043e-12
2.12195e-12
2.20412e-12
2.26755e-12
2.31322e-12
2.34242e-12
2.35624e-12
2.35607e-12
2.34495e-12
2.3235e-12
2.29315e-12
2.25499e-12
2.21046e-12
2.16066e-12
2.10659e-12
2.04909e-12
1.9889e-12
1.92665e-12
1.86287e-12
1.798e-12
1.7324e-12
1.66639e-12
1.6002e-12
1.53405e-12
1.4681e-12
1.40251e-12
1.33739e-12
1.27284e-12
1.20896e-12
1.14582e-12
1.0835e-12
1.02205e-12
9.61538e-13
9.02004e-13
8.43496e-13
7.86052e-13
7.29708e-13
6.74494e-13
6.20435e-13
5.67557e-13
5.15884e-13
4.65444e-13
4.16275e-13
3.68428e-13
3.21983e-13
2.77062e-13
2.33848e-13
1.92616e-13
1.53762e-13
1.17832e-13
8.55332e-14
5.7683e-14
3.51553e-14
1.85224e-14
7.8222e-15
2.27399e-15
3.03036e-16
1.77289e-18
6.45959e-18
1.10906e-15
8.43553e-15
2.97586e-14
7.29639e-14
1.44208e-13
2.46678e-13
3.80083e-13
5.40852e-13
7.22985e-13
9.19324e-13
1.12207e-12
1.32395e-12
1.51863e-12
1.70102e-12
1.86726e-12
2.01471e-12
2.14183e-12
2.24797e-12
2.33321e-12
2.39822e-12
2.44412e-12
2.47232e-12
2.4838e-12
2.48079e-12
2.46593e-12
2.44012e-12
2.40489e-12
2.36151e-12
2.31152e-12
2.25614e-12
2.19643e-12
2.13332e-12
2.06762e-12
2e-12
1.93101e-12
1.86114e-12
1.79077e-12
1.72021e-12
1.64972e-12
1.57951e-12
1.50975e-12
1.44058e-12
1.37212e-12
1.30446e-12
1.23768e-12
1.17185e-12
1.10703e-12
1.04327e-12
9.80628e-13
9.19135e-13
8.58831e-13
7.99745e-13
7.41905e-13
6.85333e-13
6.30049e-13
5.7607e-13
5.23412e-13
4.72095e-13
4.22147e-13
3.73612e-13
3.26557e-13
2.81092e-13
2.37386e-13
1.95698e-13
1.56406e-13
1.20041e-13
8.73017e-14
5.9003e-14
3.60472e-14
1.90392e-14
8.05863e-15
2.34686e-15
3.13083e-16
1.83249e-18
6.79546e-18
1.16689e-15
8.87815e-15
3.13346e-14
7.68712e-14
1.52025e-13
2.60213e-13
4.01183e-13
5.7119e-13
7.63875e-13
9.71654e-13
1.1862e-12
1.39974e-12
1.60551e-12
1.798e-12
1.97311e-12
2.128e-12
2.26102e-12
2.37147e-12
2.45948e-12
2.52579e-12
2.57164e-12
2.59855e-12
2.60742e-12
2.60143e-12
2.5826e-12
2.55227e-12
2.51203e-12
2.46335e-12
2.40786e-12
2.34688e-12
2.28156e-12
2.21292e-12
2.1418e-12
2.06892e-12
1.99488e-12
1.92018e-12
1.84522e-12
1.77032e-12
1.69574e-12
1.62169e-12
1.54834e-12
1.47581e-12
1.40421e-12
1.33363e-12
1.26414e-12
1.19579e-12
1.12864e-12
1.06273e-12
9.98089e-13
9.34761e-13
8.72771e-13
8.12143e-13
7.52899e-13
6.95054e-13
6.38622e-13
5.83615e-13
5.30042e-13
4.77918e-13
4.27263e-13
3.7811e-13
3.30519e-13
2.84585e-13
2.40465e-13
1.984e-13
1.5875e-13
1.22027e-13
8.89167e-14
6.02292e-14
3.68889e-14
1.95341e-14
8.28771e-15
2.41807e-15
3.22944e-16
1.89109e-18
7.12936e-18
1.22437e-15
9.31799e-15
3.28996e-14
8.07482e-14
1.59773e-13
2.73617e-13
4.22055e-13
6.01174e-13
8.04253e-13
1.02328e-12
1.24942e-12
1.47439e-12
1.69098e-12
1.89333e-12
2.07704e-12
2.23909e-12
2.37772e-12
2.49222e-12
2.58273e-12
2.6501e-12
2.69565e-12
2.72103e-12
2.72711e-12
2.718e-12
2.69508e-12
2.66014e-12
2.61482e-12
2.56082e-12
2.49984e-12
2.43332e-12
2.36249e-12
2.28842e-12
2.21203e-12
2.13407e-12
2.05518e-12
1.97586e-12
1.89653e-12
1.81752e-12
1.73908e-12
1.66142e-12
1.5847e-12
1.50902e-12
1.4345e-12
1.36119e-12
1.28915e-12
1.21844e-12
1.14909e-12
1.08114e-12
1.01461e-12
9.49537e-13
8.85934e-13
8.23825e-13
7.63226e-13
7.04149e-13
6.46605e-13
5.90601e-13
5.36143e-13
4.8324e-13
4.31906e-13
3.82169e-13
3.34076e-13
2.87714e-13
2.43225e-13
2.00831e-13
1.60874e-13
1.23846e-13
9.04144e-14
6.13848e-14
3.76924e-14
2.00129e-14
8.51174e-15
2.48825e-15
3.32702e-16
1.94917e-18
7.46033e-18
1.28134e-15
9.75372e-15
3.4449e-14
8.45825e-14
1.67428e-13
2.86844e-13
4.4263e-13
6.30703e-13
8.43983e-13
1.07404e-12
1.31153e-12
1.54767e-12
1.77482e-12
1.98676e-12
2.1788e-12
2.34774e-12
2.49173e-12
2.61003e-12
2.70282e-12
2.77104e-12
2.81614e-12
2.83968e-12
2.84293e-12
2.83061e-12
2.80354e-12
2.76395e-12
2.71357e-12
2.65429e-12
2.58791e-12
2.51596e-12
2.43977e-12
2.36045e-12
2.27899e-12
2.19616e-12
2.11264e-12
2.02895e-12
1.9455e-12
1.86263e-12
1.78058e-12
1.69954e-12
1.61967e-12
1.54106e-12
1.46379e-12
1.38793e-12
1.31351e-12
1.24056e-12
1.16913e-12
1.09922e-12
1.03087e-12
9.64096e-13
8.98914e-13
8.35342e-13
7.73396e-13
7.13087e-13
6.54424e-13
5.97413e-13
5.42058e-13
4.88365e-13
4.36345e-13
3.86017e-13
3.37424e-13
2.90641e-13
2.45795e-13
2.03093e-13
1.62855e-13
1.25552e-13
9.18315e-14
6.24909e-14
3.847e-14
2.04813e-14
8.73302e-15
2.55803e-15
3.4244e-16
2.00721e-18
7.78738e-18
1.33762e-15
1.0184e-14
3.59776e-14
8.83614e-14
1.74963e-13
2.99848e-13
4.62835e-13
6.59673e-13
8.82937e-13
1.12377e-12
1.37233e-12
1.61937e-12
1.8568e-12
2.07804e-12
2.27814e-12
2.45373e-12
2.60284e-12
2.72472e-12
2.8196e-12
2.88849e-12
2.933e-12
2.95453e-12
2.95512e-12
2.9394e-12
2.90819e-12
2.864e-12
2.80863e-12
2.74418e-12
2.67255e-12
2.59535e-12
2.51399e-12
2.42965e-12
2.34335e-12
2.25593e-12
2.16804e-12
2.08024e-12
1.99294e-12
1.90647e-12
1.82106e-12
1.73689e-12
1.65409e-12
1.57274e-12
1.49292e-12
1.41465e-12
1.33797e-12
1.26289e-12
1.18945e-12
1.11764e-12
1.0475e-12
9.79038e-13
9.1227e-13
8.47215e-13
7.83889e-13
7.22307e-13
6.62477e-13
6.04409e-13
5.48107e-13
4.93576e-13
4.40825e-13
3.89869e-13
3.40744e-13
2.93515e-13
2.48297e-13
2.05281e-13
1.64764e-13
1.27196e-13
9.32023e-14
6.35684e-14
3.92331e-14
2.0945e-14
8.95375e-15
2.62804e-15
3.52238e-16
2.06567e-18
8.10954e-18
1.39305e-15
1.06075e-14
3.74807e-14
9.20722e-14
1.82352e-13
3.12583e-13
4.826e-13
6.87984e-13
9.20979e-13
1.17229e-12
1.43163e-12
1.68926e-12
1.93667e-12
2.16694e-12
2.37484e-12
2.55683e-12
2.71086e-12
2.83614e-12
2.93296e-12
3.00242e-12
3.04622e-12
3.06571e-12
3.06376e-12
3.04458e-12
3.00932e-12
2.96063e-12
2.90041e-12
2.83097e-12
2.75429e-12
2.67207e-12
2.58578e-12
2.49669e-12
2.40585e-12
2.3141e-12
2.22215e-12
2.13053e-12
2.03966e-12
1.94985e-12
1.86134e-12
1.77427e-12
1.68876e-12
1.60487e-12
1.52264e-12
1.4421e-12
1.36326e-12
1.28614e-12
1.21073e-12
1.13705e-12
1.06511e-12
9.94928e-13
9.26528e-13
8.59928e-13
7.9515e-13
7.32212e-13
6.7113e-13
6.11917e-13
5.54581e-13
4.99129e-13
4.4557e-13
3.93916e-13
3.44198e-13
2.96473e-13
2.50843e-13
2.07481e-13
1.66668e-13
1.28826e-13
9.45583e-14
6.46365e-14
3.99925e-14
2.14092e-14
9.17605e-15
2.69888e-15
3.62175e-16
2.12502e-18
8.42586e-18
1.44747e-15
1.1023e-14
3.89533e-14
9.57026e-14
1.89569e-13
3.25005e-13
5.01855e-13
7.15537e-13
9.57978e-13
1.21946e-12
1.48925e-12
1.75715e-12
2.01424e-12
2.25325e-12
2.4687e-12
2.65688e-12
2.81564e-12
2.94418e-12
3.04283e-12
3.11278e-12
3.15588e-12
3.17334e-12
3.16895e-12
3.14639e-12
3.10721e-12
3.05419e-12
2.98934e-12
2.91514e-12
2.83366e-12
2.7467e-12
2.65579e-12
2.56226e-12
2.46718e-12
2.37143e-12
2.27572e-12
2.18059e-12
2.08644e-12
1.99358e-12
1.90222e-12
1.81248e-12
1.72446e-12
1.6382e-12
1.55371e-12
1.47101e-12
1.3901e-12
1.31096e-12
1.2336e-12
1.15802e-12
1.08425e-12
1.01229e-12
9.42174e-13
8.7393e-13
8.07587e-13
7.43174e-13
6.80716e-13
6.20234e-13
5.61743e-13
5.05255e-13
4.5078e-13
3.9833e-13
3.47932e-13
2.99634e-13
2.53528e-13
2.09772e-13
1.68624e-13
1.30483e-13
9.5928e-14
6.57129e-14
4.07579e-14
2.18786e-14
9.4018e-15
2.77107e-15
3.72321e-16
2.18566e-18
8.73539e-18
1.5007e-15
1.14291e-14
4.03908e-14
9.92405e-14
1.96591e-13
3.3707e-13
5.20532e-13
7.42239e-13
9.9381e-13
1.26512e-12
1.54501e-12
1.82285e-12
2.0893e-12
2.33677e-12
2.55953e-12
2.75369e-12
2.91703e-12
3.04873e-12
3.14916e-12
3.2196e-12
3.26202e-12
3.27757e-12
3.27087e-12
3.24509e-12
3.2022e-12
3.14507e-12
3.07585e-12
2.99719e-12
2.91123e-12
2.81985e-12
2.72467e-12
2.62703e-12
2.52805e-12
2.42864e-12
2.32951e-12
2.23118e-12
2.13406e-12
2.03842e-12
1.94445e-12
1.85227e-12
1.76193e-12
1.67345e-12
1.58683e-12
1.50206e-12
1.41911e-12
1.33798e-12
1.25865e-12
1.18114e-12
1.10545e-12
1.03161e-12
9.59658e-13
8.89632e-13
8.21575e-13
7.55531e-13
6.91538e-13
6.29629e-13
5.69829e-13
5.12159e-13
4.56631e-13
4.03261e-13
3.52071e-13
3.03104e-13
2.5644e-13
2.12221e-13
1.70684e-13
1.32205e-13
9.7336e-14
6.68129e-14
4.15379e-14
2.23573e-14
9.63266e-15
2.8451e-15
3.82739e-16
2.24796e-18
9.03725e-18
1.55259e-15
1.18245e-14
4.17886e-14
1.02674e-13
2.03393e-13
3.48738e-13
5.38568e-13
7.67998e-13
1.02836e-12
1.30912e-12
1.59875e-12
1.88617e-12
2.16166e-12
2.41731e-12
2.64714e-12
2.84712e-12
3.01492e-12
3.14971e-12
3.25191e-12
3.32289e-12
3.36472e-12
3.37853e-12
3.36971e-12
3.34095e-12
3.29461e-12
3.23367e-12
3.16042e-12
3.07763e-12
2.98755e-12
2.89213e-12
2.79303e-12
2.69166e-12
2.58916e-12
2.48645e-12
2.38422e-12
2.28302e-12
2.18322e-12
2.08508e-12
1.98875e-12
1.89433e-12
1.80185e-12
1.71129e-12
1.62264e-12
1.53586e-12
1.45091e-12
1.36777e-12
1.28644e-12
1.2069e-12
1.12919e-12
1.05334e-12
9.79392e-13
9.07412e-13
8.37457e-13
7.6959e-13
7.03869e-13
6.40342e-13
5.7905e-13
5.20022e-13
4.6328e-13
4.08841e-13
3.56726e-13
3.06972e-13
2.59649e-13
2.14883e-13
1.72891e-13
1.34023e-13
9.88034e-14