/*--------------------------------*- C++ -*----------------------------------*\
  =========                 |
  \\      /  F ield         | OpenFOAM: The Open Source CFD Toolbox
   \\    /   O peration     | Website:  https://openfoam.org
    \\  /    A nd           | Version:  12
     \\/     M anipulation  |
\*---------------------------------------------------------------------------*/
FoamFile
{
    format      ascii;
    class       surfaceScalarField;
    location    "3";
    object      phi;
}
// * * * * * * * * * * * * * * * * * * * * * * * * * * * * * * * * * * * * * //

dimensions      [0 3 -1 0 0 0 0];

internalField   nonuniform List<scalar> 
11100
(
2.93997e-10
-2.94363e-10
7.43113e-10
-4.49109e-10
1.06519e-09
-3.22065e-10
1.10662e-09
-4.14312e-11
8.0062e-10
3.06008e-10
1.28317e-10
6.72307e-10
-9.0214e-10
1.03046e-09
-2.26778e-09
1.36565e-09
-3.938e-09
1.67023e-09
-5.8789e-09
1.9409e-09
-8.05587e-09
2.17698e-09
-1.04351e-08
2.37925e-09
-1.29845e-08
2.54935e-09
-1.56738e-08
2.68935e-09
-1.84752e-08
2.80144e-09
-2.1363e-08
2.88776e-09
-2.43133e-08
2.9503e-09
-2.73041e-08
2.99079e-09
-3.03148e-08
3.0107e-09
-3.3326e-08
3.01122e-09
-3.63192e-08
2.99324e-09
-3.92766e-08
2.95737e-09
-4.21806e-08
2.90399e-09
-4.50139e-08
2.8333e-09
-4.77592e-08
2.7453e-09
-5.03991e-08
2.63992e-09
-5.29161e-08
2.517e-09
-5.52925e-08
2.37638e-09
-5.75104e-08
2.21793e-09
-5.95521e-08
2.04163e-09
-6.13996e-08
1.84755e-09
-6.30356e-08
1.63598e-09
-6.4443e-08
1.40739e-09
-6.56055e-08
1.1625e-09
-6.65078e-08
9.02317e-10
-6.71359e-08
6.28092e-10
-6.74774e-08
3.41467e-10
-6.75222e-08
4.48158e-11
-6.72617e-08
-2.60492e-10
-6.66904e-08
-5.71256e-10
-6.58057e-08
-8.84766e-10
-6.46078e-08
-1.19789e-09
-6.31005e-08
-1.50725e-09
-6.12912e-08
-1.80929e-09
-5.91909e-08
-2.10031e-09
-5.68144e-08
-2.37652e-09
-5.41803e-08
-2.63413e-09
-5.13109e-08
-2.8694e-09
-4.82322e-08
-3.07872e-09
-4.49735e-08
-3.2587e-09
-4.15673e-08
-3.40622e-09
-3.80487e-08
-3.51854e-09
-3.44554e-08
-3.59334e-09
-3.08266e-08
-3.62879e-09
-2.7203e-08
-3.62363e-09
-2.36258e-08
-3.57718e-09
-2.01365e-08
-3.48937e-09
-1.67756e-08
-3.36082e-09
-1.35829e-08
-3.19278e-09
-1.05957e-08
-2.98718e-09
-7.84908e-09
-2.74661e-09
-5.37477e-09
-2.47432e-09
-3.20055e-09
-2.17422e-09
-1.34962e-09
-1.85093e-09
1.60213e-10
-1.50983e-09
1.31742e-09
-1.15721e-09
2.11789e-09
-8.00468e-10
2.56655e-09
-4.48666e-10
2.67975e-09
-1.13198e-10
2.48875e-09
1.91001e-10
2.04518e-09
4.4357e-10
1.42906e-09
6.16124e-10
7.60835e-10
6.6822e-10
2.16855e-10
5.4398e-10
2.16855e-10
4.5225e-10
-7.46573e-10
1.00855e-09
-1.00538e-09
1.15342e-09
-4.66921e-10
5.94761e-10
5.17221e-10
-8.18172e-10
1.71893e-09
-3.1416e-09
2.99572e-09
-6.37051e-09
4.25937e-09
-1.04617e-08
5.45682e-09
-1.53493e-08
6.55782e-09
-2.09552e-08
7.54684e-09
-2.71959e-08
8.41774e-09
-3.3987e-08
9.17029e-09
-4.12455e-08
9.80789e-09
-4.88921e-08
1.03359e-08
-5.68514e-08
1.07608e-08
-6.50527e-08
1.10891e-08
-7.34295e-08
1.13271e-08
-8.19193e-08
1.14806e-08
-9.04631e-08
1.15545e-08
-9.90047e-08
1.15528e-08
-1.0749e-07
1.14787e-08
-1.15867e-07
1.13346e-08
-1.24085e-07
1.11218e-08
-1.32093e-07
1.08414e-08
-1.39841e-07
1.04935e-08
-1.4728e-07
1.00782e-08
-1.54358e-07
9.59541e-09
-1.61027e-07
9.0448e-09
-1.67235e-07
8.42637e-09
-1.72934e-07
7.74043e-09
-1.78074e-07
6.98778e-09
-1.82608e-07
6.16987e-09
-1.8649e-07
5.28892e-09
-1.89675e-07
4.34805e-09
-1.92124e-07
3.35136e-09
-1.938e-07
2.30396e-09
-1.94671e-07
1.21217e-09
-1.9471e-07
8.4168e-11
-1.93898e-07
-1.07258e-09
-1.92221e-07
-2.24787e-09
-1.89675e-07
-3.43099e-09
-1.86263e-07
-4.61029e-09
-1.81997e-07
-5.77329e-09
-1.76899e-07
-6.9069e-09
-1.71002e-07
-7.99754e-09
-1.64347e-07
-9.03139e-09
-1.56987e-07
-9.99464e-09
-1.48982e-07
-1.08737e-08
-1.40405e-07
-1.16556e-08
-1.31336e-07
-1.23279e-08
-1.21863e-07
-1.28796e-08
-1.12081e-07
-1.33007e-08
-1.02091e-07
-1.3583e-08
-9.19998e-08
-1.37199e-08
-8.19164e-08
-1.37071e-08
-7.19515e-08
-1.35421e-08
-6.2216e-08
-1.32249e-08
-5.28188e-08
-1.2758e-08
-4.38655e-08
-1.21461e-08
-3.54561e-08
-1.13966e-08
-2.76835e-08
-1.05192e-08
-2.06315e-08
-9.52631e-09
-1.4373e-08
-8.43278e-09
-8.96773e-09
-7.25617e-09
-4.46057e-09
-6.01699e-09
-8.78645e-10
-4.73914e-09
1.77158e-09
-3.4507e-09
3.50811e-09
-2.1852e-09
4.37857e-09
-9.83657e-10
4.46711e-09
1.02462e-10
3.90363e-09
1.00705e-09
2.87573e-09
1.64402e-09
1.64236e-09
1.9016e-09
5.4253e-10
1.6438e-09
7.59385e-10
3.29748e-10
-1.07628e-09
4.7754e-10
-1.15314e-09
-1.1383e-10
1.24454e-10
-1.77843e-09
2.1818e-09
-4.70048e-09
4.64095e-09
-8.95539e-09
7.25062e-09
-1.45417e-08
9.84572e-09
-2.1406e-08
1.23211e-08
-2.94611e-08
1.46129e-08
-3.85996e-08
1.66853e-08
-4.87032e-08
1.85214e-08
-5.96495e-08
2.01166e-08
-7.13162e-08
2.14745e-08
-8.35837e-08
2.26035e-08
-9.63374e-08
2.35144e-08
-1.09467e-07
2.42192e-08
-1.2287e-07
2.47296e-08
-1.36446e-07
2.50566e-08
-1.50101e-07
2.52097e-08
-1.63746e-07
2.51971e-08
-1.77292e-07
2.50251e-08
-1.90656e-07
2.46984e-08
-2.03754e-07
2.42205e-08
-2.16506e-07
2.35932e-08
-2.28831e-07
2.28179e-08
-2.40647e-07
2.18948e-08
-2.51876e-07
2.08242e-08
-2.62438e-07
1.96062e-08
-2.72253e-07
1.82415e-08
-2.81244e-07
1.67314e-08
-2.89334e-07
1.50782e-08
-2.9645e-07
1.32859e-08
-3.02521e-07
1.13597e-08
-3.0748e-07
9.30694e-09
-3.11265e-07
7.13706e-09
-3.13823e-07
4.86159e-09
-3.15105e-07
2.4945e-09
-3.15074e-07
5.23182e-11
-3.13699e-07
-2.44682e-09
-3.10965e-07
-4.98197e-09
-3.06866e-07
-7.53016e-09
-3.0141e-07
-1.00666e-08
-2.94618e-07
-1.25648e-08
-2.86528e-07
-1.49972e-08
-2.77191e-07
-1.73351e-08
-2.66672e-07
-1.95495e-08
-2.55055e-07
-2.16116e-08
-2.42436e-07
-2.3493e-08
-2.28925e-07
-2.51664e-08
-2.14647e-07
-2.66062e-08
-1.99737e-07
-2.77893e-08
-1.84343e-07
-2.86952e-08
-1.68619e-07
-2.93067e-08
-1.52729e-07
-2.96104e-08
-1.36839e-07
-2.95971e-08
-1.21118e-07
-2.92622e-08
-1.05737e-07
-2.86059e-08
-9.08619e-08
-2.76335e-08
-7.66526e-08
-2.63554e-08
-6.3262e-08
-2.47872e-08
-5.08311e-08
-2.29501e-08
-3.94869e-08
-2.08705e-08
-2.93393e-08
-1.85804e-08
-2.04779e-08
-1.61176e-08
-1.29687e-08
-1.35261e-08
-6.85073e-09
-1.08571e-08
-2.13119e-09
-8.17024e-09
1.21915e-09
-5.53554e-09
3.27232e-09
-3.03683e-09
4.15072e-09
-7.7594e-10
4.03631e-09
1.12146e-09
3.18102e-09
2.4993e-09
1.91747e-09
3.16515e-09
6.70823e-10
2.89045e-09
1.43021e-09
4.91832e-11
-1.1254e-09
-5.1857e-10
-5.85352e-10
-2.20606e-09
1.81195e-09
-5.32914e-09
5.30485e-09
-1.00653e-08
9.3771e-09
-1.64866e-08
1.36719e-08
-2.45857e-08
1.79448e-08
-3.42979e-08
2.20333e-08
-4.55192e-08
2.58343e-08
-5.81203e-08
2.92864e-08
-7.19568e-08
3.23578e-08
-8.68768e-08
3.50366e-08
-1.02727e-07
3.73245e-08
-1.19355e-07
3.92315e-08
-1.36613e-07
4.07727e-08
-1.54359e-07
4.19651e-08
-1.72456e-07
4.28263e-08
-1.90772e-07
4.33729e-08
-2.09182e-07
4.36199e-08
-2.27565e-07
4.35798e-08
-2.45803e-07
4.32629e-08
-2.63781e-07
4.2677e-08
-2.81388e-07
4.18278e-08
-2.98514e-07
4.07189e-08
-3.15049e-07
3.93528e-08
-3.30885e-07
3.77307e-08
-3.45915e-07
3.58539e-08
-3.60032e-07
3.37234e-08
-3.73131e-07
3.13411e-08
-3.8511e-07
2.87104e-08
-3.95868e-07
2.58363e-08
-4.05309e-07
2.27262e-08
-4.13339e-07
1.93903e-08
-4.19874e-07
1.58419e-08
-4.24835e-07
1.20976e-08
-4.28151e-07
8.17796e-09
-4.29764e-07
4.10709e-09
-4.29625e-07
-8.68204e-11
-4.277e-07
-4.37209e-09
-4.23968e-07
-8.71323e-09
-4.18427e-07
-1.30713e-08
-4.11089e-07
-1.74044e-08
-4.01986e-07
-2.16681e-08
-3.91167e-07
-2.58159e-08
-3.78703e-07
-2.97998e-08
-3.64681e-07
-3.35716e-08
-3.49209e-07
-3.70828e-08
-3.32416e-07
-4.02863e-08
-3.14446e-07
-4.31369e-08
-2.9546e-07
-4.55921e-08
-2.75636e-07
-4.76133e-08
-2.55164e-07
-4.91667e-08
-2.34247e-07
-5.02239e-08
-2.13095e-07
-5.07627e-08
-1.91924e-07
-5.07681e-08
-1.70953e-07
-5.02327e-08
-1.50402e-07
-4.9157e-08
-1.30485e-07
-4.75501e-08
-1.11411e-07
-4.54297e-08
-9.33757e-08
-4.28226e-08
-7.65613e-08
-3.97645e-08
-6.11316e-08
-3.63002e-08
-4.72278e-08
-3.24842e-08
-3.4965e-08
-2.83804e-08
-2.44277e-08
-2.40634e-08
-1.56655e-08
-1.96194e-08
-8.68814e-09
-1.51476e-08
-3.4599e-09
-1.07638e-08
1.0643e-10
-6.60316e-09
2.15678e-09
-2.82629e-09
2.90348e-09
3.74759e-10
2.63394e-09
2.76883e-09
1.72025e-09
4.07884e-09
6.35354e-10
3.97535e-09
2.06556e-09
-3.09074e-10
-8.16274e-10
-1.77306e-09
8.78667e-10
-4.7883e-09
4.82718e-09
-9.61149e-09
1.0128e-08
-1.63845e-08
1.61501e-08
-2.51559e-08
2.24432e-08
-3.59003e-08
2.86892e-08
-4.85367e-08
3.46697e-08
-6.29435e-08
4.02411e-08
-7.89716e-08
4.53146e-08
-9.64548e-08
4.9841e-08
-1.15217e-07
5.37993e-08
-1.3508e-07
5.71874e-08
-1.55865e-07
6.0016e-08
-1.77395e-07
6.23032e-08
-1.99501e-07
6.40709e-08
-2.22017e-07
6.53423e-08
-2.44784e-07
6.61398e-08
-2.67648e-07
6.64836e-08
-2.90459e-07
6.63912e-08
-3.13073e-07
6.58771e-08
-3.35349e-07
6.49524e-08
-3.57147e-07
6.36255e-08
-3.7833e-07
6.19023e-08
-3.98764e-07
5.97867e-08
-4.18315e-07
5.72817e-08
-4.36851e-07
5.43897e-08
-4.54241e-07
5.11136e-08
-4.70357e-07
4.74575e-08
-4.85074e-07
4.34275e-08
-4.98271e-07
3.90325e-08
-5.09829e-07
3.42849e-08
-5.1964e-07
2.92011e-08
-5.276e-07
2.38021e-08
-5.33617e-07
1.81141e-08
-5.37607e-07
1.21684e-08
-5.39502e-07
6.00207e-09
-5.39247e-07
-3.42446e-10
-5.36801e-07
-6.81718e-09
-5.32146e-07
-1.33689e-08
-5.25278e-07
-1.99395e-08
-5.16215e-07
-2.64667e-08
-5.04999e-07
-3.28842e-08
-4.91692e-07
-3.91235e-08
-4.76378e-07
-4.51136e-08
-4.59166e-07
-5.07832e-08
-4.40188e-07
-5.60611e-08
-4.19596e-07
-6.08779e-08
-3.97566e-07
-6.51672e-08
-3.74291e-07
-6.88666e-08
-3.49985e-07
-7.19195e-08
-3.24876e-07
-7.42762e-08
-2.99205e-07
-7.58952e-08
-2.73223e-07
-7.6744e-08
-2.47191e-07
-7.68007e-08
-2.21369e-07
-7.60545e-08
-1.9602e-07
-7.45064e-08
-1.714e-07
-7.21701e-08
-1.47757e-07
-6.9072e-08
-1.25328e-07
-6.52519e-08
-1.04329e-07
-6.0763e-08
-8.49574e-08
-5.56723e-08
-6.7381e-08
-5.00605e-08
-5.17386e-08
-4.40229e-08
-3.8132e-08
-3.767e-08
-2.66225e-08
-3.11288e-08
-1.72253e-08
-2.45448e-08
-9.904e-09
-1.80851e-08
-4.56491e-09
-1.19423e-08
-1.05105e-09
-6.34015e-09
8.64382e-10
-1.54068e-09
1.48491e-09
2.14831e-09
1.1992e-09
4.36455e-09
4.96234e-10
4.67831e-09
2.56179e-09
-7.02518e-10
-1.13697e-10
-3.16165e-09
3.33783e-09
-7.64539e-09
9.3109e-09
-1.43267e-08
1.68093e-08
-2.32909e-08
2.51142e-08
-3.45468e-08
3.36991e-08
-4.80398e-08
4.21822e-08
-6.36652e-08
5.0295e-08
-8.12805e-08
5.78564e-08
-1.00717e-07
6.47507e-08
-1.21787e-07
7.09115e-08
-1.44295e-07
7.63073e-08
-1.68039e-07
8.09318e-08
-1.92819e-07
8.47952e-08
-2.18434e-07
8.79182e-08
-2.4469e-07
9.0327e-08
-2.71397e-07
9.20499e-08
-2.98372e-07
9.31147e-08
-3.25436e-07
9.35471e-08
-3.52414e-07
9.33695e-08
-3.79138e-07
9.26005e-08
-4.0544e-07
9.12549e-08
-4.31159e-07
8.93441e-08
-4.56133e-07
8.68763e-08
-4.80203e-07
8.38576e-08
-5.03215e-07
8.02929e-08
-5.25012e-07
7.61866e-08
-5.45442e-07
7.15441e-08
-5.64357e-07
6.63725e-08
-5.81611e-07
6.06817e-08
-5.97064e-07
5.44855e-08
-6.10582e-07
4.78025e-08
-6.22038e-07
4.0657e-08
-6.31315e-07
3.30793e-08
-6.38308e-07
2.51068e-08
-6.42923e-07
1.67839e-08
-6.45083e-07
8.16238e-09
-6.44728e-07
-6.9826e-10
-6.41813e-07
-9.73145e-09
-6.36319e-07
-1.88636e-08
-6.28244e-07
-2.80145e-08
-6.17612e-07
-3.70985e-08
-6.04471e-07
-4.60251e-08
-5.88895e-07
-5.46999e-08
-5.70982e-07
-6.30265e-08
-5.50857e-07
-7.09073e-08
-5.28673e-07
-7.82455e-08
-5.04605e-07
-8.49464e-08
-4.78852e-07
-9.09196e-08
-4.51638e-07
-9.60804e-08
-4.23206e-07
-1.00352e-07
-3.93816e-07
-1.03666e-07
-3.63745e-07
-1.05967e-07
-3.33279e-07
-1.0721e-07
-3.02714e-07
-1.07365e-07
-2.7235e-07
-1.06418e-07
-2.42486e-07
-1.04371e-07
-2.13416e-07
-1.01241e-07
-1.85423e-07
-9.70644e-08
-1.58779e-07
-9.18966e-08
-1.33731e-07
-8.58101e-08
-1.10507e-07
-7.88966e-08
-8.93009e-08
-7.12666e-08
-7.02733e-08
-6.30506e-08
-5.35442e-08
-5.43991e-08
-3.91886e-08
-4.54844e-08
-2.72306e-08
-3.65028e-08
-1.7639e-08
-2.76768e-08
-1.03213e-08
-1.92599e-08
-5.11942e-09
-1.1542e-08
-1.80432e-09
-4.85578e-09
-7.07454e-11
4.14735e-10
4.68992e-10
3.82481e-09
2.95137e-10
4.85217e-09
2.85693e-09
-1.10814e-09
9.94502e-10
-4.60974e-09
6.83945e-09
-1.06395e-08
1.53407e-08
-1.92741e-08
2.54439e-08
-3.05284e-08
3.63685e-08
-4.43593e-08
4.753e-08
-6.06732e-08
5.84961e-08
-7.93348e-08
6.89566e-08
-1.00176e-07
7.86981e-08
-1.23007e-07
8.75813e-08
-1.47619e-07
9.55238e-08
-1.73797e-07
1.02485e-07
-2.01318e-07
1.08453e-07
-2.29962e-07
1.13439e-07
-2.59508e-07
1.17465e-07
-2.89741e-07
1.2056e-07
-3.20451e-07
1.22759e-07
-3.51431e-07
1.24095e-07
-3.82481e-07
1.24597e-07
-4.13406e-07
1.24294e-07
-4.44014e-07
1.23208e-07
-4.74116e-07
1.21358e-07
-5.03529e-07
1.18757e-07
-5.32071e-07
1.15418e-07
-5.59561e-07
1.11348e-07
-5.85822e-07
1.06554e-07
-6.10681e-07
1.01045e-07
-6.33964e-07
9.48277e-08
-6.55505e-07
8.79135e-08
-6.7514e-07
8.0317e-08
-6.92713e-07
7.20581e-08
-7.08073e-07
6.31628e-08
-7.21081e-07
5.36644e-08
-7.31605e-07
4.36042e-08
-7.39531e-07
3.30322e-08
-7.44755e-07
2.20079e-08
-7.47192e-07
1.05998e-08
-7.46777e-07
-1.11373e-09
-7.43463e-07
-1.30453e-08
-7.37228e-07
-2.50986e-08
-7.28073e-07
-3.71691e-08
-7.16027e-07
-4.91454e-08
-7.01142e-07
-6.09097e-08
-6.83502e-07
-7.23401e-08
-6.63217e-07
-8.33113e-08
-6.40427e-07
-9.36973e-08
-6.153e-07
-1.03373e-07
-5.88031e-07
-1.12216e-07
-5.58841e-07
-1.20109e-07
-5.27979e-07
-1.26943e-07
-4.95712e-07
-1.32618e-07
-4.62331e-07
-1.37048e-07
-4.2814e-07
-1.40158e-07
-3.93458e-07
-1.41891e-07
-3.58615e-07
-1.42209e-07
-3.23941e-07
-1.41092e-07
-2.89771e-07
-1.38541e-07
-2.56431e-07
-1.34581e-07
-2.24238e-07
-1.29257e-07
-1.93495e-07
-1.2264e-07
-1.6448e-07
-1.14824e-07
-1.37449e-07
-1.05928e-07
-1.1262e-07
-9.6095e-08
-9.01783e-08
-8.54925e-08
-7.02625e-08
-7.43149e-08
-5.29638e-08
-6.27831e-08
-3.83197e-08
-5.11469e-08
-2.63089e-08
-3.96875e-08
-1.68474e-08
-2.87214e-08
-9.78398e-09
-1.86054e-08
-4.89671e-09
-9.74305e-09
-1.88967e-09
-2.59231e-09
-3.89474e-10
2.32461e-09
5.9258e-11
4.40343e-09
2.91619e-09
-1.51361e-09
2.50818e-09
-6.07317e-09
1.1399e-08
-1.36836e-08
2.29511e-08
-2.43203e-08
3.60805e-08
-3.79197e-08
4.99679e-08
-5.43787e-08
6.39889e-08
-7.35568e-08
7.76742e-08
-9.52822e-08
9.0682e-08
-1.19358e-07
1.02774e-07
-1.45567e-07
1.13791e-07
-1.73682e-07
1.23638e-07
-2.03465e-07
1.32268e-07
-2.34676e-07
1.39665e-07
-2.67076e-07
1.45839e-07
-3.00426e-07
1.50815e-07
-3.34492e-07
1.54627e-07
-3.69045e-07
1.57313e-07
-4.03861e-07
1.5891e-07
-4.38719e-07
1.59456e-07
-4.73405e-07
1.5898e-07
-5.07709e-07
1.57511e-07
-5.41422e-07
1.55071e-07
-5.74342e-07
1.51677e-07
-6.06267e-07
1.47342e-07
-6.36998e-07
1.42079e-07
-6.66341e-07
1.35897e-07
-6.94101e-07
1.28806e-07
-7.20092e-07
1.20818e-07
-7.44127e-07
1.11949e-07
-7.66028e-07
1.02218e-07
-7.85624e-07
9.16534e-08
-8.0275e-07
8.02885e-08
-8.17252e-07
6.81673e-08
-8.28992e-07
5.53432e-08
-8.3784e-07
4.18805e-08
-8.43687e-07
2.78548e-08
-8.4644e-07
1.33533e-08
-8.46029e-07
-1.52519e-09
-8.42404e-07
-1.66705e-08
-8.3554e-07
-3.19619e-08
-8.25441e-07
-4.72684e-08
-8.12136e-07
-6.24505e-08
-7.95684e-07
-7.73616e-08
-7.76175e-07
-9.18492e-08
-7.53728e-07
-1.05758e-07
-7.28496e-07
-1.1893e-07
-7.00658e-07
-1.3121e-07
-6.70428e-07
-1.42446e-07
-6.38044e-07
-1.52492e-07
-6.03775e-07
-1.61212e-07
-5.67913e-07
-1.68481e-07
-5.3077e-07
-1.7419e-07
-4.9268e-07
-1.78248e-07
-4.53989e-07
-1.80582e-07
-4.15054e-07
-1.81144e-07
-3.76239e-07
-1.79907e-07
-3.37907e-07
-1.76873e-07
-3.00416e-07
-1.72071e-07
-2.64116e-07
-1.65557e-07
-2.29338e-07
-1.57418e-07
-1.96391e-07
-1.47771e-07
-1.65557e-07
-1.36762e-07
-1.37084e-07
-1.24569e-07
-1.11177e-07
-1.11399e-07
-8.79987e-08
-9.74931e-08
-6.76596e-08
-8.31223e-08
-5.02139e-08
-6.85926e-08
-3.56558e-08
-5.42456e-08
-2.39151e-08
-4.04621e-08
-1.48543e-08
-2.76662e-08
-8.26606e-09
-1.63313e-08
-3.87193e-09
-6.98644e-09
-1.32175e-09
-2.25564e-10
-1.94185e-10
3.27586e-09
2.722e-09
-1.91247e-09
4.42071e-09
-7.52623e-09
1.70128e-08
-1.67233e-08
3.21482e-08
-2.93777e-08
4.87348e-08
-4.53439e-08
6.5934e-08
-6.44531e-08
8.3098e-08
-8.65129e-08
9.9734e-08
-1.1131e-07
1.15479e-07
-1.38613e-07
1.30077e-07
-1.6818e-07
1.43357e-07
-1.99757e-07
1.55215e-07
-2.33088e-07
1.65598e-07
-2.67913e-07
1.7449e-07
-3.03976e-07
1.81901e-07
-3.41021e-07
1.8786e-07
-3.78798e-07
1.92404e-07
-4.17061e-07
1.95575e-07
-4.55568e-07
1.97418e-07
-4.94084e-07
1.97972e-07
-5.32377e-07
1.97273e-07
-5.7022e-07
1.95354e-07
-6.07388e-07
1.92239e-07
-6.4366e-07
1.87949e-07
-6.78819e-07
1.82501e-07
-7.12649e-07
1.7591e-07
-7.44939e-07
1.68187e-07
-7.75481e-07
1.59347e-07
-8.04068e-07
1.49406e-07
-8.30504e-07
1.38384e-07
-8.54593e-07
1.26307e-07
-8.7615e-07
1.13211e-07
-8.95e-07
9.91383e-08
-9.10977e-07
8.41445e-08
-9.2393e-07
6.8296e-08
-9.33722e-07
5.16726e-08
-9.40234e-07
3.43673e-08
-9.43368e-07
1.64872e-08
-9.43047e-07
-1.84688e-09
-9.39216e-07
-2.05007e-08
-9.31851e-07
-3.93273e-08
-9.20952e-07
-5.81677e-08
-9.06549e-07
-7.68528e-08
-8.88706e-07
-9.52048e-08
-8.67516e-07
-1.13039e-07
-8.43106e-07
-1.30168e-07
-8.15635e-07
-1.46401e-07
-7.85297e-07
-1.61549e-07
-7.52315e-07
-1.75428e-07
-7.16945e-07
-1.87861e-07
-6.79473e-07
-1.98684e-07
-6.40209e-07
-2.07745e-07
-5.99489e-07
-2.1491e-07
-5.57669e-07
-2.20068e-07
-5.15121e-07
-2.2313e-07
-4.72229e-07
-2.24035e-07
-4.29386e-07
-2.22751e-07
-3.86983e-07
-2.19276e-07
-3.45409e-07
-2.13644e-07
-3.05044e-07
-2.05922e-07
-2.6625e-07
-1.96213e-07
-2.29365e-07
-1.84656e-07
-1.947e-07
-1.71427e-07
-1.6253e-07
-1.56739e-07
-1.33088e-07
-1.40841e-07
-1.0656e-07
-1.24021e-07
-8.30798e-08
-1.06603e-07
-6.27224e-08
-8.89501e-08
-4.55018e-08
-7.14662e-08
-3.13671e-08
-5.45968e-08
-2.01999e-08
-3.88335e-08
-1.1813e-08
-2.47181e-08
-5.95128e-09
-1.28482e-08
-2.29308e-09
-3.88376e-09
-4.54825e-10
1.43761e-09
2.26718e-09
-2.30149e-09
6.72227e-09
-8.95413e-09
2.36655e-08
-1.9725e-08
4.2919e-08
-3.4389e-08
6.33987e-08
-5.27179e-08
8.42629e-08
-7.44747e-08
1.04855e-07
-9.94113e-08
1.24671e-07
-1.27269e-07
1.43337e-07
-1.57782e-07
1.6059e-07
-1.90675e-07
1.7625e-07
-2.25672e-07
1.90212e-07
-2.62493e-07
2.0242e-07
-3.00863e-07
2.12859e-07
-3.40505e-07
2.21544e-07
-3.8115e-07
2.28505e-07
-4.22531e-07
2.33785e-07
-4.64388e-07
2.37432e-07
-5.06466e-07
2.39495e-07
-5.48512e-07
2.40019e-07
-5.90283e-07
2.39044e-07
-6.31534e-07
2.36605e-07
-6.72027e-07
2.32732e-07
-7.11527e-07
2.27449e-07
-7.49801e-07
2.20775e-07
-7.86619e-07
2.12728e-07
-8.21756e-07
2.03324e-07
-8.54988e-07
1.92579e-07
-8.86097e-07
1.80515e-07
-9.14871e-07
1.67157e-07
-9.41102e-07
1.52539e-07
-9.64595e-07
1.36703e-07
-9.85159e-07
1.19703e-07
-1.00262e-06
1.01606e-07
-1.01682e-06
8.24922e-08
-1.0276e-06
6.24579e-08
-1.03485e-06
4.16146e-08
-1.03845e-06
2.009e-08
-1.03833e-06
-1.97181e-09
-1.03442e-06
-2.44114e-08
-1.02669e-06
-4.70542e-08
-1.01515e-06
-6.97121e-08
-9.99813e-07
-9.21848e-08
-9.80756e-07
-1.14262e-07
-9.5807e-07
-1.35725e-07
-9.31886e-07
-1.56352e-07
-9.0237e-07
-1.75917e-07
-8.69722e-07
-1.94197e-07
-8.34177e-07
-2.10973e-07
-7.96003e-07
-2.26035e-07
-7.555e-07
-2.39188e-07
-7.12995e-07
-2.5025e-07
-6.68842e-07
-2.59062e-07
-6.23421e-07
-2.6549e-07
-5.77126e-07
-2.69426e-07
-5.30366e-07
-2.70794e-07
-4.83562e-07
-2.69555e-07
-4.37134e-07
-2.65704e-07
-3.91501e-07
-2.59277e-07
-3.47071e-07
-2.50351e-07
-3.0424e-07
-2.39045e-07
-2.63376e-07
-2.2552e-07
-2.2482e-07
-2.09983e-07
-1.88878e-07
-1.92681e-07
-1.55811e-07
-1.73908e-07
-1.25834e-07
-1.53998e-07
-9.91049e-08
-1.33331e-07
-7.57259e-08
-1.12329e-07
-5.57347e-08
-9.14574e-08
-3.91036e-08
-7.12278e-08
-2.5738e-08
-5.21992e-08
-1.54752e-08
-3.49808e-08
-8.08707e-09
-2.02364e-08
-3.28288e-09
-8.68796e-09
-7.16899e-10
-1.12837e-09
1.55028e-09
-2.67918e-09
9.40152e-09
-1.03485e-08
3.13348e-08
-2.26676e-08
5.52381e-08
-3.93165e-08
8.00476e-08
-5.9985e-08
1.04931e-07
-8.43668e-08
1.29237e-07
-1.12157e-07
1.5246e-07
-1.43049e-07
1.74229e-07
-1.76737e-07
1.94278e-07
-2.12917e-07
2.1243e-07
-2.51284e-07
2.28579e-07
-2.91538e-07
2.42674e-07
-3.33383e-07
2.54704e-07
-3.76527e-07
2.64688e-07
-4.20684e-07
2.72662e-07
-4.65575e-07
2.78676e-07
-5.10926e-07
2.82783e-07
-5.56468e-07
2.85037e-07
-6.01938e-07
2.85488e-07
-6.47076e-07
2.84182e-07
-6.91627e-07
2.81157e-07
-7.35341e-07
2.76446e-07
-7.77969e-07
2.70077e-07
-8.19265e-07
2.62072e-07
-8.58988e-07
2.52451e-07
-8.96898e-07
2.41234e-07
-9.3276e-07
2.28441e-07
-9.66343e-07
2.14099e-07
-9.97423e-07
1.98237e-07
-1.02578e-06
1.80898e-07
-1.05121e-06
1.62131e-07
-1.07351e-06
1.42002e-07
-1.09249e-06
1.2059e-07
-1.10799e-06
9.79887e-08
-1.11984e-06
7.43119e-08
-1.12792e-06
4.96902e-08
-1.1321e-06
2.42728e-08
-1.1323e-06
-1.77267e-09
-1.12845e-06
-2.82603e-08
-1.12052e-06
-5.49873e-08
-1.1085e-06
-8.17351e-08
-1.09241e-06
-1.08271e-07
-1.07232e-06
-1.34351e-07
-1.04833e-06
-1.59721e-07
-1.02056e-06
-1.84122e-07
-9.89179e-07
-2.07293e-07
-9.54402e-07
-2.28974e-07
-9.16467e-07
-2.48908e-07
-8.7565e-07
-2.66852e-07
-8.32264e-07
-2.82574e-07
-7.86651e-07
-2.95863e-07
-7.39182e-07
-3.06531e-07
-6.90255e-07
-3.14417e-07
-6.40287e-07
-3.19393e-07
-5.89714e-07
-3.21368e-07
-5.38979e-07
-3.2029e-07
-4.88534e-07
-3.16149e-07
-4.38827e-07
-3.08984e-07
-3.90299e-07
-2.98879e-07
-3.43376e-07
-2.85968e-07
-2.9846e-07
-2.70436e-07
-2.55927e-07
-2.52516e-07
-2.16113e-07
-2.32495e-07
-1.79312e-07
-2.10708e-07
-1.45771e-07
-1.8754e-07
-1.15678e-07
-1.63424e-07
-8.91636e-08
-1.38843e-07
-6.62944e-08
-1.14327e-07
-4.707e-08
-9.04521e-08
-3.14231e-08
-6.78461e-08
-1.92188e-08
-4.71852e-08
-1.02576e-08
-2.91975e-08
-4.2807e-09
-1.46649e-08
-9.77727e-10
-4.43134e-09
5.72548e-10
-3.04488e-09
1.24465e-08
-1.17044e-08
3.99944e-08
-2.55381e-08
6.90718e-08
-4.41351e-08
9.86445e-08
-6.71053e-08
1.27901e-07
-9.40739e-08
1.56205e-07
-1.24677e-07
1.83064e-07
-1.58562e-07
2.08114e-07
-1.95382e-07
2.31098e-07
-2.34798e-07
2.51846e-07
-2.76479e-07
2.70261e-07
-3.20103e-07
2.86298e-07
-3.65354e-07
2.99955e-07
-4.11923e-07
3.11257e-07
-4.59512e-07
3.20251e-07
-5.07826e-07
3.2699e-07
-5.5658e-07
3.31537e-07
-6.05493e-07
3.3395e-07
-6.54292e-07
3.34286e-07
-7.02705e-07
3.32595e-07
-7.50467e-07
3.28919e-07
-7.97316e-07
3.23295e-07
-8.42993e-07
3.15753e-07
-8.87241e-07
3.06319e-07
-9.29807e-07
2.95017e-07
-9.70441e-07
2.81867e-07
-1.0089e-06
2.66897e-07
-1.04493e-06
2.50134e-07
-1.07831e-06
2.31618e-07
-1.10881e-06
2.11394e-07
-1.1362e-06
1.89524e-07
-1.16028e-06
1.66082e-07
-1.18085e-06
1.4116e-07
-1.19773e-06
1.14867e-07
-1.21075e-06
8.7334e-08
-1.21977e-06
5.87104e-08
-1.22467e-06
2.91675e-08
-1.22534e-06
-1.10272e-09
-1.22171e-06
-3.18878e-08
-1.21374e-06
-6.29559e-08
-1.20142e-06
-9.40571e-08
-1.18476e-06
-1.24926e-07
-1.16383e-06
-1.55282e-07
-1.13872e-06
-1.84836e-07
-1.10955e-06
-2.13292e-07
-1.07649e-06
-2.40348e-07
-1.03976e-06
-2.65705e-07
-9.99599e-07
-2.89071e-07
-9.56289e-07
-3.10162e-07
-9.10153e-07
-3.28711e-07
-8.61545e-07
-3.44471e-07
-8.10853e-07
-3.57223e-07
-7.58492e-07
-3.66778e-07
-7.04901e-07
-3.72985e-07
-6.50537e-07
-3.75732e-07
-5.95873e-07
-3.74954e-07
-5.41388e-07
-3.70634e-07
-4.87563e-07
-3.6281e-07
-4.34871e-07
-3.51571e-07
-3.83772e-07
-3.37067e-07
-3.34706e-07
-3.19502e-07
-2.88082e-07
-2.9914e-07
-2.44274e-07
-2.76303e-07
-2.03612e-07
-2.5137e-07
-1.66377e-07
-2.24775e-07
-1.32792e-07
-1.97009e-07
-1.03022e-07
-1.68614e-07
-7.71631e-08
-1.40185e-07
-5.52479e-08
-1.12367e-07
-3.72388e-08
-8.58552e-08
-2.30311e-08
-6.13929e-08
-1.24553e-08
-3.97732e-08
-5.28328e-09
-2.18369e-08
-1.2367e-09
-8.47792e-09
-6.6415e-10
-3.39834e-09
1.58449e-08
-1.30191e-08
4.96153e-08
-2.83278e-08
8.43804e-08
-4.88271e-08
1.19144e-07
-7.405e-08
1.53124e-07
-1.03554e-07
1.85709e-07
-1.36919e-07
2.16429e-07
-1.73742e-07
2.44936e-07
-2.13635e-07
2.70991e-07
-2.56227e-07
2.94438e-07
-3.01159e-07
3.15193e-07
-3.48085e-07
3.33224e-07
-3.9667e-07
3.48539e-07
-4.46589e-07
3.61177e-07
-4.97529e-07
3.71191e-07
-5.49184e-07
3.78646e-07
-6.01258e-07
3.83611e-07
-6.53459e-07
3.86152e-07
-7.05504e-07
3.86331e-07
-7.57112e-07
3.84203e-07
-8.08009e-07
3.79816e-07
-8.57924e-07
3.7321e-07
-9.06588e-07
3.64417e-07
-9.53734e-07
3.53466e-07
-9.99102e-07
3.40384e-07
-1.04243e-06
3.25196e-07
-1.08346e-06
3.07931e-07
-1.12195e-06
2.88622e-07
-1.15765e-06
2.67314e-07
-1.19032e-06
2.44061e-07
-1.21972e-06
2.18931e-07
-1.24565e-06
1.9201e-07
-1.26789e-06
1.63402e-07
-1.28626e-06
1.33231e-07
-1.30057e-06
1.01645e-07
-1.31067e-06
6.88122e-08
-1.31643e-06
3.49261e-08
-1.31774e-06
2.03206e-10
-1.31451e-06
-3.51172e-08
-1.30669e-06
-7.07739e-08
-1.29426e-06
-1.06485e-07
-1.27723e-06
-1.41952e-07
-1.25566e-06
-1.76857e-07
-1.22962e-06
-2.10875e-07
-1.19924e-06
-2.43668e-07
-1.1647e-06
-2.74896e-07
-1.12618e-06
-3.04219e-07
-1.08395e-06
-3.31302e-07
-1.03829e-06
-3.55823e-07
-9.89527e-07
-3.77473e-07
-9.38028e-07
-3.95971e-07
-8.84191e-07
-4.11059e-07
-8.2845e-07
-4.2252e-07
-7.71263e-07
-4.30172e-07
-7.13112e-07
-4.33882e-07
-6.54497e-07
-4.33569e-07
-5.95926e-07
-4.29205e-07
-5.37913e-07
-4.20823e-07
-4.80966e-07
-4.08518e-07
-4.25583e-07
-3.9245e-07
-3.72242e-07
-3.72843e-07
-3.21392e-07
-3.4999e-07
-2.73447e-07
-3.24248e-07
-2.28777e-07
-2.9604e-07
-1.87702e-07
-2.65851e-07
-1.50484e-07
-2.34227e-07
-1.17324e-07
-2.01774e-07
-8.83563e-08
-1.69153e-07
-6.36468e-08
-1.37077e-07
-4.3191e-08
-1.06311e-07
-2.6916e-08
-7.7668e-08
-1.46827e-08
-5.20065e-08
-6.29237e-09
-3.02273e-08
-1.49463e-09
-1.32757e-08
-2.15878e-09
-3.73941e-09
1.95844e-08
-1.42906e-08
6.01665e-08
-3.10305e-08
1.0112e-07
-5.33798e-08
1.41493e-07
-8.07975e-08
1.80542e-07
-1.12776e-07
2.17688e-07
-1.48838e-07
2.52491e-07
-1.88533e-07
2.84631e-07
-2.31432e-07
3.13891e-07
-2.77131e-07
3.40137e-07
-3.25241e-07
3.63304e-07
-3.75395e-07
3.83377e-07
-4.27237e-07
4.00382e-07
-4.80428e-07
4.14368e-07
-5.3464e-07
4.25403e-07
-5.89556e-07
4.33562e-07
-6.4487e-07
4.38924e-07
-7.0028e-07
4.41562e-07
-7.55496e-07
4.41546e-07
-8.10229e-07
4.38936e-07
-8.64196e-07
4.33784e-07
-9.17119e-07
4.26132e-07
-9.68721e-07
4.16019e-07
-1.01873e-06
4.03474e-07
-1.06687e-06
3.88527e-07
-1.11288e-06
3.71207e-07
-1.1565e-06
3.51545e-07
-1.19745e-06
3.2958e-07
-1.2355e-06
3.05362e-07
-1.27039e-06
2.7895e-07
-1.30188e-06
2.50422e-07
-1.32975e-06
2.19874e-07
-1.35377e-06
1.87422e-07
-1.37374e-06
1.53204e-07
-1.38948e-06
1.17384e-07
-1.40082e-06
8.01508e-08
-1.40761e-06
4.17183e-08
-1.40973e-06
2.32754e-09
-1.40709e-06
-3.77555e-08
-1.39963e-06
-7.824e-08
-1.3873e-06
-1.18813e-07
-1.37011e-06
-1.59139e-07
-1.3481e-06
-1.98867e-07
-1.32135e-06
-2.37629e-07
-1.28997e-06
-2.75051e-07
-1.25412e-06
-3.10748e-07
-1.214e-06
-3.44337e-07
-1.16986e-06
-3.75441e-07
-1.12199e-06
-4.03693e-07
-1.07072e-06
-4.28743e-07
-1.01642e-06
-4.50266e-07
-9.59514e-07
-4.6797e-07
-9.00436e-07
-4.81597e-07
-8.3967e-07
-4.90938e-07
-7.77721e-07
-4.95832e-07
-7.15115e-07
-4.96175e-07
-6.52392e-07
-4.91927e-07
-5.90102e-07
-4.83114e-07
-5.28789e-07
-4.69831e-07
-4.68992e-07
-4.52246e-07
-4.11231e-07
-4.30604e-07
-3.55999e-07
-4.05223e-07
-3.03753e-07
-3.76494e-07
-2.54908e-07
-3.44884e-07
-2.09829e-07
-3.1093e-07
-1.6882e-07
-2.75236e-07
-1.32124e-07
-2.3847e-07
-9.99157e-08
-2.01361e-07
-7.22981e-08
-1.64694e-07
-4.93027e-08
-1.29306e-07
-3.08894e-08
-9.60813e-08
-1.695e-08
-6.59459e-08
-7.31331e-09
-3.9864e-08
-1.75329e-09
-1.88357e-08
-3.91207e-09
-4.06796e-09
2.36525e-08
-1.55173e-08
7.16159e-08
-3.36412e-08
1.19244e-07
-5.77825e-08
1.65634e-07
-8.73296e-08
2.10089e-07
-1.21712e-07
2.5207e-07
-1.60398e-07
2.91176e-07
-2.02888e-07
3.27121e-07
-2.48716e-07
3.59718e-07
-2.97441e-07
3.88863e-07
-3.4865e-07
4.14513e-07
-4.0195e-07
4.36677e-07
-4.56968e-07
4.55399e-07
-5.13349e-07
4.70748e-07
-5.70751e-07
4.82805e-07
-6.28848e-07
4.91659e-07
-6.87324e-07
4.97399e-07
-7.45869e-07
5.00108e-07
-8.04186e-07
4.99863e-07
-8.61978e-07
4.96729e-07
-9.18958e-07
4.90764e-07
-9.74841e-07
4.82014e-07
-1.02934e-06
4.7052e-07
-1.08218e-06
4.56316e-07
-1.13309e-06
4.39431e-07
-1.18178e-06
4.19899e-07
-1.22799e-06
3.97754e-07
-1.27145e-06
3.7304e-07
-1.3119e-06
3.45808e-07
-1.34907e-06
3.16127e-07
-1.38273e-06
2.84082e-07
-1.41264e-06
2.49777e-07
-1.43855e-06
2.13341e-07
-1.46027e-06
1.74924e-07
-1.4776e-06
1.34708e-07
-1.49035e-06
9.28979e-08
-1.49836e-06
4.97301e-08
-1.5015e-06
5.46872e-09
-1.49966e-06
-3.95938e-08
-1.49276e-06
-8.51375e-08
-1.48076e-06
-1.30817e-07
-1.46363e-06
-1.76263e-07
-1.44141e-06
-2.21087e-07
-1.41416e-06
-2.64882e-07
-1.38198e-06
-3.07229e-07
-1.34503e-06
-3.47703e-07
-1.30349e-06
-3.85874e-07
-1.25761e-06
-4.21319e-07
-1.20768e-06
-4.53625e-07
-1.15403e-06
-4.82395e-07
-1.09703e-06
-5.07261e-07
-1.03712e-06
-5.27885e-07
-9.74744e-07
-5.43971e-07
-9.10408e-07
-5.55274e-07
-8.4464e-07
-5.616e-07
-7.77993e-07
-5.62822e-07
-7.11042e-07
-5.58879e-07
-6.4437e-07
-5.49786e-07
-5.78564e-07
-5.35636e-07
-5.14206e-07
-5.16605e-07
-4.51861e-07
-4.92949e-07
-3.9207e-07
-4.65013e-07
-3.3534e-07
-4.33223e-07
-2.82136e-07
-3.98089e-07
-2.3287e-07
-3.60197e-07
-1.87895e-07
-3.20211e-07
-1.475e-07
-2.78865e-07
-1.11904e-07
-2.36957e-07
-8.12504e-08
-1.95348e-07
-5.56097e-08
-1.54947e-07
-3.49764e-08
-1.16715e-07
-1.92728e-08
-8.16495e-08
-8.35405e-09
-5.07827e-08
-2.01506e-09
-2.51747e-08
-5.92713e-09
-4.38375e-09
2.80363e-08
-1.66975e-08
8.39297e-08
-3.61552e-08
1.38702e-07
-6.20259e-08
1.91505e-07
-9.36306e-08
2.41694e-07
-1.30339e-07
2.88779e-07
-1.71565e-07
3.32403e-07
-2.16766e-07
3.72322e-07
-2.65434e-07
4.08387e-07
-3.17099e-07
4.40527e-07
-3.71317e-07
4.68731e-07
-4.27675e-07
4.93035e-07
-4.85781e-07
5.13505e-07
-5.45264e-07
5.30231e-07
-6.05772e-07
5.43313e-07
-6.66967e-07
5.52855e-07
-7.28525e-07
5.58957e-07
-7.90132e-07
5.61715e-07
-8.5148e-07
5.61211e-07
-9.12271e-07
5.5752e-07
-9.72211e-07
5.50703e-07
-1.03101e-06
5.40812e-07
-1.08838e-06
5.27889e-07
-1.14403e-06
5.11971e-07
-1.19769e-06
4.9309e-07
-1.24907e-06
4.71282e-07
-1.2979e-06
4.46584e-07
-1.34391e-06
4.19042e-07
-1.38681e-06
3.88713e-07
-1.42636e-06
3.55671e-07
-1.46228e-06
3.20007e-07
-1.49434e-06
2.81835e-07
-1.52229e-06
2.41292e-07
-1.54591e-06
1.98544e-07
-1.56499e-06
1.53785e-07
-1.57933e-06
1.07239e-07
-1.58876e-06
5.91614e-08
-1.59313e-06
9.83943e-09
-1.59232e-06
-4.04089e-08
-1.58622e-06
-9.12351e-08
-1.57477e-06
-1.42262e-07
-1.55795e-06
-1.93086e-07
-1.53576e-06
-2.43281e-07
-1.50824e-06
-2.92399e-07
-1.47549e-06
-3.39978e-07
-1.43764e-06
-3.85548e-07