/*--------------------------------*- C++ -*----------------------------------*\
  =========                 |
  \\      /  F ield         | OpenFOAM: The Open Source CFD Toolbox
   \\    /   O peration     | Website:  https://openfoam.org
    \\  /    A nd           | Version:  12
     \\/     M anipulation  |
\*---------------------------------------------------------------------------*/
FoamFile
{
    format      ascii;
    class       volScalarField;
    location    "9";
    object      k;
}
// * * * * * * * * * * * * * * * * * * * * * * * * * * * * * * * * * * * * * //

dimensions      [0 2 -2 0 0 0 0];

internalField   nonuniform List<scalar> 
18225
(
4.09856e-10
2.77383e-09
6.18365e-09
1.02582e-08
1.48218e-08
1.97628e-08
2.49973e-08
3.04557e-08
3.60775e-08
4.18084e-08
4.76003e-08
5.34111e-08
5.92055e-08
6.49556e-08
7.06422e-08
7.62559e-08
8.17973e-08
8.72789e-08
9.27246e-08
9.81714e-08
1.03669e-07
1.09282e-07
1.15088e-07
1.21179e-07
1.27664e-07
1.34667e-07
1.42329e-07
1.50809e-07
1.60283e-07
1.70948e-07
1.83019e-07
1.96732e-07
2.12347e-07
2.30141e-07
2.50415e-07
2.73492e-07
2.99713e-07
3.29441e-07
3.63056e-07
4.00957e-07
4.43556e-07
4.9128e-07
5.44565e-07
6.03857e-07
6.6961e-07
7.42282e-07
8.22334e-07
9.10228e-07
1.00643e-06
1.11139e-06
1.22558e-06
1.34944e-06
1.48341e-06
1.62793e-06
1.78342e-06
1.95026e-06
2.12886e-06
2.31956e-06
2.52269e-06
2.73857e-06
2.96748e-06
3.20965e-06
3.46531e-06
3.73464e-06
4.0178e-06
4.31492e-06
4.62608e-06
4.95136e-06
5.2908e-06
5.6444e-06
6.01216e-06
6.39404e-06
6.78997e-06
7.19985e-06
7.62356e-06
8.06092e-06
8.51173e-06
8.97571e-06
9.45255e-06
9.94183e-06
1.04431e-05
1.09557e-05
1.14789e-05
1.2012e-05
1.25537e-05
1.31029e-05
1.36581e-05
1.42176e-05
1.47792e-05
1.53405e-05
1.58986e-05
1.64503e-05
1.69915e-05
1.75181e-05
1.80249e-05
1.85064e-05
1.89562e-05
1.93675e-05
1.97322e-05
2.0042e-05
2.02875e-05
2.04537e-05
2.05312e-05
2.05413e-05
2.04518e-05
2.02508e-05
1.99338e-05
1.94983e-05
1.89431e-05
1.82696e-05
1.74825e-05
1.65899e-05
1.56039e-05
1.45398e-05
1.34162e-05
1.22539e-05
1.10751e-05
9.90227e-06
8.75674e-06
7.65785e-06
6.6219e-06
5.66149e-06
4.7852e-06
3.99758e-06
3.29943e-06
2.6883e-06
2.15917e-06
1.70519e-06
1.31826e-06
9.89916e-07
7.12035e-07
4.77633e-07
2.82047e-07
1.25178e-07
1.84632e-08
3.09784e-09
2.47039e-08
5.54885e-08
9.22044e-08
1.33305e-07
1.77795e-07
2.24923e-07
2.74063e-07
3.24672e-07
3.76262e-07
4.28399e-07
4.80705e-07
5.32861e-07
5.84617e-07
6.358e-07
6.86323e-07
7.36195e-07
7.85524e-07
8.34528e-07
8.83539e-07
9.33007e-07
9.83505e-07
1.03573e-06
1.09053e-06
1.14887e-06
1.21187e-06
1.28079e-06
1.35707e-06
1.4423e-06
1.53823e-06
1.64681e-06
1.77018e-06
1.91065e-06
2.07073e-06
2.25313e-06
2.46074e-06
2.69665e-06
2.96411e-06
3.26657e-06
3.60759e-06
3.99089e-06
4.42031e-06
4.89978e-06
5.43332e-06
6.025e-06
6.67895e-06
7.39932e-06
8.19027e-06
9.05597e-06
1.00006e-05
1.10281e-05
1.21428e-05
1.33484e-05
1.4649e-05
1.60482e-05
1.75497e-05
1.91569e-05
2.08731e-05
2.27012e-05
2.46439e-05
2.67039e-05
2.88832e-05
3.11839e-05
3.36077e-05
3.61559e-05
3.88296e-05
4.16297e-05
4.45568e-05
4.76112e-05
5.07931e-05
5.41024e-05
5.75386e-05
6.11013e-05
6.47894e-05
6.86019e-05
7.25371e-05
7.65933e-05
8.0768e-05
8.50582e-05
8.94605e-05
9.39703e-05
9.85823e-05
0.00010329
0.000108086
0.00011296
0.000117901
0.000122897
0.00012793
0.000132983
0.000138034
0.000143056
0.00014802
0.000152891
0.00015763
0.000162192
0.000166526
0.000170577
0.000174281
0.000177566
0.000180358
0.000182561
0.000184041
0.000184716
0.000184795
0.000183975
0.00018215
0.000179284
0.000175353
0.000170347
0.00016428
0.000157193
0.00014916
0.000140289
0.000130719
0.000120615
0.000110165
9.95682e-05
8.90247e-05
7.87271e-05
6.88487e-05
5.9536e-05
5.09019e-05
4.30238e-05
3.59425e-05
2.96652e-05
2.41702e-05
1.94123e-05
1.5329e-05
1.18489e-05
8.89612e-06
6.39714e-06
4.28883e-06
2.52868e-06
1.11406e-06
1.3949e-07
6.58074e-09
5.6431e-08
1.27576e-07
2.12435e-07
3.07413e-07
4.1021e-07
5.19091e-07
6.32615e-07
7.49523e-07
8.68691e-07
9.89118e-07
1.10993e-06
1.23038e-06
1.3499e-06
1.46808e-06
1.58473e-06
1.69985e-06
1.81371e-06
1.92681e-06
2.0399e-06
2.15403e-06
2.27052e-06
2.39099e-06
2.51737e-06
2.65191e-06
2.79718e-06
2.95612e-06
3.13201e-06
3.32854e-06
3.54977e-06
3.8002e-06
4.08473e-06
4.40872e-06
4.77798e-06
5.19876e-06
5.67775e-06
6.22207e-06
6.83926e-06
7.53725e-06
8.3243e-06
9.20901e-06
1.02003e-05
1.13071e-05
1.2539e-05
1.39051e-05
1.54152e-05
1.70788e-05
1.89056e-05
2.09052e-05
2.30873e-05
2.54613e-05
2.80367e-05
3.08228e-05
3.38286e-05
3.70628e-05
4.0534e-05
4.425e-05
4.82186e-05
5.24466e-05
5.69407e-05
6.17068e-05
6.675e-05
7.20752e-05
7.76863e-05
8.35866e-05
8.97789e-05
9.62653e-05
0.000103047
0.000110125
0.0001175
0.000125172
0.000133139
0.0001414
0.000149953
0.000158794
0.00016792
0.000177326
0.000187006
0.000196952
0.000207155
0.000217604
0.000228286
0.000239184
0.00025028
0.000261551
0.00027297
0.000284505
0.000296118
0.000307766
0.000319396
0.00033095
0.000342356
0.000353536
0.000364398
0.00037484
0.000384746
0.000393988
0.000402422
0.000409886
0.000416212
0.000421199
0.000424514
0.000425963
0.000426091
0.000424138
0.000419873
0.000413217
0.000404118
0.000392552
0.000378548
0.000362202
0.000343682
0.000323234
0.000301177
0.000277892
0.000253809
0.000229388
0.000205091
0.00018136
0.000158597
0.000137138
0.000117244
9.90923e-05
8.27777e-05
6.83165e-05
5.56581e-05
4.46982e-05
3.52937e-05
2.72783e-05
2.04764e-05
1.47189e-05
9.86011e-06
5.80213e-06
2.54004e-06
2.95783e-07
1.07641e-08
9.46076e-08
2.14915e-07
3.586e-07
5.19461e-07
6.93569e-07
8.77975e-07
1.07024e-06
1.26822e-06
1.47001e-06
1.67392e-06
1.87846e-06
2.08237e-06
2.28468e-06
2.48469e-06
2.68207e-06
2.87685e-06
3.06944e-06
3.26069e-06
3.4519e-06
3.64482e-06
3.84169e-06
4.04525e-06
4.25877e-06
4.48605e-06
4.73144e-06
4.99992e-06
5.29704e-06
5.62904e-06
6.0028e-06
6.42592e-06
6.90673e-06
7.45429e-06
8.07844e-06
8.78977e-06
9.59963e-06
1.05201e-05
1.15639e-05
1.27446e-05
1.40761e-05
1.55731e-05
1.72506e-05
1.9124e-05
2.12092e-05
2.35223e-05
2.60793e-05
2.88968e-05
3.19912e-05
3.53789e-05
3.90764e-05
4.30998e-05
4.74655e-05
5.21891e-05
5.72864e-05
6.27723e-05
6.86614e-05
7.49676e-05
8.17039e-05
8.88827e-05
9.65152e-05
0.000104612
0.000113182
0.000122233
0.000131773
0.000141808
0.000152342
0.000163378
0.000174919
0.000186966
0.00019952
0.000212578
0.000226138
0.000240197
0.000254748
0.000269785
0.000285299
0.000301279
0.000317712
0.000334581
0.000351869
0.000369553
0.000387607
0.000406002
0.000424701
0.000443664
0.000462843
0.000482182
0.000501617
0.000521074
0.000540468
0.000559697
0.000578649
0.000597192
0.00061518
0.000632445
0.000648801
0.000664037
0.000677923
0.000690202
0.000700595
0.00070879
0.000714195
0.000716493
0.000716658
0.000713378
0.000706239
0.000695121
0.000679924
0.000660601
0.000637186
0.000609827
0.000578794
0.000544492
0.000507448
0.000468302
0.00042778
0.000386657
0.000345719
0.000305719
0.000267338
0.000231151
0.000197603
0.000166995
0.000139488
0.000115108
9.37711e-05
7.52992e-05
5.94503e-05
4.59424e-05
3.44788e-05
2.47737e-05
1.65816e-05
9.73926e-06
4.24387e-06
4.82201e-07
1.55177e-08
1.37759e-07
3.14025e-07
5.2492e-07
7.61162e-07
1.01691e-06
1.28779e-06
1.57021e-06
1.86102e-06
2.15741e-06
2.45689e-06
2.75725e-06
3.05665e-06
3.35363e-06
3.6472e-06
3.93684e-06
4.22257e-06
4.50503e-06
4.78544e-06
5.06571e-06
5.34841e-06
5.63684e-06
5.935e-06
6.24769e-06
6.58049e-06
6.93981e-06
7.33292e-06
7.76801e-06
8.25421e-06
8.80164e-06
9.42146e-06
1.01259e-05
1.09283e-05
1.18432e-05
1.2886e-05
1.40735e-05
1.54235e-05
1.69547e-05
1.86871e-05
2.06412e-05
2.28386e-05
2.53015e-05
2.80528e-05
3.11157e-05
3.4514e-05
3.82718e-05
4.24132e-05
4.69627e-05
5.19447e-05
5.73837e-05
6.33038e-05
6.97292e-05
7.66835e-05
8.41902e-05
9.22719e-05
0.00010095
0.000110247
0.00012018
0.00013077
0.000142033
0.000153986
0.000166641
0.000180011
0.000194106
0.000208935
0.000224505
0.000240818
0.000257878
0.000275683
0.000294232
0.000313518
0.000333534
0.00035427
0.000375712
0.000397843
0.000420644
0.000444091
0.000468157
0.000492811
0.000518019
0.000543741
0.000569931
0.00059654
0.000623511
0.000650781
0.000678279
0.000705923
0.000733625
0.00076128
0.000788772
0.000815965
0.000842708
0.000868826
0.000894123
0.000918376
0.000941335
0.000962718
0.000982211
0.000999471
0.00101412
0.0010257
0.00103343
0.00103675
0.00103707
0.00103265
0.00102272
0.00100712
0.000985686
0.000958307
0.000924998
0.000885932
0.000841467
0.000792157
0.000738748
0.000682158
0.000623439
0.00056373
0.00050419
0.00044594
0.000389994
0.000337212
0.000288261
0.000243593
0.000203449
0.000167875
0.000136744
0.000109798
8.66799e-05
6.69772e-05
5.02547e-05
3.60948e-05
2.41402e-05
1.41563e-05
6.14827e-06
6.91681e-07
2.07505e-08
1.8509e-07
4.22973e-07
7.08111e-07
1.02777e-06
1.37392e-06
1.74062e-06
2.12294e-06
2.51662e-06
2.91783e-06
3.32317e-06
3.72965e-06
4.13476e-06
4.53652e-06
4.93356e-06
5.32516e-06
5.71137e-06
6.09302e-06
6.47178e-06
6.85022e-06
7.23181e-06
7.62102e-06
8.02328e-06
8.44506e-06
8.89393e-06
9.37855e-06
9.90876e-06
1.04957e-05
1.11516e-05
1.18903e-05
1.27268e-05
1.36778e-05
1.47613e-05
1.5997e-05
1.74059e-05
1.90107e-05
2.08356e-05
2.29061e-05
2.52492e-05
2.78929e-05
3.08668e-05
3.42008e-05
3.79263e-05
4.20751e-05
4.66795e-05
5.17724e-05
5.73871e-05
6.3557e-05
7.03157e-05
7.76968e-05
8.57337e-05
9.44597e-05
0.000103908
0.00011411
0.000125098
0.000136903
0.000149553
0.000163075
0.000177497
0.000192841
0.000209129
0.000226379
0.000244608
0.000263828
0.000284049
0.000305277
0.000327513
0.000350756
0.000374999
0.000400231
0.000426436
0.000453595
0.000481681
0.000510664
0.000540509
0.000571173
0.000602613
0.000634777
0.000667611
0.000701053
0.000735041
0.000769506
0.000804373
0.000839563
0.000874993
0.000910572
0.0009462
0.000981769
0.00101716
0.00105223
0.00108684
0.00112081
0.00115394
0.001186
0.00121675
0.00124587
0.00127305
0.00129789
0.00131999
0.00133886
0.00135392
0.00136431
0.00136902
0.00136981
0.00136487
0.00135278
0.00133335
0.00130631
0.00127145
0.00122873
0.0011783
0.00112056
0.00105619
0.000986133
0.000911576
0.000833913
0.000754668
0.000675417
0.000597694
0.000522901
0.000452236
0.000386632
0.000326731
0.00027288
0.000225154
0.00018339
0.000147244
0.000116235
8.9807e-05
6.7374e-05
4.83746e-05
3.23314e-05
1.89355e-05
8.20491e-06
9.18731e-07
2.64047e-08
2.36128e-07
5.40586e-07
9.06142e-07
1.31631e-06
1.76066e-06
2.23146e-06
2.72237e-06
3.22786e-06
3.743e-06
4.26338e-06
4.78514e-06
5.30504e-06
5.8205e-06
6.32974e-06
6.83185e-06
7.32685e-06
7.81582e-06
8.30089e-06
8.78536e-06
9.27369e-06
9.77161e-06
1.02861e-05
1.08255e-05
1.13994e-05
1.20191e-05
1.26972e-05
1.34478e-05
1.4287e-05
1.52322e-05
1.6303e-05
1.75206e-05
1.89084e-05
2.04915e-05
2.22972e-05
2.43547e-05
2.66952e-05
2.93516e-05
3.23587e-05
3.5753e-05
3.95723e-05
4.38558e-05
4.8644e-05
5.3978e-05
5.99001e-05
6.6453e-05
7.36799e-05
8.16247e-05
9.03311e-05
9.98432e-05
0.000110205
0.00012146
0.000133652
0.000146823
0.000161015
0.000176268
0.00019262
0.000210107
0.000228764
0.000248619
0.000269699
0.000292028
0.000315623
0.000340496
0.000366655
0.0003941
0.000422825
0.000452817
0.000484055
0.000516511
0.000550146
0.000584917
0.00062077
0.000657645
0.000695475
0.000734186
0.000773698
0.000813928
0.000854788
0.000896188
0.000938035
0.000980238
0.0010227
0.00106533
0.00110803
0.0011507
0.00119325
0.00123555
0.00127751
0.00131898
0.00135982
0.00139986
0.00143891
0.00147673
0.00151306
0.00154757
0.00157991
0.00160964
0.00163628
0.00165927
0.00167789
0.0016914
0.00169806
0.00169976
0.0016952
0.00168197
0.00165982
0.00162837
0.00158727
0.00153636
0.00147573
0.00140578
0.00132726
0.00124126
0.00114922
0.00105285
0.00095405
0.000854836
0.000757184
0.00066293
0.00057366
0.000490627
0.00041471
0.000346401
0.000285829
0.000232812
0.000186922
0.000147555
0.000114001
8.55156e-05
6.13849e-05
4.10052e-05
2.39915e-05
1.03788e-05
1.15924e-06
3.2444e-08
2.90577e-07
6.66129e-07
1.11772e-06
1.62485e-06
2.17451e-06
2.75704e-06
3.36451e-06
3.99003e-06
4.62746e-06
5.2713e-06
5.91673e-06
6.5597e-06
7.19699e-06
7.82637e-06
8.44668e-06
9.05796e-06
9.66151e-06
1.026e-05
1.08574e-05
1.14595e-05
1.20731e-05
1.27069e-05
1.33714e-05
1.40784e-05
1.48418e-05
1.56773e-05
1.66024e-05
1.76368e-05
1.88024e-05
2.01233e-05
2.16259e-05
2.33391e-05
2.52943e-05
2.75253e-05
3.00684e-05
3.29624e-05
3.62484e-05
3.99699e-05
4.41721e-05
4.89026e-05
5.42103e-05
6.01457e-05
6.67607e-05
7.41081e-05
8.22418e-05
9.12162e-05
0.000101086
0.000111908
0.000123737
0.000136628
0.000150638
0.000165821
0.000182231
0.000199921
0.000218941
0.00023934
0.000261162
0.000284447
0.000309231
0.000335544
0.00036341
0.000392843
0.000423851
0.000456432
0.000490573
0.00052625
0.000563429
0.00060206
0.000642085
0.00068343
0.000726011
0.000769733
0.000814492
0.000860176
0.000906665
0.000953838
0.00100157
0.00104974
0.00109823
0.00114693
0.00119572
0.0012445
0.00129318
0.00134168
0.0013899
0.00143778
0.00148522
0.00153215
0.00157846
0.00162404
0.00166875
0.00171242
0.00175484
0.00179573
0.00183479
0.00187161
0.00190573
0.00193661
0.00196362
0.00198596
0.00200286
0.0020122
0.00201525
0.00201202
0.0019988
0.00197521
0.00194077
0.00189498
0.00183753
0.00176839
0.00168792
0.00159688
0.00149645
0.00138826
0.00127429
0.00115678
0.00103818
0.000920894
0.000807229
0.000699199
0.000598431
0.000506094
0.000422874
0.000349
0.000284297
0.000228271
0.0001802
0.000139222
0.000104429
7.49475e-05
5.00446e-05
2.92584e-05
1.26428e-05
1.41002e-06
3.8846e-08
3.48252e-07
7.99143e-07
1.34202e-06
1.95216e-06
2.6138e-06
3.3152e-06
4.04673e-06
4.80002e-06
5.5676e-06
6.3428e-06
7.11975e-06
7.89352e-06
8.6602e-06
9.41706e-06
1.01627e-05
1.08971e-05
1.16218e-05
1.23401e-05
1.30569e-05
1.37788e-05
1.45144e-05
1.52741e-05
1.60704e-05
1.69177e-05
1.78327e-05
1.88342e-05
1.99436e-05
2.11845e-05
2.25834e-05
2.41693e-05
2.59742e-05
2.8033e-05
3.03836e-05
3.30672e-05
3.61275e-05
3.96119e-05
4.357e-05
4.80548e-05
5.31215e-05
5.88277e-05
6.52332e-05
7.23998e-05
8.03909e-05
8.92711e-05
9.91065e-05
0.000109964
0.000121911
0.000135017
0.00014935
0.000164978
0.000181971
0.000200395
0.000220317
0.000241802
0.00026491
0.000289698
0.00031622
0.000344519
0.000374636
0.000406598
0.000440425
0.000476122
0.000513684
0.000553088
0.000594298
0.000637257
0.000681895
0.00072812
0.000775824
0.000824883
0.000875158
0.000926496
0.000978737
0.00103171
0.00108526
0.0011392
0.00119338
0.00124764
0.00130186
0.0013559
0.00140966
0.00146306
0.00151603
0.00156852
0.00162048
0.00167189
0.00172272
0.00177293
0.00182249
0.00187132
0.00191934
0.0019664
0.00201233
0.00205686
0.00209968
0.00214038
0.00217844
0.00221329
0.00224418
0.0022703
0.00229076
0.0023034
0.00230825
0.00230699
0.00229484
0.00227103
0.00223502
0.00218616
0.00212396
0.00204827
0.00195934
0.00185787
0.0017451
0.00162273
0.00149296
0.00135832
0.0012216
0.00108566
0.000953246
0.000826835
0.000708468
0.000599663
0.000501361
0.00041394
0.00033728
0.00027085
0.000213828
0.000165207
0.000123916
8.89215e-05
5.93574e-05
3.46838e-05
1.4975e-05
1.66857e-06
4.55976e-08
4.09046e-07
9.39363e-07
1.57855e-06
2.29749e-06
3.07749e-06
3.9046e-06
4.76737e-06
5.65583e-06
6.56109e-06
7.47519e-06
8.39115e-06
9.30307e-06
1.02063e-05
1.10975e-05
1.19751e-05
1.2839e-05
1.36911e-05
1.45352e-05
1.5377e-05
1.62245e-05
1.70878e-05
1.79793e-05
1.89136e-05
1.99078e-05
2.09817e-05
2.21575e-05
2.34605e-05
2.49186e-05
2.65631e-05
2.84284e-05
3.05524e-05
3.29765e-05
3.57457e-05
3.89087e-05
4.25179e-05
4.66291e-05
5.1302e-05
5.65993e-05
6.25871e-05
6.93344e-05
7.69126e-05
8.53957e-05
9.48598e-05
0.000105383
0.000117044
0.000129924
0.000144104
0.000159668
0.000176697
0.000195275
0.000215484
0.000237406
0.000261118
0.000286697
0.000314214
0.000343734
0.000375313
0.000408999
0.000444829
0.000482822
0.000522987
0.000565309
0.000609757
0.000656276
0.000704789
0.000755193
0.000807362
0.000861145
0.000916369
0.000972842
0.00103036
0.00108869
0.00114762
0.00120692
0.00126637
0.00132577
0.00138494
0.0014437
0.00150193
0.00155951
0.00161639
0.00167252
0.00172788
0.00178249
0.00183638
0.00188959
0.00194216
0.00199413
0.00204553
0.00209635
0.00214653
0.00219598
0.00224453
0.00229194
0.00233787
0.0023819
0.00242348
0.00246195
0.00249653
0.00252629
0.00255027
0.00256656
0.00257374
0.00257455
0.00256437
0.00254137
0.00250506
0.00245465
0.0023895
0.00230929
0.00221412
0.0021046
0.00198191
0.00184779
0.00170452
0.00155486
0.00140187
0.00124879
0.00109881
0.00095485
0.000819414
0.000694412
0.000581102
0.000480078
0.000391326
0.000314324
0.000248178
0.000191755
0.000143825
0.000103198
6.88719e-05
4.02268e-05
1.73582e-05
1.93292e-06
5.26926e-08
4.72909e-07
1.08666e-06
1.82708e-06
2.66046e-06
3.56503e-06
4.52451e-06
5.52551e-06
6.55634e-06
7.60658e-06
8.66691e-06
9.7291e-06
1.07862e-05
1.18328e-05
1.2865e-05
1.38809e-05
1.48803e-05
1.58655e-05
1.68408e-05
1.78131e-05
1.87915e-05
1.97879e-05
2.08166e-05
2.18948e-05
2.30423e-05
2.42821e-05
2.56401e-05
2.71456e-05
2.88314e-05
3.07337e-05
3.28928e-05
3.53528e-05
3.8162e-05
4.1373e-05
4.50429e-05
4.92328e-05
5.40084e-05
5.94395e-05
6.56e-05
7.25674e-05
8.04231e-05
8.92513e-05
9.91394e-05
0.000110177
0.000122457
0.000136073
0.00015112
0.000167695
0.000185897
0.000205823
0.000227571
0.000251238
0.000276918
0.000304703
0.000334679
0.000366924
0.000401508
0.00043849
0.000477911
0.000519798
0.000564157
0.000610969
0.000660189
0.000711745
0.000765534
0.000821419
0.000879233
0.000938778
0.000999825
0.00106212
0.00112539
0.00118936
0.00125372
0.00131819
0.0013825
0.00144638
0.00150963
0.00157205
0.00163349
0.00169385
0.00175309
0.00181119
0.00186819
0.00192416
0.0019792
0.00203342
0.00208695
0.00213992
0.00219244
0.00224459
0.00229641
0.00234789
0.00239895
0.00244943
0.00249908
0.00254756
0.00259439
0.002639
0.00268066
0.00271853
0.00275163
0.00277883
0.00279875
0.00280868
0.00281131
0.00280374
0.00278235
0.00274682
0.00269626
0.00262987
0.00254714
0.00244802
0.00233294
0.00220297
0.00205978
0.00190565
0.00174345
0.00157643
0.00140815
0.00124217
0.00108188
0.000930219
0.000789555
0.00066152
0.00054699
0.000446121
0.000358457
0.00028307
0.000218725
0.000164049
0.000117699
7.85344e-05
4.58565e-05
1.97793e-05
2.20159e-06
6.01299e-08
5.39835e-07
1.24102e-06
2.08756e-06
3.04096e-06
4.07625e-06
5.17469e-06
6.3208e-06
7.5011e-06
8.70352e-06
9.91722e-06
1.11327e-05
1.2342e-05
1.35386e-05
1.47181e-05
1.58782e-05
1.70189e-05
1.81426e-05
1.92545e-05
2.03622e-05
2.14766e-05
2.26111e-05
2.37823e-05
2.50099e-05
2.63168e-05
2.77293e-05
2.92774e-05
3.09945e-05
3.29185e-05
3.5091e-05
3.75584e-05
4.03716e-05
4.35862e-05
4.72631e-05
5.14681e-05
5.6272e-05
6.17508e-05
6.79856e-05
7.5062e-05
8.30703e-05
9.2105e-05
0.000102264
0.00011365
0.000126368
0.000140524
0.000156229
0.000173595
0.000192735
0.000213763
0.000236793
0.000261939
0.00028931
0.000319016
0.000351158
0.00038583
0.000423115
0.000463083
0.000505787
0.000551256
0.000599497
0.000650487
0.000704169
0.000760451
0.000819203
0.000880254
0.000943392
0.00100837
0.00107489
0.00114263
0.00121127
0.00128042
0.00134974
0.00141886
0.00148744
0.00155518
0.00162182
0.00168712
0.00175095
0.00181321
0.00187386
0.00193294
0.00199053
0.00204677
0.00210183
0.00215591
0.00220921
0.00226196
0.00231435
0.00236655
0.00241868
0.00247082
0.00252297
0.00257504
0.00262688
0.0026782
0.00272864
0.00277769
0.00282472
0.00286899
0.00290959
0.00294552
0.0029756
0.00299857
0.00301136
0.00301569
0.00301098
0.00299182
0.00295798
0.00290851
0.00284247
0.00275916
0.00265833
0.00254021
0.00240566
0.0022562
0.00209403
0.001922
0.00174347
0.0015622
0.00138208
0.00120691
0.00104012
0.000884536
0.000742218
0.000614396
0.000501469
0.000403104
0.000318392
0.000246029
0.000184519
0.00013237
8.83085e-05
5.15512e-05
2.22289e-05
2.47351e-06
6.79128e-08
6.09858e-07
1.40251e-06
2.36009e-06
3.43911e-06
4.61128e-06
5.85526e-06
7.15338e-06
8.49022e-06
9.85194e-06
1.12261e-05
1.26019e-05
1.397e-05
1.53231e-05
1.66561e-05
1.79663e-05
1.92538e-05
2.05213e-05
2.17746e-05
2.30228e-05
2.42779e-05
2.55554e-05
2.68742e-05
2.82567e-05
2.97291e-05
3.13212e-05
3.30671e-05
3.50051e-05
3.7178e-05
3.96335e-05
4.24244e-05
4.56087e-05
4.92501e-05
5.3418e-05
5.81878e-05
6.36406e-05
6.98637e-05
7.695e-05
8.49981e-05
9.4112e-05
0.0001044
0.000115977
0.000128958
0.000143467
0.000159626
0.000177563
0.000197408
0.000219289
0.000243339
0.000269688
0.000298463
0.000329791
0.00036379
0.00040057
0.00044023
0.000482853
0.0005285
0.00057721
0.000628991
0.000683816
0.000741618
0.000802287
0.000865666
0.000931548
0.000999675
0.00106974
0.00114139
0.00121425
0.00128787
0.00136184
0.0014357
0.00150903
0.00158142
0.00165249
0.00172194
0.00178954
0.0018551
0.00191854
0.00197986
0.00203912
0.00209648
0.00215212
0.00220631
0.00225931
0.00231143
0.00236296
0.00241419
0.00246536
0.00251669
0.0025683
0.00262028
0.00267261
0.0027252
0.00277786
0.00283028
0.00288204
0.00293263
0.00298138
0.00302752
0.00307015
0.00310822
0.00314059
0.00316601
0.0031815
0.00318743
0.0031855
0.00316905
0.00313766
0.00309038
0.00302614
0.00294407
0.00284367
0.00272495
0.0025885
0.00243559
0.00226825
0.00208919
0.00190178
0.0017099
0.00151769
0.00132931
0.00114864
0.00097901
0.000822966
0.00068215
0.000557277
0.000448206
0.000354101
0.000273632
0.000205202
0.000147184
9.81738e-05
5.72983e-05
2.47014e-05
2.74803e-06
7.60481e-08
6.8304e-07
1.57128e-06
2.6449e-06
3.85525e-06
5.17053e-06
6.56669e-06
8.02376e-06
9.52424e-06
1.10524e-05
1.25942e-05
1.41371e-05
1.56708e-05
1.71868e-05
1.86793e-05
2.01454e-05
2.1585e-05
2.30013e-05
2.4401e-05
2.57942e-05
2.71947e-05
2.862e-05
3.00914e-05
3.16344e-05
3.32783e-05
3.5057e-05
3.70089e-05
3.91773e-05
4.16105e-05
4.43624e-05
4.74927e-05
5.10671e-05
5.51578e-05
5.98434e-05
6.52095e-05
7.13484e-05
7.83593e-05
8.63481e-05
9.54272e-05
0.000105715
0.000117336
0.000130421
0.000145102
0.000161519
0.000179815
0.000200133
0.000222622
0.00024743
0.000274704
0.000304591
0.000337234
0.00037277
0.000411327
0.00045302
0.000497945
0.000546178
0.000597765
0.000652718
0.000711011
0.000772568
0.000837263
0.000904913
0.000975278
0.00104805
0.00112288
0.00119934
0.00127697
0.00135527
0.00143372
0.0015118
0.00158899
0.0016648
0.00173882
0.00181068
0.0018801
0.00194691
0.00201102
0.00207245
0.00213132
0.00218781
0.00224221
0.00229484
0.00234606
0.00239626
0.00244581
0.00249507
0.00254437
0.00259397
0.00264409
0.00269486
0.00274632
0.00279844
0.00285108
0.00290402
0.00295691
0.00300931
0.00306068
0.00311035
0.00315754
0.00320137
0.00324081
0.00327474
0.00330195
0.00331989
0.00332747
0.00332787
0.00331452
0.00328622
0.00324207
0.00318093
0.00310174
0.00300377
0.00288674
0.00275094
0.00259732
0.00242762
0.00224435
0.00205075
0.0018507
0.00164853
0.0014487
0.00125552
0.00107283
0.000903688
0.000750229
0.00061355
0.000493778
0.000390212
0.000301541
0.000226099
0.000162139
0.000108124
6.30931e-05
2.71944e-05
3.02489e-06
8.45458e-08
7.59471e-07
1.74753e-06
2.94234e-06
4.28984e-06
5.75461e-06
7.30974e-06
8.93282e-06
1.06041e-05
1.2306e-05
1.40225e-05
1.57396e-05
1.74454e-05
1.91306e-05
2.07887e-05
2.24162e-05
2.40131e-05
2.55833e-05
2.71341e-05
2.8677e-05
3.02275e-05
3.18053e-05
3.34344e-05
3.51434e-05
3.69651e-05
3.89377e-05
4.11041e-05
4.3513e-05
4.62184e-05
4.9281e-05
5.27677e-05
5.67525e-05
6.13164e-05
6.65482e-05
7.25443e-05
7.94089e-05
8.72542e-05
9.61998e-05
0.000106373
0.000117908
0.000130947
0.000145635
0.000162126
0.000180577
0.000201148
0.000224004
0.000249311
0.000277235
0.00030794
0.00034159
0.000378338
0.000418332
0.000461704
0.000508568
0.000559012
0.000613095
0.000670836
0.00073221
0.000797137
0.000865479
0.000937031
0.00101152
0.0010886
0.00116786
0.00124881
0.00133093
0.00141362
0.00149629
0.00157832
0.00165911
0.00173809
0.00181478
0.00188877
0.00195973
0.00202746
0.0020919
0.00215307
0.00221114
0.00226635
0.00231905
0.00236965
0.00241858
0.00246631
0.00251331
0.00256001
0.0026068
0.00265399
0.00270187
0.00275061
0.0028003
0.00285095
0.00290248
0.00295471
0.00300737
0.00306008
0.00311239
0.00316376
0.00321351
0.00326091
0.0033051
0.0033451
0.00337986
0.00340818
0.0034282
0.00343768
0.00343973
0.00342979
0.00340505
0.00336483
0.00330789
0.00323302
0.00313924
0.00302599
0.00289319
0.00274142
0.00257206
0.00238729
0.00219013
0.00198439
0.00177443
0.00156497
0.00136071
0.00116599
0.000984432
0.000818707
0.000670374
0.000539902
0.000426793
0.000329806
0.000247242
0.000177249
0.000118168
6.89383e-05
2.97088e-05
3.30416e-06
9.34185e-08
8.39267e-07
1.93153e-06
3.25285e-06
4.74352e-06
6.36434e-06
8.0854e-06
9.8817e-06
1.17312e-05
1.36141e-05
1.55125e-05
1.74107e-05
1.92955e-05
2.11562e-05
2.29857e-05
2.47802e-05
2.65398e-05
2.82686e-05
2.99751e-05
3.16723e-05
3.33774e-05
3.51126e-05
3.69046e-05
3.87853e-05
4.07915e-05
4.29656e-05
4.53556e-05
4.80156e-05
5.10061e-05
5.43946e-05
5.82559e-05
6.26727e-05
6.77357e-05
7.35443e-05
8.02064e-05
8.78392e-05
9.65685e-05
0.000106529
0.000117864
0.000130724
0.000145269
0.000161663
0.000180079
0.000200694
0.000223688
0.000249244
0.000277547
0.000308782
0.00034313
0.000380765
0.000421854
0.000466548
0.000514978
0.00056725
0.000623436
0.000683566
0.000747619
0.000815517
0.000887112
0.000962183
0.00104043
0.00112147
0.00120483
0.00128998
0.00137631
0.00146315
0.00154982
0.0016356
0.00171981
0.00180181
0.00188102
0.00195697
0.00202931
0.0020978
0.00216238
0.00222309
0.00228013
0.00233381
0.00238454
0.00243279
0.0024791
0.00252403
0.0025681
0.00261181
0.00265564
0.00269994
0.00274503
0.00279114
0.00283839
0.00288684
0.00293642
0.00298699
0.00303834
0.00309015
0.00314204
0.00319355
0.00324414
0.00329318
0.00333998
0.00338375
0.00342359
0.0034585
0.00348739
0.00350894
0.00352026
0.00352372
0.00351725
0.00349639
0.00346071
0.00340885
0.00333948
0.0032514
0.00314372
0.003016
0.00286841
0.00270187
0.00251818
0.00232001
0.00211097
0.00189539
0.00167815
0.00146428
0.0012586
0.00106534
0.000887737
0.000727899
0.000586711
0.000463952
0.000358508
0.000268686
0.000192551
0.000128324
7.48433e-05
3.22481e-05
3.58622e-06
1.02681e-07
9.22563e-07
2.12359e-06
3.57694e-06
5.21704e-06
7.0007e-06
8.89488e-06
1.08718e-05
1.29071e-05
1.49785e-05
1.70662e-05
1.91526e-05
2.1223e-05
2.32656e-05
2.52725e-05
2.72395e-05
2.91668e-05
3.10592e-05
3.29262e-05
3.47822e-05
3.66466e-05
3.85441e-05
4.05044e-05
4.25629e-05
4.47605e-05
4.71443e-05
4.97675e-05
5.26901e-05
5.59793e-05
5.97101e-05
6.39656e-05
6.88378e-05
7.44276e-05
8.08457e-05
8.82126e-05
9.6659e-05
0.000106325
0.000117362
0.00012993
0.000144198
0.000160344
0.000178552
0.000199015
0.00022193
0.000247497
0.000275921
0.000307405
0.000342149
0.000380349
0.000422191
0.000467847
0.000517469
0.00057118
0.000629068
0.000691178
0.000757499
0.000827955
0.000902397
0.000980592
0.00106222
0.00114686
0.00123401
0.00132306
0.00141335
0.00150413
0.00159461
0.00168401
0.00177154
0.00185647
0.00193815
0.00201602
0.0020897
0.00215891
0.00222358
0.00228377
0.0023397
0.00239175
0.00244038
0.00248615
0.00252967
0.00257158
0.00261249
0.00265296
0.00269352
0.00273462
0.00277658
0.00281966
0.00286402
0.00290974
0.00295679
0.00300504
0.00305431
0.00310433
0.00315477
0.00320525
0.00325531
0.00330444
0.00335207
0.00339758
0.00344024
0.00347928
0.00351379
0.00354279
0.00356522
0.00357832
0.00358306
0.00357991
0.00356315
0.00353237
0.00348624
0.00342325
0.00334203
0.00324139
0.00312051
0.00297911
0.00281764
0.00263738
0.00244061
0.0022306
0.00201154
0.00178836
0.00156637
0.00135085
0.0011466
0.000957522
0.000786319
0.000634379
0.000501832
0.000387757
0.000290508
0.000208093
0.00013862
8.0823e-05
3.48182e-05
3.8717e-06
1.12351e-07
1.00952e-06
2.32407e-06
3.91522e-06
5.71127e-06
7.66484e-06
9.7396e-06
1.19049e-05
1.41336e-05
1.64013e-05
1.86857e-05
2.09676e-05
2.32304e-05
2.54614e-05
2.76517e-05
2.97967e-05
3.1897e-05
3.39578e-05
3.599e-05
3.80095e-05
4.0038e-05
4.21028e-05
4.4237e-05
4.64797e-05
4.88762e-05
5.14783e-05
5.4345e-05
5.75426e-05
6.11454e-05
6.52362e-05
6.9907e-05
7.52596e-05
8.14059e-05
8.84687e-05
9.65818e-05
0.00010589
0.00011655
0.00012873
0.000142607
0.000158369
0.000176215
0.00019635
0.000218986
0.000244343
0.000272641
0.000304104
0.000338952
0.000377403
0.000419664
0.000465927
0.000516366
0.000571125
0.000630312
0.000693988
0.000762155
0.000834748
0.00091162
0.000992534
0.00107715
0.00116504
0.00125564
0.00134831
0.00144231
0.00153682
0.00163098
0.0017239
0.0018147
0.00190255
0.00198671
0.00206657
0.00214165
0.00221167
0.0022765
0.00233623
0.00239111
0.00244156
0.0024881
0.00253135
0.00257204
0.00261085
0.00264849
0.00268561
0.00272276
0.00276045
0.00279908
0.00283891
0.00288013
0.00292282
0.00296698
0.00301249
0.0030592
0.00310685
0.00315517
0.0032038
0.00325237
0.00330044
0.00334757
0.00339323
0.00343688
0.00347791
0.00351563
0.00354926
0.00357794
0.00360075
0.0036155
0.00362151
0.00362122
0.00360865
0.00358292
0.00354283
0.00348681
0.00341326
0.00332076
0.00320811
0.00307457
0.00292007
0.00274537
0.00255221
0.00234344
0.00212299
0.00189572
0.00166712
0.0014429
0.00122843
0.00102828
0.000845851
0.000683101
0.000540598
0.000417681
0.000312801
0.000223938
0.000149095
8.68968e-05
3.74267e-05
4.16145e-06
1.22447e-07
1.1003e-06
2.53337e-06
4.26837e-06
6.22717e-06
8.35805e-06
1.06211e-05
1.29828e-05
1.5413e-05
1.78848e-05
2.03738e-05
2.28584e-05
2.53207e-05
2.77465e-05
3.01261e-05
3.24549e-05
3.47333e-05
3.69675e-05
3.91696e-05
4.13574e-05
4.3555e-05
4.57926e-05
4.81066e-05
5.05402e-05
5.31434e-05
5.59733e-05
5.90947e-05
6.25807e-05
6.65129e-05
7.09826e-05
7.60914e-05
8.19513e-05
8.86861e-05
9.64312e-05
0.000105335
0.000115557
0.000127271
0.000140662
0.000155928
0.000173277
0.000192927
0.000215106
0.000240047
0.000267992
0.00029918
0.000333855
0.000372254
0.000414607
0.00046113
0.000512017
0.000567437
0.000627518
0.000692343
0.000761931
0.000836232
0.000915108
0.000998324
0.00108554
0.00117629
0.00127001
0.001366
0.00146346
0.00156152
0.00165923
0.00175559
0.00184965
0.00194047
0.00202722
0.00210918
0.00218583
0.00225682
0.002322
0.00238145
0.00243544
0.00248441
0.00252896
0.00256981
0.0026077
0.00264346
0.00267783
0.00271156
0.00274527
0.0027795
0.0028147
0.0028512
0.00288917
0.0029287
0.0029698
0.00301238
0.00305628
0.00310127
0.00314708
0.0031934
0.00323989
0.00328619
0.0033319
0.00337663
0.00341993
0.00346134
0.00350031
0.00353623