/*--------------------------------*- C++ -*----------------------------------*\
  =========                 |
  \\      /  F ield         | OpenFOAM: The Open Source CFD Toolbox
   \\    /   O peration     | Website:  https://openfoam.org
    \\  /    A nd           | Version:  12
     \\/     M anipulation  |
\*---------------------------------------------------------------------------*/
FoamFile
{
    format      ascii;
    class       surfaceScalarField;
    location    "9";
    object      phi;
}
// * * * * * * * * * * * * * * * * * * * * * * * * * * * * * * * * * * * * * //

dimensions      [0 3 -1 0 0 0 0];

internalField   nonuniform List<scalar> 
36180
(
-4.80167e-11
4.73787e-11
-7.66627e-11
2.87011e-11
-4.45402e-11
-3.20538e-11
5.98604e-11
-1.04352e-10
2.3448e-10
-1.74589e-10
4.72606e-10
-2.38106e-10
7.65775e-10
-2.93154e-10
1.10505e-09
-3.39263e-10
1.48155e-09
-3.76495e-10
1.88671e-09
-4.0516e-10
2.3124e-09
-4.25693e-10
2.75102e-09
-4.38619e-10
3.19554e-09
-4.4452e-10
3.63957e-09
-4.44036e-10
4.07741e-09
-4.37843e-10
4.50406e-09
-4.26654e-10
4.91526e-09
-4.11197e-10
5.30748e-09
-3.92212e-10
5.67792e-09
-3.70433e-10
6.0245e-09
-3.46577e-10
6.34584e-09
-3.21332e-10
6.6412e-09
-2.9535e-10
6.91044e-09
-2.69235e-10
7.15398e-09
-2.43532e-10
7.37271e-09
-2.18727e-10
7.56794e-09
-1.95233e-10
7.74134e-09
-1.73394e-10
7.89481e-09
-1.53478e-10
8.0305e-09
-1.35679e-10
8.15061e-09
-1.20115e-10
8.25744e-09
-1.06824e-10
8.3532e-09
-9.5763e-11
8.44002e-09
-8.68119e-11
8.51979e-09
-7.97723e-11
8.59417e-09
-7.43706e-11
8.66443e-09
-7.02592e-11
8.73145e-09
-6.70211e-11
8.79561e-09
-6.41614e-11
8.85677e-09
-6.11581e-11
8.91421e-09
-5.74329e-11
8.96648e-09
-5.22743e-11
9.01158e-09
-4.50976e-11
9.0467e-09
-3.51206e-11
9.06838e-09
-2.16749e-11
9.07238e-09
-4.00253e-12
9.05377e-09
1.86128e-11
9.00689e-09
4.68815e-11
8.92535e-09
8.15406e-11
8.80206e-09
1.23292e-10
8.62922e-09
1.72836e-10
8.39835e-09
2.30874e-10
8.10024e-09
2.98108e-10
7.72499e-09
3.75245e-10
7.26195e-09
4.63045e-10
6.69972e-09
5.6223e-10
6.02619e-09
6.73527e-10
5.22835e-09
7.9784e-10
4.29259e-09
9.35768e-10
3.20435e-09
1.08824e-09
1.94844e-09
1.25591e-09
5.089e-10
1.43954e-09
-1.13078e-09
1.63968e-09
-2.98762e-09
1.85685e-09
-5.079e-09
2.09138e-09
-7.42229e-09
2.34329e-09
-1.00347e-08
2.61241e-09
-1.2933e-08
2.89834e-09
-1.61334e-08
3.20034e-09
-1.96507e-08
3.5173e-09
-2.34984e-08
3.84773e-09
-2.76882e-08
4.18973e-09
-3.22291e-08
4.54098e-09
-3.71279e-08
4.89874e-09
-4.23877e-08
5.25982e-09
-4.80083e-08
5.62064e-09
-5.39856e-08
5.97723e-09
-6.03108e-08
6.32524e-09
-6.69708e-08
6.66002e-09
-7.39474e-08
6.9766e-09
-8.12173e-08
7.26984e-09
-8.87517e-08
7.53439e-09
-9.65164e-08
7.76478e-09
-1.04472e-07
7.95548e-09
-1.12573e-07
8.10095e-09
-1.20769e-07
8.19565e-09
-1.29003e-07
8.23416e-09
-1.37214e-07
8.21112e-09
-1.45335e-07
8.12137e-09
-1.53295e-07
7.95993e-09
-1.61017e-07
7.72209e-09
-1.68421e-07
7.40344e-09
-1.75421e-07
6.99999e-09
-1.81929e-07
6.50824e-09
-1.87854e-07
5.92535e-09
-1.93103e-07
5.24923e-09
-1.97581e-07
4.47776e-09
-2.01184e-07
3.60279e-09
-2.03819e-07
2.63516e-09
-2.05427e-07
1.60742e-09
-2.05901e-07
4.74105e-10
-2.05157e-07
-7.43445e-10
-2.03143e-07
-2.01427e-09
-1.99803e-07
-3.33993e-09
-1.95103e-07
-4.6995e-09
-1.89035e-07
-6.06851e-09
-1.81614e-07
-7.42125e-09
-1.72884e-07
-8.73003e-09
-1.6292e-07
-9.96342e-09
-1.51833e-07
-1.10876e-08
-1.39765e-07
-1.2068e-08
-1.26894e-07
-1.28708e-08
-1.13429e-07
-1.34648e-08
-9.96054e-08
-1.38237e-08
-8.56772e-08
-1.39282e-08
-7.19098e-08
-1.37674e-08
-5.85687e-08
-1.33411e-08
-4.59083e-08
-1.26604e-08
-3.41608e-08
-1.17475e-08
-2.35253e-08
-1.06356e-08
-1.41588e-08
-9.36652e-09
-6.17019e-09
-7.98858e-09
3.82854e-10
-6.55304e-09
5.49467e-09
-5.11182e-09
9.20559e-09
-3.71092e-09
1.15982e-08
-2.39264e-09
1.27883e-08
-1.19011e-09
1.2917e-08
-1.28608e-10
1.21408e-08
7.76155e-10
1.06354e-08
1.50538e-09
8.58664e-09
2.04878e-09
6.2097e-09
2.37694e-09
3.76881e-09
2.44089e-09
1.60883e-09
2.15998e-09
2.0896e-10
1.39987e-09
2.0896e-10
-7.83684e-11
1.25794e-10
-9.17961e-11
4.22175e-11
5.31699e-11
-1.76938e-10
3.84169e-10
-4.35292e-10
9.0046e-10
-6.90842e-10
1.5875e-09
-9.25123e-10
2.42472e-09
-1.13035e-09
3.38915e-09
-1.30367e-09
4.45722e-09
-1.44456e-09
5.60574e-09
-1.55368e-09
6.8124e-09
-1.63236e-09
8.05615e-09
-1.68237e-09
9.31741e-09
-1.70578e-09
1.05783e-08
-1.70492e-09
1.18227e-08
-1.68229e-09
1.30366e-08
-1.64053e-09
1.42078e-08
-1.58236e-09
1.53261e-08
-1.51057e-09
1.63836e-08
-1.4279e-09
1.73741e-08
-1.33706e-09
1.82934e-08
-1.24065e-09
1.91392e-08
-1.14111e-09
1.99107e-08
-1.04072e-09
2.06087e-08
-9.41548e-10
2.12354e-08
-8.45415e-10
2.17941e-08
-7.53886e-10
2.22889e-08
-6.68255e-10
2.2725e-08
-5.89534e-10
2.31078e-08
-5.18448e-10
2.34431e-08
-4.55425e-10
2.37368e-08
-4.00586e-10
2.39948e-08
-3.53745e-10
2.42224e-08
-3.14414e-10
2.44245e-08
-2.81805e-10
2.46049e-08
-2.54837e-10
2.47668e-08
-2.32143e-10
2.49119e-08
-2.12086e-10
2.50405e-08
-1.92747e-10
2.51514e-08
-1.72061e-10
2.52417e-08
-1.47737e-10
2.53065e-08
-1.171e-10
2.53391e-08
-7.77147e-11
2.53306e-08
-2.664e-11
2.52702e-08
3.88188e-11
2.51446e-08
1.21583e-10
2.49387e-08
2.24501e-10
2.46352e-08
3.50411e-10
2.42145e-08
5.02174e-10
2.36552e-08
6.82588e-10
2.29336e-08
8.9443e-10
2.20241e-08
1.14046e-09
2.08987e-08
1.42344e-09
1.95278e-08
1.74614e-09
1.78794e-08
2.11147e-09
1.59194e-08
2.5222e-09
1.36118e-08
2.98113e-09
1.09183e-08
3.49134e-09
7.79867e-09
4.05543e-09
4.21064e-09
4.67628e-09
1.10376e-10
5.35617e-09
-4.54791e-09
6.09783e-09
-9.81159e-09
6.90336e-09
-1.57283e-08
7.77357e-09
-2.23456e-08
8.70862e-09
-2.97106e-08
9.70834e-09
-3.78696e-08
1.07715e-08
-4.68667e-08
1.18954e-08
-5.67427e-08
1.30763e-08
-6.75343e-08
1.43089e-08
-7.9273e-08
1.55865e-08
-9.19838e-08
1.69005e-08
-1.05684e-07
1.82412e-08
-1.20382e-07
1.95969e-08
-1.36077e-07
2.09544e-08
-1.52755e-07
2.22993e-08
-1.70394e-07
2.36155e-08
-1.88954e-07
2.48859e-08
-2.08387e-07
2.60922e-08
-2.28625e-07
2.72154e-08
-2.49592e-07
2.8236e-08
-2.71191e-07
2.91337e-08
-2.93315e-07
2.98885e-08
-3.15839e-07
3.04802e-08
-3.38627e-07
3.08889e-08
-3.61527e-07
3.10951e-08
-3.84372e-07
3.10798e-08
-4.06986e-07
3.08249e-08
-4.29178e-07
3.03132e-08
-4.50747e-07
2.95284e-08
-4.7148e-07
2.84556e-08
-4.91158e-07
2.70812e-08
-5.09551e-07
2.53936e-08
-5.26426e-07
2.33829e-08
-5.41543e-07
2.1042e-08
-5.5466e-07
1.83669e-08
-5.65538e-07
1.53552e-08
-5.73935e-07
1.20004e-08
-5.79593e-07
8.29301e-09
-5.8235e-07
4.36425e-09
-5.81998e-07
1.2232e-10
-5.78362e-07
-4.37997e-09
-5.71281e-07
-9.09486e-09
-5.60659e-07
-1.39618e-08
-5.4644e-07
-1.89187e-08
-5.28628e-07
-2.38809e-08
-5.07292e-07
-2.8757e-08
-4.82573e-07
-3.34492e-08
-4.54687e-07
-3.78487e-08
-4.23936e-07
-4.18394e-08
-3.907e-07
-4.53032e-08
-3.55446e-07
-4.8125e-08
-3.18711e-07
-5.01997e-08
-2.81097e-07
-5.1438e-08
-2.43251e-07
-5.17739e-08
-2.05848e-07
-5.11708e-08
-1.69562e-07
-4.96267e-08
-1.35045e-07
-4.71777e-08
-1.02894e-07
-4.38986e-08
-7.36288e-08
-3.99005e-08
-4.76693e-08
-3.53261e-08
-2.5317e-08
-3.03409e-08
-6.74666e-09
-2.51234e-08
7.99558e-09
-1.98541e-08
1.89872e-08
-1.47026e-08
2.64159e-08
-9.82126e-09
3.05617e-08
-5.33591e-09
3.17796e-08
-1.34652e-09
3.0484e-08
2.07176e-09
2.71398e-08
4.84956e-09
2.22586e-08
6.92997e-09
1.6433e-08
8.20248e-09
1.03676e-08
8.50629e-09
4.93223e-09
7.59539e-09
1.18375e-09
5.14835e-09
1.39271e-09
-6.46895e-11
1.90346e-10
-8.28788e-12
-1.41846e-11
2.86894e-10
-4.72069e-10
8.60633e-10
-1.00898e-09
1.71418e-09
-1.54435e-09
2.82841e-09
-2.03934e-09
4.17412e-09
-2.47604e-09
5.7174e-09
-2.84694e-09
7.42269e-09
-3.14984e-09
9.25443e-09
-3.38542e-09
1.11781e-08
-3.55603e-09
1.31608e-08
-3.66512e-09
1.5172e-08
-3.71695e-09
1.71834e-08
-3.71633e-09
1.91697e-08
-3.66856e-09
2.11084e-08
-3.57924e-09
2.29802e-08
-3.45418e-09
2.47689e-08
-3.29929e-09
2.64615e-08
-3.12049e-09
2.8048e-08
-2.92356e-09
2.95215e-08
-2.71405e-09
3.08776e-08
-2.49724e-09
3.21149e-08
-2.27802e-09
3.32342e-08
-2.06081e-09
3.42383e-08
-1.84954e-09
3.5132e-08
-1.64759e-09
3.59215e-08
-1.45772e-09
3.6614e-08
-1.2821e-09
3.72179e-08
-1.12228e-09
3.77416e-08
-9.79123e-10
3.81938e-08
-8.52865e-10
3.85832e-08
-7.43055e-10
3.89173e-08
-6.48582e-10
3.92032e-08
-5.67681e-10
3.94463e-08
-4.97938e-10
3.96505e-08
-4.36321e-10
3.98176e-08
-3.79195e-10
3.99472e-08
-3.22326e-10
4.00362e-08
-2.61129e-10
4.0079e-08
-1.90481e-10
4.00665e-08
-1.04607e-10
3.99867e-08
2.09018e-12
3.98241e-08
1.35933e-10
3.95599e-08
3.03027e-10
3.91717e-08
5.09765e-10
3.86337e-08
7.62524e-10
3.79165e-08
1.06766e-09
3.69871e-08
1.4315e-09
3.58094e-08
1.86031e-09
3.43436e-08
2.36026e-09
3.25465e-08
2.93751e-09
3.03718e-08
3.59818e-09
2.77696e-08
4.34838e-09
2.46866e-08
5.1944e-09
2.10665e-08
6.14228e-09
1.68495e-08
7.19823e-09
1.19729e-08
8.36794e-09
6.37094e-09
9.65735e-09
-2.52201e-11
1.10724e-08
-7.28779e-09
1.26187e-08
-1.549e-08
1.43001e-08
-2.47057e-08
1.61191e-08
-3.50096e-08
1.80774e-08
-4.6476e-08
2.0175e-08
-5.91774e-08
2.24098e-08
-7.31832e-08
2.47773e-08
-8.85582e-08
2.72703e-08
-1.05361e-07
2.98788e-08
-1.23641e-07
3.25893e-08
-1.4344e-07
3.53851e-08
-1.64785e-07
3.8246e-08
-1.87693e-07
4.11486e-08
-2.12161e-07
4.40658e-08
-2.38174e-07
4.69673e-08
-2.65695e-07
4.98199e-08
-2.94667e-07
5.25877e-08
-3.25014e-07
5.52325e-08
-3.56636e-07
5.77142e-08
-3.89411e-07
5.99913e-08
-4.23197e-07
6.20217e-08
-4.57826e-07
6.37628e-08
-4.9311e-07
6.51721e-08
-5.28838e-07
6.6208e-08
-5.64778e-07
6.68298e-08
-6.00682e-07
6.69983e-08
-6.36278e-07
6.66762e-08
-6.71281e-07
6.58283e-08
-7.0539e-07
6.44218e-08
-7.38288e-07
6.24268e-08
-7.69649e-07
5.98162e-08
-7.99134e-07
5.65667e-08
-8.264e-07
5.2659e-08
-8.51095e-07
4.80784e-08
-8.72869e-07
4.28159e-08
-8.91371e-07
3.68686e-08
-9.06257e-07
3.02409e-08
-9.17198e-07
2.29415e-08
-9.23825e-07
1.49199e-08
-9.25915e-07
6.45472e-09
-9.23212e-07
-2.58037e-09
-9.15455e-07
-1.2137e-08
-9.02477e-07
-2.20732e-08
-8.84165e-07
-3.22738e-08
-8.60474e-07
-4.26093e-08
-8.31447e-07
-5.29086e-08
-7.97218e-07
-6.29856e-08
-7.58024e-07
-7.26427e-08
-7.1421e-07
-8.16629e-08
-6.66234e-07
-8.98159e-08
-6.14669e-07
-9.68683e-08
-5.602e-07
-1.02594e-07
-5.03614e-07
-1.06785e-07
-4.45786e-07
-1.09267e-07
-3.87653e-07
-1.09907e-07
-3.30192e-07
-1.08632e-07
-2.74384e-07
-1.05435e-07
-2.21177e-07
-1.00384e-07
-1.71452e-07
-9.36233e-08
-1.25984e-07
-8.53687e-08
-8.54092e-08
-7.59008e-08
-5.02015e-08
-6.55486e-08
-2.06542e-08
-5.46706e-08
3.12484e-09
-4.36332e-08
2.12101e-08
-3.27879e-08
3.38428e-08
-2.24539e-08
4.14108e-08
-1.29039e-08
4.44238e-08
-4.35956e-09
4.3496e-08
2.99966e-09
3.93256e-08
9.01988e-09
3.27017e-08
1.35539e-08
2.45293e-08
1.63748e-08
1.58643e-08
1.71713e-08
7.95689e-09
1.55028e-08
2.22951e-09
1.08757e-08
3.62222e-09
-2.44533e-11
2.14778e-10
1.39224e-10
-1.7783e-10
6.13353e-10
-9.46142e-10
1.44298e-09
-1.83856e-09
2.63069e-09
-2.73202e-09
4.15436e-09
-3.56298e-09
5.97842e-09
-4.30008e-09
8.06047e-09
-4.92897e-09
1.03551e-08
-5.44451e-09
1.28165e-08
-5.8468e-09
1.53996e-08
-6.1391e-09
1.80613e-08
-6.32681e-09
2.07611e-08
-6.4168e-09
2.34619e-08
-6.41706e-09
2.61297e-08
-6.33643e-09
2.87348e-08
-6.18434e-09
3.12513e-08
-5.97061e-09
3.36572e-08
-5.70525e-09
3.5935e-08
-5.39829e-09
3.8071e-08
-5.05953e-09
4.00554e-08
-4.69845e-09
4.18822e-08
-4.32401e-09
4.35487e-08
-3.94451e-09
4.50554e-08
-3.56751e-09
4.64056e-08
-3.19969e-09
4.76047e-08
-2.84678e-09
4.86605e-08
-2.51351e-09
4.9582e-08
-2.20355e-09
5.03792e-08
-1.91947e-09
5.10628e-08
-1.66272e-09
5.16435e-08
-1.43362e-09
5.21318e-08
-1.23131e-09
5.2537e-08
-1.0538e-09
5.28673e-08
-8.97955e-10
5.31289e-08
-7.59518e-10
5.33257e-08
-6.33151e-10
5.3459e-08
-5.12474e-10
5.35268e-08
-3.90082e-10
5.35236e-08
-2.57949e-10
5.344e-08
-1.06951e-10
5.32626e-08
7.28048e-11
5.29734e-08
2.91376e-10
5.25497e-08
5.59576e-10
5.19644e-08
8.88304e-10
5.11855e-08
1.28874e-09
5.01759e-08
1.77213e-09
4.88939e-08
2.34964e-09
4.72929e-08
3.03245e-09
4.53217e-08
3.83154e-09
4.29241e-08
4.75783e-09
4.00396e-08
5.8221e-09
3.66026e-08
7.03508e-09
3.25436e-08
8.40742e-09
2.7788e-08
9.94998e-09
2.22575e-08
1.16728e-08
1.58696e-08
1.35862e-08
8.53719e-09
1.57003e-08
1.68697e-10
1.80258e-08
-9.32992e-09
2.05711e-08
-2.00547e-08
2.33435e-08
-3.21037e-08
2.63491e-08
-4.5576e-08
2.95914e-08
-6.05701e-08
3.30715e-08
-7.71824e-08
3.67873e-08
-9.55054e-08
4.07328e-08
-1.15626e-07
4.48977e-08
-1.37622e-07
4.92667e-08
-1.61563e-07
5.38195e-08
-1.87503e-07
5.85297e-08
-2.15484e-07
6.33654e-08
-2.45526e-07
6.82886e-08
-2.77633e-07
7.32555e-08
-3.11784e-07
7.82166e-08
-3.47934e-07
8.3117e-08
-3.86011e-07
8.78973e-08
-4.25917e-07
9.24938e-08
-4.67524e-07
9.68395e-08
-5.10675e-07
1.00865e-07
-5.55183e-07
1.04499e-07
-6.00832e-07
1.07671e-07
-6.47377e-07
1.10308e-07
-6.94547e-07
1.12342e-07
-7.42044e-07
1.13704e-07
-7.89544e-07
1.1433e-07
-8.36704e-07
1.14158e-07
-8.83157e-07
1.1313e-07
-9.28522e-07
1.11193e-07
-9.72398e-07
1.08299e-07
-1.01438e-06
1.04405e-07
-1.05404e-06
9.94748e-08
-1.09095e-06
9.34774e-08
-1.12468e-06
8.63896e-08
-1.15479e-06
7.81966e-08
-1.18087e-06
6.88926e-08
-1.20249e-06
5.84825e-08
-1.21923e-06
4.69831e-08
-1.23071e-06
3.44197e-08
-1.23658e-06
2.07968e-08
-1.2365e-06
6.37394e-09
-1.2302e-06
-8.8873e-09
-1.21743e-06
-2.49052e-08
-1.19803e-06
-4.14711e-08
-1.17191e-06
-5.83976e-08
-1.13905e-06
-7.54695e-08
-1.09954e-06
-9.24136e-08
-1.0536e-06
-1.0893e-07
-1.00153e-06
-1.24704e-07
-9.43806e-07
-1.39391e-07
-8.80992e-07
-1.5263e-07
-8.13806e-07
-1.64053e-07
-7.43094e-07
-1.73306e-07
-6.69818e-07
-1.80062e-07
-5.95042e-07
-1.84043e-07
-5.19908e-07
-1.85041e-07
-4.45605e-07
-1.82934e-07
-3.73335e-07
-1.77706e-07
-3.04264e-07
-1.69455e-07
-2.39489e-07
-1.58399e-07
-1.79985e-07
-1.44873e-07
-1.26571e-07
-1.29315e-07
-7.98752e-08
-1.12244e-07
-4.03108e-08
-9.4235e-08
-8.06493e-09
-7.58791e-08
1.69016e-08
-5.77543e-08
3.48416e-08
-4.0394e-08
4.62015e-08
-2.42638e-08
5.15957e-08
-9.75374e-09
5.17827e-08
2.81261e-09
4.7646e-08
1.31567e-08
4.01997e-08
2.10002e-08
3.05972e-08
2.59773e-08
2.01676e-08
2.76009e-08
1.04406e-08
2.52298e-08
3.12031e-09
1.8196e-08
6.74253e-09
3.12285e-11
1.83429e-10
3.26876e-10
-4.73505e-10
1.00001e-09
-1.61925e-09
2.095e-09
-2.93351e-09
3.61379e-09
-4.25078e-09
5.5316e-09
-5.48077e-09
7.80793e-09
-6.57638e-09
1.03936e-08
-7.51461e-09
1.32352e-08
-8.28613e-09
1.62782e-08
-8.88978e-09
1.94686e-08
-9.3295e-09
2.27544e-08
-9.61266e-09
2.60867e-08
-9.7491e-09
2.94201e-08
-9.75046e-09
3.27134e-08
-9.62974e-09
3.593e-08
-9.40093e-09
3.9038e-08
-9.07862e-09
4.20105e-08
-8.67775e-09
4.48255e-08
-8.21326e-09
4.74658e-08
-7.69983e-09
4.9919e-08
-7.15163e-09
5.2177e-08
-6.58205e-09
5.42361e-08
-6.00355e-09
5.6096e-08
-5.42744e-09
5.77601e-08
-4.86371e-09
5.92342e-08
-4.32095e-09
6.05269e-08
-3.80622e-09
6.16483e-08
-3.32497e-09
6.26099e-08
-2.88101e-09
6.34236e-08
-2.47642e-09
6.41015e-08
-2.11155e-09
6.46552e-08
-1.78501e-09
6.50951e-08
-1.49363e-09
6.54296e-08
-1.23252e-09
6.56652e-08
-9.95058e-10
6.5805e-08
-7.72991e-10
6.5849e-08
-5.56453e-10
6.5793e-08
-3.34105e-10
6.56285e-08
-9.3404e-11
6.53418e-08
1.79763e-10
6.49142e-08
5.00373e-10
6.43214e-08
8.84172e-10
6.35333e-08
1.34772e-09
6.25136e-08
1.90792e-09
6.12203e-08
2.58204e-09
5.9605e-08
3.38745e-09
5.76132e-08
4.34148e-09
5.51843e-08
5.46137e-09
5.22516e-08
6.76417e-09
4.87427e-08
8.26672e-09
4.45792e-08
9.98565e-09
3.96768e-08
1.19374e-08
3.39458e-08
1.41384e-08
2.72914e-08
1.66044e-08
1.96132e-08
1.9351e-08
1.08052e-08
2.23942e-08
7.5699e-10
2.57485e-08
-1.06451e-08
2.94279e-08
-2.35184e-08
3.34443e-08
-3.79825e-08
3.78076e-08
-5.41582e-08
4.25247e-08
-7.21657e-08
4.7599e-08
-9.21233e-08
5.30291e-08
-1.14145e-07
5.88085e-08
-1.38337e-07
6.49248e-08
-1.64797e-07
7.1358e-08
-1.93611e-07
7.80807e-08
-2.24849e-07
8.50572e-08
-2.58562e-07
9.22429e-08
-2.94781e-07
9.95843e-08
-3.33511e-07
1.07019e-07
-3.74731e-07
1.14476e-07
-4.1839e-07
1.21875e-07
-4.64404e-07
1.29131e-07
-5.12656e-07
1.36149e-07
-5.62993e-07
1.42831e-07
-6.15229e-07
1.49075e-07
-6.69138e-07
1.54775e-07
-7.24463e-07
1.59824e-07
-7.80911e-07
1.64118e-07
-8.38156e-07
1.67553e-07
-8.95842e-07
1.70029e-07
-9.53587e-07
1.71449e-07
-1.01098e-06
1.71725e-07
-1.0676e-06
1.70771e-07
-1.12298e-06
1.68513e-07
-1.17667e-06
1.64881e-07
-1.22819e-06
1.59816e-07
-1.27705e-06
1.53266e-07
-1.32276e-06
1.4519e-07
-1.36484e-06
1.35555e-07
-1.40279e-06
1.24341e-07
-1.43613e-06
1.1154e-07
-1.4644e-06
9.71564e-08
-1.48713e-06
8.1212e-08
-1.50389e-06
6.37443e-08
-1.51428e-06
4.48084e-08
-1.51795e-06
2.44687e-08
-1.51454e-06
2.96668e-09
-1.50379e-06
-1.96406e-08
-1.48548e-06
-4.32086e-08
-1.45949e-06
-6.74643e-08
-1.42575e-06
-9.21391e-08
-1.3843e-06
-1.16924e-07
-1.33527e-06
-1.41436e-07
-1.27895e-06
-1.65255e-07
-1.21571e-06
-1.87937e-07
-1.1461e-06
-2.09006e-07
-1.07077e-06
-2.27958e-07
-9.9054e-07
-2.44286e-07
-9.06348e-07
-2.57497e-07
-8.19273e-07
-2.67137e-07
-7.305e-07
-2.72816e-07
-6.41303e-07
-2.74238e-07
-5.53012e-07
-2.71225e-07
-4.66978e-07
-2.6374e-07
-3.84528e-07
-2.51905e-07
-3.06916e-07
-2.36011e-07
-2.35279e-07
-2.16509e-07
-1.70591e-07
-1.94003e-07
-1.1362e-07
-1.69216e-07
-6.48998e-08
-1.42955e-07
-2.47121e-08
-1.16067e-07
6.92146e-09
-8.93879e-08
3.0231e-08
-6.37036e-08
4.56807e-08
-3.97135e-08
5.39443e-08
-1.80174e-08
5.588e-08
8.76921e-10
5.2511e-08
1.65257e-08
4.5023e-08
2.84883e-08
3.47656e-08
3.62346e-08
2.32785e-08
3.90881e-08
1.23078e-08
3.62004e-08
3.80258e-09
2.67013e-08
1.05451e-08
9.48718e-11
8.85242e-11
5.3745e-10
-9.16072e-10
1.4225e-09
-2.50427e-09
2.78848e-09
-4.29944e-09
4.63443e-09
-6.0967e-09
6.93254e-09
-7.77884e-09
9.63801e-09
-9.28183e-09
1.26961e-08
-1.05726e-08
1.60467e-08
-1.16368e-08
1.9628e-08
-1.24711e-08
2.33784e-08
-1.30799e-08
2.72383e-08
-1.34725e-08
3.11512e-08
-1.3662e-08
3.50647e-08
-1.36639e-08
3.89309e-08
-1.3496e-08
4.27073e-08
-1.31773e-08
4.63567e-08
-1.2728e-08
4.98473e-08
-1.21684e-08
5.31532e-08
-1.15192e-08
5.6254e-08
-1.08006e-08
5.91346e-08
-1.00322e-08
6.17851e-08
-9.23248e-09
6.42001e-08
-8.41858e-09
6.63788e-08
-7.60613e-09
6.8324e-08
-6.80893e-09
7.00419e-08
-6.03881e-09
7.15412e-08
-5.30549e-09
7.28327e-08
-4.61644e-09
7.39285e-08
-3.97681e-09
7.48414e-08
-3.38936e-09
7.55843e-08
-2.85441e-09
7.61691e-08
-2.36982e-09
7.66064e-08
-1.93099e-09
7.69048e-08
-1.53085e-09
7.70697e-08
-1.15994e-09
7.71031e-08
-8.06447e-10
7.7003e-08
-4.56321e-10
7.67623e-08
-9.34431e-11
7.63687e-08
3.00179e-10
7.5804e-08
7.44498e-10
7.50436e-08
1.26079e-09
7.40562e-08
1.87153e-09
7.28037e-08
2.60022e-09
7.12407e-08
3.47101e-09
6.93142e-08
4.50845e-09
6.69644e-08
5.73731e-09
6.41235e-08
7.18232e-09
6.07169e-08
8.86804e-09
5.66623e-08
1.08188e-08
5.18706e-08
1.30584e-08
4.62456e-08
1.56106e-08
3.96845e-08
1.84986e-08
3.20777e-08
2.17451e-08
2.33097e-08
2.53724e-08
1.32584e-08
2.94024e-08
1.79669e-09
3.38559e-08
-1.12074e-08
3.87526e-08
-2.58898e-08
4.41103e-08
-4.23892e-08
4.99438e-08
-6.0846e-08
5.62644e-08
-8.14002e-08
6.3079e-08
-1.0419e-07
7.03886e-08
-1.29348e-07
7.81873e-08
-1.57001e-07
8.64613e-08
-1.87263e-07
9.51874e-08
-2.20237e-07
1.04332e-07
-2.56007e-07
1.13851e-07
-2.94637e-07
1.23686e-07
-3.36163e-07
1.3377e-07
-3.80599e-07
1.4402e-07
-4.27921e-07
1.54341e-07
-4.78075e-07
1.6463e-07
-5.30967e-07
1.74768e-07
-5.86466e-07
1.84629e-07
-6.44397e-07
1.94081e-07
-7.04547e-07
2.02981e-07
-7.6666e-07
2.11188e-07
-8.3044e-07
2.18554e-07
-8.95552e-07
2.24936e-07
-9.61624e-07
2.3019e-07
-1.02825e-06
2.3418e-07
-1.095e-06
2.36774e-07
-1.1614e-06
2.37851e-07
-1.22697e-06
2.37297e-07
-1.29121e-06
2.35011e-07
-1.3536e-06
2.30903e-07
-1.41361e-06
2.24893e-07
-1.47071e-06
2.16917e-07
-1.52437e-06
2.06921e-07
-1.57404e-06
1.94867e-07
-1.61922e-06
1.80729e-07
-1.65937e-06
1.64497e-07
-1.69401e-06
1.46178e-07
-1.72265e-06
1.25797e-07
-1.74484e-06
1.03398e-07
-1.76014e-06
7.90492e-08
-1.76818e-06
5.28448e-08
-1.76861e-06
2.49044e-08
-1.76112e-06
-4.52542e-09
-1.74546e-06
-3.53011e-08
-1.72147e-06
-6.72007e-08
-1.68905e-06
-9.98869e-08
-1.64818e-06
-1.33005e-07
-1.59895e-06
-1.6615e-07
-1.54156e-06
-1.98834e-07
-1.4763e-06
-2.30509e-07
-1.40363e-06
-2.60606e-07
-1.32413e-06
-2.88514e-07
-1.23849e-06
-3.13589e-07
-1.1476e-06
-3.3518e-07
-1.05244e-06
-3.52653e-07
-9.5416e-07
-3.65422e-07
-8.53999e-07
-3.72978e-07
-7.53309e-07
-3.74928e-07
-6.53508e-07
-3.71026e-07
-5.56042e-07
-3.61205e-07
-4.62349e-07
-3.45598e-07
-3.73805e-07
-3.24556e-07
-2.91673e-07
-2.9864e-07
-2.17061e-07
-2.68615e-07
-1.50867e-07
-2.3541e-07
-9.37463e-08
-2.00075e-07
-4.60852e-08
-1.63728e-07
-7.98644e-09
-1.27487e-07
2.07293e-08
-9.24193e-08
4.05104e-08
-5.94946e-08
5.2053e-08
-2.95599e-08
5.62753e-08
-3.34532e-09
5.42991e-08
1.85019e-08
4.74366e-08
3.53508e-08
3.71878e-08
4.64834e-08
2.52558e-08
5.102e-08
1.35619e-08
4.78944e-08
4.27225e-09
3.5991e-08
1.48173e-08
1.61854e-10
-7.34218e-11
7.58974e-10
-1.51323e-09
1.8628e-09
-3.60808e-09
3.50176e-09
-5.93837e-09
5.66968e-09
-8.26459e-09
8.33489e-09
-1.0444e-08
1.14485e-08
-1.23954e-08
1.49508e-08
-1.4075e-08
1.87763e-08
-1.54622e-08
2.28567e-08
-1.65515e-08
2.71239e-08
-1.73472e-08
3.15119e-08
-1.78605e-08
3.59575e-08
-1.81077e-08
4.04022e-08
-1.81086e-08
4.47923e-08
-1.78862e-08
4.90799e-08
-1.74649e-08
5.32229e-08
-1.68709e-08
5.71854e-08
-1.61309e-08
6.09377e-08
-1.52716e-08
6.44565e-08
-1.43194e-08
6.77241e-08
-1.32998e-08
7.07285e-08
-1.22369e-08
7.34631e-08
-1.11532e-08
7.5926e-08
-1.0069e-08
7.81194e-08
-9.00231e-09
8.00491e-08
-7.96854e-09
8.17239e-08
-6.98029e-09
8.31547e-08
-6.04723e-09
8.43539e-08
-5.17596e-09
8.53344e-08
-4.36988e-09
8.61092e-08
-3.6292e-09
8.66902e-08
-2.95082e-09
8.70876e-08
-2.3284e-09
8.7309e-08
-1.75229e-09
8.73588e-08
-1.20967e-09
8.72369e-08
-6.84566e-10
8.69386e-08
-1.58043e-10
8.64536e-08
3.91622e-10
8.5765e-08
9.88727e-10
8.48495e-08
1.66002e-09
8.36761e-08
2.43414e-09
8.22063e-08
3.34136e-09
8.03932e-08
4.4133e-09
7.81818e-08
5.68246e-09
7.55083e-08
7.18194e-09
7.23005e-08
8.94508e-09
6.84776e-08
1.10052e-08
6.39503e-08
1.33954e-08
5.86209e-08
1.61482e-08
5.23834e-08
1.92959e-08
4.51241e-08
2.287e-08
3.67213e-08
2.69013e-08
2.70463e-08
3.14201e-08
1.59633e-08
3.64554e-08
3.32996e-09
4.20357e-08
-1.10014e-08
4.81872e-08
-2.71831e-08
5.49344e-08
-4.53713e-08
6.22984e-08
-6.57237e-08
7.02962e-08
-8.83984e-08
7.89391e-08
-1.13551e-07
8.8232e-08
-1.41334e-07
9.81711e-08
-1.71889e-07
1.08743e-07
-2.0535e-07
1.19922e-07
-2.41833e-07
1.3167e-07
-2.81437e-07
1.43936e-07
-3.24236e-07
1.5665e-07
-3.70279e-07
1.69729e-07
-4.19581e-07
1.83072e-07
-4.72124e-07
1.96563e-07
-5.27849e-07
2.10067e-07
-5.86657e-07
2.23437e-07
-6.48402e-07
2.36513e-07
-7.12894e-07
2.49121e-07
-7.79896e-07
2.61083e-07
-8.49125e-07
2.7221e-07
-9.20252e-07
2.82315e-07
-9.92904e-07
2.91207e-07
-1.06667e-06
2.98702e-07
-1.1411e-06
3.04621e-07
-1.21572e-06
3.08794e-07
-1.29e-06
3.11063e-07
-1.36344e-06
3.11283e-07
-1.43546e-06
3.09325e-07
-1.50553e-06
3.05074e-07
-1.57306e-06
2.98433e-07
-1.63749e-06
2.89323e-07
-1.69825e-06
2.77679e-07
-1.75478e-06
2.63457e-07
-1.80655e-06
2.46629e-07
-1.853e-06
2.27186e-07
-1.89364e-06
2.05136e-07
-1.92798e-06
1.80511e-07
-1.95554e-06
1.53361e-07
-1.97591e-06
1.23763e-07
-1.98868e-06
9.18209e-08
-1.9935e-06
5.76713e-08
-1.99009e-06
2.14872e-08
-1.97815e-06
-1.64628e-08
-1.9575e-06
-5.59557e-08
-1.928e-06
-9.66926e-08
-1.88962e-06
-1.38272e-07
-1.84237e-06
-1.80255e-07
-1.78638e-06
-2.22141e-07
-1.72187e-06
-2.63343e-07
-1.64918e-06
-3.03196e-07
-1.56878e-06
-3.41005e-07
-1.48127e-06
-3.76029e-07
-1.38737e-06
-4.07487e-07
-1.28796e-06
-4.34587e-07
-1.18406e-06
-4.56553e-07
-1.07682e-06
-4.72664e-07
-9.67511e-07
-4.82287e-07
-8.57516e-07
-4.84923e-07
-7.48297e-07
-4.80245e-07
-6.4136e-07
-4.68141e-07
-5.38218e-07
-4.48741e-07
-4.40335e-07
-4.22438e-07
-3.49084e-07
-3.89892e-07
-2.65685e-07
-3.52015e-07
-1.91158e-07
-3.09936e-07
-1.26281e-07
-2.64953e-07
-7.15507e-08
-2.18458e-07
-2.71672e-08
-1.7187e-07
6.97713e-09
-1.26564e-07
3.12883e-08
-8.38058e-08
4.64539e-08
-4.47256e-08
5.34201e-08
-1.03114e-08
5.33687e-08
1.85532e-08
4.77019e-08
4.10176e-08
3.80331e-08
5.61521e-08
2.61924e-08
6.28608e-08
1.42449e-08
5.98418e-08
4.54495e-09
4.56909e-08
1.93623e-08
2.29143e-10
-3.02592e-10
9.83141e-10
-2.26723e-09
2.30774e-09
-4.93266e-09
4.21835e-09
-7.84895e-09
6.70157e-09
-1.07478e-08
9.72088e-09
-1.34633e-08
1.32231e-08
-1.58976e-08
1.7144e-08
-1.79959e-08
2.14131e-08
-1.97312e-08
2.59568e-08
-2.10952e-08
3.07015e-08
-2.20918e-08
3.55751e-08
-2.27341e-08
4.05092e-08
-2.30417e-08
4.54395e-08
-2.3039e-08
5.03075e-08
-2.27541e-08
5.50603e-08
-2.22177e-08
5.96516e-08
-2.14622e-08
6.40417e-08
-2.0521e-08
6.81977e-08
-1.94275e-08
7.20931e-08
-1.82148e-08
7.57081e-08
-1.69147e-08
7.90287e-08
-1.55575e-08
8.20468e-08
-1.41713e-08
8.47593e-08
-1.27815e-08
8.71676e-08
-1.14106e-08
8.92769e-08
-1.00779e-08
9.10957e-08
-8.79904e-09
9.26345e-08
-7.58604e-09
9.39054e-08
-6.44693e-09
9.49213e-08
-5.38577e-09
9.56946e-08
-4.40246e-09
9.62365e-08
-3.49275e-09
9.65563e-08
-2.64821e-09
9.66603e-08
-1.85623e-09
9.65507e-08
-1.10007e-09
9.62252e-08
-3.59039e-10
9.56757e-08
3.91414e-10
9.48879e-08
1.1794e-09
9.38403e-08
2.03638e-09
9.25035e-08
2.99683e-09
9.08398e-08
4.09777e-09
8.88029e-08
5.37833e-09
8.63368e-08
6.87933e-09
8.33765e-08
8.64279e-09
7.9847e-08
1.07115e-08
7.56636e-08
1.31284e-08
7.07321e-08
1.59367e-08
6.49484e-08
1.9179e-08
5.81992e-08
2.28974e-08
5.0362e-08
2.71331e-08
4.13053e-08
3.19266e-08
3.08895e-08
3.73172e-08
1.89667e-08
4.33429e-08
5.38195e-09
5.00402e-08
-1.00263e-08
5.7444e-08
-2.74252e-08
6.5586e-08
-4.69856e-08
7.44949e-08
-6.88815e-08
8.41943e-08
-9.3287e-08
9.47017e-08
-1.20375e-07
1.06027e-07
-1.50312e-07
1.1817e-07
-1.83259e-07
1.31118e-07
-2.19364e-07
1.44848e-07
-2.5876e-07
1.59317e-07
-3.01557e-07
1.74468e-07
-3.47844e-07
1.90223e-07
-3.97678e-07
2.06484e-07
-4.51081e-07
2.23133e-07
-5.08039e-07
2.4003e-07
-5.68492e-07
2.57016e-07
-6.32335e-07
2.7391e-07
-6.99416e-07
2.90518e-07
-7.69529e-07
3.06626e-07
-8.42418e-07
3.22011e-07
-9.17776e-07
3.36441e-07
-9.95247e-07
3.4968e-07
-1.07442e-06
3.61493e-07
-1.15486e-06
3.71645e-07
-1.23607e-06
3.79914e-07
-1.31754e-06
3.86086e-07
-1.39871e-06
3.89963e-07
-1.47901e-06
3.91367e-07
-1.55786e-06
3.90136e-07
-1.63467e-06
3.86131e-07
-1.70883e-06
3.79237e-07
-1.77976e-06
3.69357e-07
-1.84685e-06
3.5642e-07
-1.90955e-06
3.40375e-07
-1.96729e-06
3.21194e-07
-2.01953e-06
2.98871e-07
-2.06576e-06
2.7342e-07
-2.1055e-06
2.44877e-07
-2.1383e-06
2.13303e-07
-2.16372e-06
1.78783e-07
-2.18138e-06
1.41428e-07
-2.19095e-06
1.01383e-07
-2.1921e-06
5.88286e-08
-2.1846e-06
1.39865e-08
-2.16822e-06
-3.28428e-08
-2.14281e-06
-8.13646e-08
-2.1083e-06
-1.3121e-07
-2.06465e-06
-1.81918e-07
-2.01194e-06
-2.32969e-07
-1.9503e-06
-2.83773e-07
-1.87999e-06
-3.33654e-07
-1.80135e-06
-3.81841e-07
-1.71484e-06
-4.27517e-07
-1.62105e-06
-4.69819e-07
-1.5207e-06
-5.07833e-07
-1.41466e-06
-5.4063e-07
-1.30392e-06
-5.67294e-07
-1.18962e-06
-5.86963e-07
-1.07303e-06
-5.98875e-07
-9.55537e-07
-6.02415e-07
-8.38618e-07
-5.97164e-07
-7.23812e-07
-5.82947e-07
-6.1268e-07
-5.59872e-07
-5.0676e-07
-5.28358e-07
-4.07509e-07
-4.89142e-07
-3.16252e-07
-4.43271e-07
-2.34125e-07
-3.92064e-07
-1.62023e-07
-3.37055e-07
-1.00561e-07
-2.7992e-07
-5.0044e-08
-2.22387e-07
-1.04538e-08
-1.66154e-07
1.85533e-08
-1.12813e-07
3.76322e-08
-6.38045e-08
4.77287e-08
-2.0408e-08
5.00554e-08
1.62265e-08
4.60737e-08
4.49993e-08
3.74787e-08
6.47472e-08
2.61986e-08
7.41408e-08
1.44174e-08
7.16231e-08
4.64466e-09
5.54637e-08
2.4007e-08
2.94826e-10
-5.97492e-10
1.20427e-09
-3.17671e-09
2.74783e-09
-6.47621e-09
4.92596e-09
-1.00271e-08
7.71635e-09
-1.35381e-08
1.10766e-08
-1.68236e-08
1.49489e-08
-1.97699e-08
1.92647e-08
-2.23116e-08
2.39488e-08
-2.44153e-08
2.89229e-08
-2.60694e-08
3.41086e-08
-2.72775e-08
3.94288e-08
-2.80544e-08
4.48101e-08
-2.8423e-08
5.01836e-08
-2.84125e-08
5.54862e-08
-2.80567e-08
6.06608e-08
-2.73923e-08
6.56574e-08
-2.64588e-08
7.04328e-08
-2.52964e-08
7.4951e-08
-2.39457e-08
7.9183e-08
-2.24468e-08
8.31067e-08
-2.08384e-08
8.67064e-08
-1.91571e-08
8.99722e-08
-1.74371e-08
9.28998e-08
-1.57091e-08
9.54896e-08
-1.40004e-08
9.77461e-08
-1.23344e-08
9.96769e-08
-1.07299e-08
1.01292e-07
-9.20116e-09
1.02603e-07
-7.75783e-09
1.03622e-07
-6.40443e-09
1.0436e-07
-5.14045e-09
1.04827e-07
-3.9602e-09
1.05032e-07
-2.85283e-09
1.04978e-07
-1.80231e-09
1.04665e-07
-7.87525e-10
1.04089e-07
2.17603e-10
1.03236e-07
1.2439e-09
1.02089e-07
2.32665e-09
1.0062e-07
3.50529e-09
9.87938e-08
4.823e-09
9.65654e-08
6.32613e-09
9.38801e-08
8.06368e-09
9.06726e-08
1.00868e-08
8.68674e-08
1.2448e-08
8.23781e-08
1.52008e-08
7.71073e-08
1.83992e-08
7.0947e-08
2.2097e-08
6.37787e-08
2.63474e-08
5.54732e-08
3.12028e-08
4.58917e-08
3.67147e-08
3.48854e-08
4.29329e-08
2.22969e-08
4.99057e-08
7.96022e-09
5.76795e-08
-8.29793e-09
6.62984e-08
-2.66572e-08
7.58032e-08
-4.7302e-08
8.62309e-08
-7.04203e-08
9.76132e-08
-9.62009e-08
1.09975e-07
-1.24831e-07
1.23332e-07
-1.56495e-07
1.3769e-07
-1.91366e-07
1.53041e-07
-2.29609e-07
1.69361e-07
-2.7137e-07
1.86609e-07
-3.16775e-07
2.04722e-07
-3.65924e-07
2.23617e-07
-4.18884e-07
2.43183e-07
-4.75686e-07
2.63286e-07
-5.36321e-07
2.83767e-07
-6.0073e-07
3.04439e-07
-6.68807e-07
3.25093e-07
-7.40393e-07
3.45496e-07
-8.15271e-07
3.65396e-07
-8.93171e-07
3.84525e-07
-9.73764e-07
4.02604e-07
-1.05667e-06
4.19348e-07
-1.14146e-06
4.34468e-07
-1.22765e-06
4.47684e-07
-1.31472e-06
4.5872e-07
-1.40213e-06
4.67317e-07
-1.48928e-06
4.73235e-07
-1.57557e-06
4.76255e-07
-1.66039e-06
4.76185e-07
-1.74311e-06
4.72857e-07
-1.82311e-06
4.66134e-07
-1.89978e-06
4.55907e-07
-1.97252e-06
4.42094e-07
-2.04074e-06
4.24641e-07
-2.10389e-06
4.03521e-07
-2.16142e-06
3.78731e-07
-2.21285e-06
3.50295e-07
-2.25768e-06
3.18258e-07
-2.2955e-06
2.8269e-07
-2.32588e-06
2.43688e-07
-2.34847e-06
2.01371e-07
-2.36293e-06
1.5589e-07
-2.36898e-06
1.07429e-07
-2.36636e-06
5.62105e-08
-2.35487e-06
2.50047e-09
-2.33435e-06
-5.3366e-08
-2.30468e-06
-1.11033e-07
-2.26582e-06
-1.70073e-07
-2.21777e-06
-2.29966e-07
-2.16061e-06
-2.90126e-07
-2.0945e-06
-3.49883e-07
-2.01968e-06
-4.08478e-07
-1.93647e-06
-4.65048e-07
-1.84533e-06
-5.18662e-07
-1.74681e-06
-5.6834e-07