/*--------------------------------*- C++ -*----------------------------------*\
  =========                 |
  \\      /  F ield         | OpenFOAM: The Open Source CFD Toolbox
   \\    /   O peration     | Website:  https://openfoam.org
    \\  /    A nd           | Version:  12
     \\/     M anipulation  |
\*---------------------------------------------------------------------------*/
FoamFile
{
    format      ascii;
    class       volScalarField;
    location    "0.1";
    object      nut;
}
// * * * * * * * * * * * * * * * * * * * * * * * * * * * * * * * * * * * * * //

dimensions      [0 2 -1 0 0 0 0];

internalField   nonuniform List<scalar> 
900
(
1.5197e-15
1.02255e-14
2.23095e-14
3.59915e-14
5.02686e-14
6.44156e-14
7.78671e-14
9.01789e-14
1.01011e-13
1.10114e-13
1.17325e-13
1.22549e-13
1.25742e-13
1.26941e-13
1.26251e-13
1.23754e-13
1.19579e-13
1.13881e-13
1.06832e-13
9.86126e-14
8.9412e-14
7.94244e-14
6.88498e-14
5.78983e-14
4.67976e-14
3.58046e-14
2.52242e-14
1.54433e-14
7.02041e-15
1.04106e-15
4.58057e-14
1.50524e-12
3.68155e-12
6.0754e-12
8.54764e-12
1.09865e-11
1.33003e-11
1.54152e-11
1.72742e-11
1.88358e-11
2.00721e-11
2.09675e-11
2.15141e-11
2.17188e-11
2.16006e-11
2.11726e-11
2.0457e-11
1.94806e-11
1.82727e-11
1.68644e-11
1.52877e-11
1.35758e-11
1.17623e-11
9.88273e-12
7.97519e-12
6.08218e-12
4.2528e-12
2.54511e-12
1.03229e-12
3.13628e-14
9.62745e-14
7.89163e-12
2.44584e-11
4.28757e-11
6.1582e-11
7.98429e-11
9.70593e-11
1.12735e-10
1.26478e-10
1.38001e-10
1.47111e-10
1.53701e-10
1.57713e-10
1.59207e-10
1.5833e-10
1.55173e-10
1.49904e-10
1.42717e-10
1.33829e-10
1.23464e-10
1.11855e-10
9.92402e-11
8.58589e-11
7.19603e-11
5.78079e-11
4.36872e-11
2.99122e-11
1.68525e-11
5.39843e-12
6.57696e-14
1.55127e-13
1.80678e-11
7.05019e-11
1.34434e-10
1.99445e-10
2.62293e-10
3.21077e-10
3.74304e-10
4.20793e-10
4.59669e-10
4.90347e-10
5.1251e-10
5.25986e-10
5.30992e-10
5.28055e-10
5.17471e-10
4.99802e-10
4.75703e-10
4.45886e-10
4.11094e-10
3.72089e-10
3.29634e-10
2.84498e-10
2.37461e-10
1.89333e-10
1.40981e-10
9.34146e-11
4.83899e-11
1.23187e-11
1.0559e-13
2.1933e-13
2.97496e-11
1.37366e-10
2.85278e-10
4.39663e-10
5.8862e-10
7.27043e-10
8.51659e-10
9.60027e-10
1.05036e-09
1.1215e-09
1.17283e-09
1.204e-09
1.2156e-09
1.20888e-09
1.18452e-09
1.14382e-09
1.08827e-09
1.01949e-09
9.39152e-10
8.48956e-10
7.50588e-10
6.45719e-10
5.36027e-10
4.23253e-10
3.09365e-10
1.97252e-10
9.38041e-11
2.01863e-11
1.48556e-13
2.86305e-13
4.1846e-11
2.16119e-10
4.83131e-10
7.73274e-10
1.05516e-09
1.31632e-09
1.5503e-09
1.7529e-09
1.92125e-09
2.0535e-09
2.14879e-09
2.20662e-09
2.22815e-09
2.21585e-09
2.1709e-09
2.09573e-09
1.99306e-09
1.86582e-09
1.71704e-09
1.54974e-09
1.36691e-09
1.17148e-09
9.66405e-10
7.54842e-10
5.40883e-10
3.31916e-10
1.46621e-10
2.82116e-11
1.92722e-13
3.53869e-13
5.38731e-11
2.99441e-10
7.09626e-10
1.17509e-09
1.63304e-09
2.05751e-09
2.43657e-09
2.76357e-09
3.03441e-09
3.24665e-09
3.39931e-09
3.49183e-09
3.52626e-09
3.50667e-09
3.43493e-09
3.31488e-09
3.15082e-09
2.94734e-09
2.70916e-09
2.44098e-09
2.14739e-09
1.83293e-09
1.50223e-09
1.16058e-09
8.15769e-10
4.83578e-10
2.01528e-10
3.60313e-11
2.36442e-13
4.20099e-13
6.5524e-11
3.82439e-10
9.47536e-10
1.61473e-09
2.28139e-09
2.90087e-09
3.453e-09
3.92786e-09
4.31999e-09
4.6265e-09
4.84651e-09
4.97957e-09
5.02889e-09
5.0005e-09
4.89704e-09
4.72401e-09
4.48753e-09
4.1941e-09
3.85035e-09
3.46291e-09
3.03827e-09
2.58284e-09
2.10337e-09
1.6082e-09
1.11086e-09
6.3944e-10
2.54958e-10
4.34168e-11
2.7829e-13
4.83254e-13
7.65404e-11
4.61829e-10
1.18299e-09
2.06346e-09
2.95671e-09
3.79022e-09
4.53246e-09
5.16913e-09
5.6933e-09
6.10195e-09
6.39458e-09
6.57102e-09
6.63589e-09
6.59738e-09
6.45897e-09
6.22794e-09
5.91235e-09
5.52069e-09
5.06169e-09
4.54404e-09
3.9763e-09
3.36707e-09
2.72572e-09
2.06458e-09
1.4048e-09
7.89436e-10
3.04566e-10
5.01838e-11
3.17018e-13
5.41746e-13
8.66832e-11
5.35209e-10
1.40526e-09
2.4966e-09
3.61901e-09
4.67091e-09
5.60729e-09
6.4087e-09
7.06675e-09
7.57839e-09
7.94379e-09
8.16322e-09
8.24294e-09
8.19325e-09
8.01855e-09
7.72791e-09
7.33129e-09
6.83921e-09
6.26248e-09
5.61196e-09
4.89844e-09
4.13291e-09
3.32777e-09
2.50011e-09
1.67991e-09
9.26175e-10
3.48731e-10
5.61723e-11
3.5154e-13
5.94133e-13
9.57284e-11
6.00668e-10
1.60595e-09
2.89373e-09
4.23334e-09
5.49372e-09
6.61543e-09
7.57354e-09
8.35822e-09
8.96664e-09
9.39986e-09
9.65872e-09
9.75131e-09
9.68976e-09
9.47942e-09
9.13103e-09
8.65632e-09
8.06772e-09
7.37809e-09
6.60041e-09
5.74775e-09
4.83367e-09
3.87383e-09
2.89041e-09
1.92251e-09
1.04433e-09
3.86272e-10
6.1245e-11
3.8094e-13
6.3913e-13
1.03471e-10
6.56603e-10
1.77842e-09
3.23829e-09
4.77038e-09
6.21626e-09
7.50261e-09
8.59919e-09
9.49498e-09
1.01876e-08
1.06792e-08
1.09713e-08
1.10737e-08
1.10001e-08
1.07568e-08
1.03558e-08
9.81057e-09
9.13514e-09
8.34423e-09
7.45287e-09
6.47635e-09
5.43082e-09
4.33519e-09
3.21656e-09
2.12245e-09
1.14014e-09
4.16321e-10
6.52891e-11
4.04473e-13
6.7562e-13
1.09729e-10
7.01631e-10
1.91735e-09
3.51699e-09
5.20626e-09
6.80358e-09
8.22362e-09
9.43173e-09
1.04161e-08
1.11751e-08
1.17119e-08
1.20289e-08
1.21376e-08
1.20523e-08
1.17805e-08
1.13353e-08
1.07312e-08
9.98368e-09
9.10912e-09
8.12433e-09
7.04666e-09
5.89465e-09
4.69024e-09
3.46478e-09
2.2726e-09
1.21103e-09
4.38262e-10
6.82194e-11
4.21577e-13
7.02669e-13
1.14349e-10
7.34602e-10
2.01851e-09
3.71948e-09
5.52231e-09
7.22819e-09
8.74288e-09
1.00287e-08
1.10738e-08
1.18773e-08
1.24435e-08
1.27757e-08
1.28866e-08
1.2791e-08
1.2497e-08
1.20184e-08
1.13706e-08
1.05701e-08
9.6344e-09
8.58187e-09
7.43157e-09
6.20407e-09
4.92385e-09
3.62558e-09
2.36817e-09
1.25529e-09
4.51664e-10
6.99743e-11
4.31862e-13
7.19543e-13
1.17209e-10
7.54605e-10
2.07869e-09
3.83808e-09
5.7049e-09
7.47015e-09
9.03474e-09
1.03598e-08
1.14341e-08
1.22577e-08
1.2836e-08
1.3173e-08
1.32823e-08
1.31784e-08
1.28698e-08
1.23706e-08
1.16967e-08
1.08651e-08
9.89412e-09
8.80322e-09
7.61293e-09
6.34545e-09
5.02692e-09
3.69371e-09
2.40683e-09
1.2722e-09
4.56402e-10
7.05353e-11
4.35179e-13
7.25726e-13
1.18217e-10
7.6098e-10
2.09567e-09
3.86778e-09
5.74539e-09
7.5172e-09
9.08381e-09
1.04073e-08
1.14775e-08
1.22958e-08
1.28684e-08
1.31999e-08
1.33041e-08
1.31945e-08
1.28804e-08
1.23754e-08
1.16952e-08
1.08571e-08
9.87952e-09
8.78254e-09
7.58737e-09
6.31714e-09
4.99886e-09
3.66939e-09
2.38913e-09
1.26215e-09
4.52614e-10
6.99158e-11
4.3157e-13
7.20961e-13
1.17334e-10
7.53456e-10
2.0687e-09
3.80718e-09
5.64176e-09
7.36684e-09
8.88735e-09
1.01683e-08
1.12015e-08
1.19894e-08
1.25387e-08
1.28547e-08
1.29505e-08
1.28386e-08
1.25281e-08
1.20323e-08
1.13662e-08
1.05465e-08
9.59133e-09
8.5207e-09
7.35599e-09
6.12053e-09
4.84126e-09
3.55395e-09
2.31597e-09
1.22567e-09
4.40487e-10
6.8145e-11
4.21214e-13
7.05156e-13
1.14535e-10
7.31798e-10
1.99712e-09
3.65543e-09
5.39364e-09
7.01998e-09
8.44822e-09
9.64811e-09
1.06137e-08
1.13485e-08
1.18592e-08
1.21514e-08
1.2237e-08
1.21269e-08
1.183e-08
1.13586e-08
1.07264e-08
9.94928e-09
9.0446e-09
8.03159e-09
6.93113e-09
5.76598e-09
4.5621e-09
3.35288e-09
2.19044e-09
1.1642e-09
4.20455e-10
6.52862e-11
4.04481e-13
6.78414e-13
1.09825e-10
6.96096e-10
1.88184e-09
3.41604e-09
5.00897e-09
6.49e-09
7.78534e-09
8.87068e-09
9.74247e-09
1.04047e-08
1.08638e-08
1.11254e-08
1.11995e-08
1.10955e-08
1.08214e-08
1.03881e-08
9.8081e-09
9.0957e-09
8.26697e-09
7.33983e-09
6.33395e-09
5.27078e-09
4.17442e-09
3.07488e-09
2.01739e-09
1.07973e-09
3.93122e-10
6.14281e-11
3.81904e-13
6.41226e-13
1.03286e-10
6.46989e-10
1.72562e-09
3.09661e-09
4.50252e-09
5.79973e-09
6.92939e-09
7.87368e-09
8.63117e-09
9.20598e-09
9.6038e-09
9.82983e-09
9.89196e-09
9.79788e-09
9.55458e-09
9.1713e-09
8.65888e-09
8.0298e-09
7.29833e-09
6.48055e-09
5.59428e-09
4.65896e-09
3.6962e-09
2.73185e-09
1.80331e-09
9.74875e-10
3.59236e-10
5.66811e-11
3.54152e-13
5.94294e-13
9.50239e-11
5.85372e-10
1.53246e-09
2.70826e-09
3.89551e-09
4.98151e-09
5.92323e-09
6.70903e-09
7.33907e-09
7.81714e-09
8.1478e-09
8.33548e-09
8.38588e-09
8.3052e-09
8.09887e-09
7.77444e-09
7.34096e-09
6.80885e-09
6.19022e-09
5.49889e-09
4.75026e-09
3.96124e-09
3.15038e-09
2.33903e-09
1.55654e-09
8.52893e-10
3.19678e-10
5.11734e-11
3.22016e-13
5.38581e-13
8.51865e-11
5.12571e-10
1.30829e-09
2.26686e-09
3.21711e-09
4.07835e-09
4.82245e-09
5.44291e-09
5.94073e-09
6.31893e-09
6.58079e-09
6.72955e-09
6.76902e-09
6.70415e-09
6.53848e-09
6.2779e-09
5.92968e-09
5.50207e-09
5.00481e-09
4.44915e-09
3.84775e-09
3.21458e-09
2.56476e-09
1.91512e-09
1.28748e-09
7.17842e-10
2.7546e-10
4.50459e-11
2.8638e-13
4.75329e-13
7.39687e-11
4.30378e-10
1.06163e-09
1.79397e-09
2.50507e-09
3.1439e-09
3.69458e-09
4.15418e-09
4.52379e-09
4.80537e-09
5.00094e-09
5.11247e-09
5.14227e-09
5.09404e-09
4.96972e-09
4.7736e-09
4.5112e-09
4.18862e-09
3.81321e-09
3.39355e-09
2.93937e-09
2.46146e-09
1.97153e-09
1.48238e-09
1.0089e-09
5.74854e-10
2.27767e-10
3.8447e-11
2.48202e-13
4.06081e-13
6.1612e-11
3.41346e-10
8.0437e-10
1.31771e-09
1.8056e-09
2.24088e-09
2.61615e-09
2.93038e-09
3.18416e-09
3.37841e-09
3.51404e-09
3.59201e-09
3.61349e-09
3.58104e-09
3.49549e-09
3.35965e-09
3.17742e-09
2.95296e-09
2.69137e-09
2.39869e-09
2.08181e-09
1.74843e-09
1.40691e-09
1.06614e-09
7.3606e-10
4.30555e-10
1.7806e-10
3.15279e-11
2.08492e-13
3.3272e-13
4.84158e-11
2.49256e-10
5.52888e-10
8.72741e-10
1.17108e-09
1.43656e-09
1.66623e-09
1.85961e-09
2.01679e-09
2.13793e-09
2.22319e-09
2.27285e-09
2.28734e-09
2.26822e-09
2.21576e-09
2.13151e-09
2.01797e-09
1.87771e-09
1.7139e-09
1.53034e-09
1.33141e-09
1.12206e-09
9.07634e-10
6.93832e-10
4.86634e-10
2.93422e-10
1.28328e-10
2.44403e-11
1.68301e-13
2.57563e-13
3.47752e-11
1.59995e-10
3.28501e-10
4.9743e-10
6.53253e-10
7.92292e-10
9.13517e-10
1.01648e-09
1.10088e-09
1.16649e-09
1.21315e-09
1.24082e-09
1.24958e-09
1.24021e-09
1.2128e-09
1.16798e-09
1.10719e-09
1.03178e-09
9.43453e-10
8.44263e-10
7.36605e-10
6.23186e-10
5.06985e-10
3.91164e-10
2.78978e-10
1.73896e-10
8.14947e-11
1.73533e-11
1.28729e-13
1.83509e-13
2.13125e-11
8.26648e-11
1.54958e-10
2.25007e-10
2.89692e-10
3.48026e-10
3.99466e-10
4.43611e-10
4.80145e-10
5.0882e-10
5.29459e-10
5.41961e-10
5.46305e-10
5.42791e-10
5.31482e-10
5.12518e-10
4.86569e-10
4.54205e-10
4.16159e-10
3.73319e-10
3.26724e-10
2.77559e-10
2.27138e-10
1.76876e-10
1.28235e-10
8.26713e-11
4.18696e-11
1.05337e-11
9.09741e-14
1.14277e-13
9.37081e-12
2.8685e-11
4.91153e-11
6.88592e-11
8.73704e-11
1.04312e-10
1.19433e-10
1.32539e-10
1.43483e-10
1.52151e-10
1.58465e-10
1.62375e-10
1.6386e-10
1.62998e-10
1.59829e-10
1.54341e-10
1.46753e-10
1.37233e-10
1.25996e-10
1.13305e-10
9.94689e-11
8.48409e-11
6.98168e-11
5.48281e-11
4.03309e-11
2.67868e-11
1.464e-11
4.58779e-12
5.64571e-14
5.46011e-14
1.78456e-12
4.27298e-12
6.86936e-12
9.43818e-12
1.189e-11
1.41618e-11
1.62076e-11
1.79936e-11
1.94946e-11
2.0692e-11
2.15725e-11
2.21278e-11
2.23541e-11
2.22601e-11
2.18558e-11
2.11306e-11
2.01185e-11
1.88416e-11
1.73289e-11
1.56157e-11
1.37438e-11
1.1761e-11
9.7212e-12
7.68366e-12
5.71217e-12
3.87415e-12
2.23881e-12
8.7546e-13
2.68906e-14
1.82728e-15
1.20024e-14
2.55719e-14
4.0249e-14
5.5001e-14
6.91978e-14
8.24191e-14
9.43686e-14
1.04831e-13
1.13649e-13
1.20705e-13
1.25918e-13
1.29235e-13
1.30631e-13
1.30154e-13
1.27879e-13
1.23714e-13
1.17872e-13
1.10479e-13
1.01705e-13
9.17546e-14
8.08699e-14
6.93304e-14
5.74498e-14
4.55745e-14
3.408e-14
2.33693e-14
1.38777e-14
6.11092e-15
9.04425e-16
)
;

boundaryField
{
    movingWall
    {
        type            nutkWallFunction;
        Cmu             0.09;
        kappa           0.41;
        E               9.8;
        value           uniform 0;
    }
    fixedWalls
    {
        type            nutkWallFunction;
        Cmu             0.09;
        kappa           0.41;
        E               9.8;
        value           uniform 0;
    }
    frontAndBack
    {
        type            empty;
    }
}


// ************************************************************************* //
