/*--------------------------------*- C++ -*----------------------------------*\
  =========                 |
  \\      /  F ield         | OpenFOAM: The Open Source CFD Toolbox
   \\    /   O peration     | Website:  https://openfoam.org
    \\  /    A nd           | Version:  12
     \\/     M anipulation  |
\*---------------------------------------------------------------------------*/
FoamFile
{
    format      ascii;
    class       volVectorField;
    location    "0.1";
    object      U;
}
// * * * * * * * * * * * * * * * * * * * * * * * * * * * * * * * * * * * * * //

dimensions      [0 1 -1 0 0 0 0];

internalField   nonuniform List<vector> 
900
(
(0.000363051 -0.000155434 0)
(-3.95489e-05 8.38948e-05 0)
(-0.00225407 0.000246878 0)
(-0.00567727 0.00033225 0)
(-0.00968508 0.000360339 0)
(-0.0137952 0.000349622 0)
(-0.0176805 0.000316529 0)
(-0.0211526 0.000272962 0)
(-0.024128 0.00022695 0)
(-0.0265941 0.000183328 0)
(-0.0285811 0.000144526 0)
(-0.0301393 0.00011126 0)
(-0.0313227 8.30863e-05 0)
(-0.0321777 5.87324e-05 0)
(-0.032736 3.65357e-05 0)
(-0.0330085 1.46312e-05 0)
(-0.0329862 -9.56077e-06 0)
(-0.0326325 -3.78341e-05 0)
(-0.031892 -7.24906e-05 0)
(-0.0306903 -0.000115016 0)
(-0.0289442 -0.000166015 0)
(-0.0265762 -0.000224463 0)
(-0.0235369 -0.000286904 0)
(-0.0198343 -0.000346587 0)
(-0.0155708 -0.000392751 0)
(-0.0109813 -0.00041039 0)
(-0.00646648 -0.000380441 0)
(-0.0025979 -0.000283385 0)
(-8.83047e-05 -9.95032e-05 0)
(0.000393073 0.00016738 0)
(0.000359522 -0.000150956 0)
(-0.00180998 0.00143807 0)
(-0.00815425 0.00291025 0)
(-0.0174119 0.00379187 0)
(-0.0281432 0.00413278 0)
(-0.0391693 0.00406985 0)
(-0.0496497 0.00374822 0)
(-0.0590769 0.00328842 0)
(-0.0672085 0.00277871 0)
(-0.0739892 0.0022766 0)
(-0.0794798 0.00181408 0)
(-0.0837991 0.0014036 0)
(-0.0870802 0.00104355 0)
(-0.0894396 0.000722574 0)
(-0.0909575 0.000422874 0)
(-0.0916588 0.00012474 0)
(-0.091521 -0.000197401 0)
(-0.0904495 -0.000565032 0)
(-0.0883019 -0.000998448 0)
(-0.0848911 -0.00151083 0)
(-0.0800122 -0.00210347 0)
(-0.0734812 -0.00275907 0)
(-0.0651929 -0.00343422 0)
(-0.0551958 -0.00405234 0)
(-0.043781 -0.00449975 0)
(-0.0315707 -0.00462856 0)
(-0.0195817 -0.00427204 0)
(-0.00920429 -0.00328654 0)
(-0.00208323 -0.00163662 0)
(0.000381585 0.000142422 0)
(7.85598e-05 0.000463348 0)
(-0.00443346 0.00435032 0)
(-0.0147417 0.00791059 0)
(-0.0291184 0.0101079 0)
(-0.0455712 0.0109866 0)
(-0.0624331 0.0108446 0)
(-0.078479 0.0100274 0)
(-0.0929497 0.00883643 0)
(-0.10547 0.00749904 0)
(-0.115941 0.00616731 0)
(-0.12444 0.00492817 0)
(-0.131135 0.00381747 0)
(-0.136218 0.00283367 0)
(-0.139858 0.00194909 0)
(-0.142173 0.00111828 0)
(-0.1432 0.000290005 0)
(-0.142902 -0.000599639 0)
(-0.141143 -0.001607 0)
(-0.137713 -0.00278192 0)
(-0.132342 -0.00415566 0)
(-0.124734 -0.00572759 0)
(-0.114633 -0.00744845 0)
(-0.1019 -0.00920205 0)
(-0.0866259 -0.0107891 0)
(-0.0692553 -0.0119202 0)
(-0.0507075 -0.0122285 0)
(-0.0324517 -0.0113177 0)
(-0.0164464 -0.00887591 0)
(-0.00496573 -0.00489865 0)
(7.22608e-05 -0.000558903 0)
(-0.000268887 0.00184239 0)
(-0.00733422 0.0089261 0)
(-0.0214674 0.015183 0)
(-0.0404519 0.0190757 0)
(-0.0618571 0.0206392 0)
(-0.0836679 0.020366 0)
(-0.104383 0.0188566 0)
(-0.123062 0.0166495 0)
(-0.139233 0.0141592 0)
(-0.152771 0.0116667 0)
(-0.163767 0.00933508 0)
(-0.17243 0.00723337 0)
(-0.178997 0.00536119 0)
(-0.183682 0.00366945 0)
(-0.18663 0.00207651 0)
(-0.187891 0.000484438 0)
(-0.187414 -0.00121716 0)
(-0.185035 -0.0031342 0)
(-0.180495 -0.00535528 0)
(-0.173458 -0.00793474 0)
(-0.163564 -0.0108677 0)
(-0.150498 -0.0140601 0)
(-0.134094 -0.0172964 0)
(-0.11447 -0.0202123 0)
(-0.0921733 -0.0222853 0)
(-0.0683318 -0.0228627 0)
(-0.0447319 -0.0212559 0)
(-0.0237324 -0.0169487 0)
(-0.00810376 -0.00997765 0)
(-0.000302382 -0.00209471 0)
(-0.000608303 0.00402583 0)
(-0.0102289 0.0151206 0)
(-0.0280192 0.0245054 0)
(-0.0511968 0.0303109 0)
(-0.0769249 0.0326052 0)
(-0.102927 0.0321107 0)
(-0.127512 0.0297232 0)
(-0.149622 0.0262577 0)
(-0.168736 0.0223485 0)
(-0.184723 0.0184291 0)
(-0.197698 0.0147528 0)
(-0.207907 0.0114285 0)
(-0.215631 0.00845679 0)
(-0.221118 0.00576305 0)
(-0.224536 0.00322236 0)
(-0.22595 0.00068232 0)
(-0.225298 -0.0020254 0)
(-0.222398 -0.00506304 0)
(-0.216952 -0.00856579 0)
(-0.208578 -0.0126151 0)
(-0.196862 -0.0172011 0)
(-0.18144 -0.0221773 0)
(-0.162111 -0.0272123 0)
(-0.138991 -0.0317495 0)
(-0.112679 -0.034995 0)
(-0.0844248 -0.0359642 0)
(-0.0562272 -0.0336293 0)
(-0.0307418 -0.0272297 0)
(-0.0111946 -0.0167996 0)
(-0.000661969 -0.00449449 0)
(-0.000918921 0.00698214 0)
(-0.0129914 0.0228618 0)
(-0.0342374 0.0357155 0)
(-0.0612336 0.0435437 0)
(-0.0907333 0.0465307 0)
(-0.12025 0.0456795 0)
(-0.147968 0.0422195 0)
(-0.172778 0.0372734 0)
(-0.19415 0.0317176 0)
(-0.211976 0.0261529 0)
(-0.226411 0.0209311 0)
(-0.237742 0.0162026 0)
(-0.246289 0.0119681 0)
(-0.252333 0.00812314 0)
(-0.256066 0.00449373 0)
(-0.25756 0.000866323 0)
(-0.256754 -0.0029922 0)
(-0.253451 -0.00730694 0)
(-0.247328 -0.0122656 0)
(-0.237966 -0.0179811 0)
(-0.224908 -0.0244404 0)
(-0.207737 -0.0314427 0)
(-0.186206 -0.0385329 0)
(-0.160393 -0.0449467 0)
(-0.130894 -0.0495937 0)
(-0.0990037 -0.0511218 0)
(-0.0668513 -0.0481182 0)
(-0.0373263 -0.0395196 0)
(-0.014112 -0.0252677 0)
(-0.000985905 -0.0077134 0)
(-0.00119823 0.0106583 0)
(-0.0155767 0.0320621 0)
(-0.0400546 0.0486721 0)
(-0.0705092 0.0585555 0)
(-0.103268 0.062126 0)
(-0.135668 0.0607359 0)
(-0.165823 0.0559918 0)
(-0.192627 0.0493511 0)
(-0.215589 0.0419483 0)
(-0.234653 0.034559 0)
(-0.250031 0.0276348 0)
(-0.262059 0.0213667 0)
(-0.271097 0.0157517 0)
(-0.277457 0.0106506 0)
(-0.281352 0.00583562 0)
(-0.282865 0.00102694 0)
(-0.281938 -0.00407871 0)
(-0.278367 -0.00977458 0)
(-0.271811 -0.0163062 0)
(-0.261825 -0.0238232 0)
(-0.247909 -0.0323145 0)
(-0.229594 -0.0415284 0)
(-0.206565 -0.0508868 0)
(-0.17883 -0.059412 0)
(-0.146921 -0.0657013 0)
(-0.112111 -0.0680036 0)
(-0.0765896 -0.0644691 0)
(-0.0434407 -0.053651 0)
(-0.0168211 -0.0352753 0)
(-0.00127361 -0.0116871 0)
(-0.00145118 0.015 0)
(-0.0179852 0.0426248 0)
(-0.0454616 0.0632313 0)
(-0.0790161 0.0751359 0)
(-0.114535 0.0791158 0)
(-0.149203 0.0769587 0)
(-0.181116 0.070699 0)
(-0.209223 0.0621546 0)
(-0.233117 0.0527285 0)
(-0.252826 0.0433714 0)
(-0.268636 0.0346311 0)
(-0.28094 0.0267335 0)
(-0.290142 0.0196656 0)
(-0.296582 0.013249 0)
(-0.300493 0.00719699 0)
(-0.301973 0.00115968 0)
(-0.300967 -0.00524034 0)
(-0.29727 -0.0123688 0)
(-0.290534 -0.020534 0)
(-0.280292 -0.029929 0)
(-0.266006 -0.0405526 0)
(-0.247147 -0.0521116 0)
(-0.223315 -0.0639134 0)
(-0.194408 -0.0747702 0)
(-0.160842 -0.0829582 0)
(-0.123801 -0.0862985 0)
(-0.0854733 -0.0824431 0)
(-0.0491023 -0.0694606 0)
(-0.0193361 -0.0467127 0)
(-0.00153262 -0.0163542 0)
(-0.00168642 0.0199602 0)
(-0.0202432 0.0544535 0)
(-0.050486 0.0792451 0)
(-0.086776 0.0930712 0)
(-0.124549 0.0972233 0)
(-0.160867 0.0940265 0)
(-0.193858 0.0860007 0)
(-0.222579 0.0753491 0)
(-0.24675 0.0637473 0)
(-0.266518 0.0523158 0)
(-0.282255 0.041689 0)
(-0.294423 0.0321174 0)
(-0.303468 0.0235708 0)
(-0.309761 0.0158249 0)
(-0.313551 0.00853013 0)
(-0.31495 0.00126363 0)
(-0.313913 -0.00642906 0)
(-0.310239 -0.0149895 0)
(-0.303577 -0.0247934 0)
(-0.293446 -0.0360844 0)
(-0.279274 -0.0488836 0)
(-0.260466 -0.0628707 0)
(-0.236518 -0.0772543 0)
(-0.207185 -0.0906485 0)
(-0.172713 -0.101008 0)
(-0.13413 -0.105697 0)
(-0.0935586 -0.101802 0)
(-0.0543651 -0.0867862 0)
(-0.0216986 -0.0594765 0)
(-0.00177433 -0.0216645 0)
(-0.00191461 0.0255032 0)
(-0.0223929 0.0674598 0)
(-0.0551779 0.0965644 0)
(-0.0938273 0.112141 0)
(-0.133327 0.116164 0)
(-0.170654 0.111612 0)
(-0.204026 0.101553 0)
(-0.232663 0.0885982 0)
(-0.256458 0.0746951 0)
(-0.275701 0.061121 0)
(-0.290872 0.0485812 0)
(-0.302502 0.0373377 0)
(-0.311082 0.0273325 0)
(-0.317009 0.018289 0)
(-0.32055 0.00979088 0)
(-0.321827 0.00134019 0)
(-0.320807 -0.00759554 0)
(-0.317301 -0.0175357 0)
(-0.310964 -0.0289285 0)
(-0.301306 -0.0420777 0)
(-0.287723 -0.0570392 0)
(-0.269553 -0.0734859 0)
(-0.246175 -0.0905509 0)
(-0.217168 -0.106671 0)
(-0.182555 -0.119487 0)
(-0.143141 -0.125884 0)
(-0.10091 -0.122305 0)
(-0.0593022 -0.105468 0)
(-0.023965 -0.0734771 0)
(-0.00201202 -0.0275844 0)
(-0.00214804 0.0316085 0)
(-0.0244871 0.0815673 0)
(-0.0596013 0.115039 0)
(-0.100214 0.132113 0)
(-0.140874 0.135637 0)
(-0.178532 0.129373 0)
(-0.211557 0.117002 0)
(-0.239397 0.101562 0)
(-0.262159 0.0852633 0)
(-0.280302 0.0695198 0)
(-0.294424 0.0550869 0)
(-0.305131 0.0422202 0)
(-0.312952 0.0308233 0)
(-0.318308 0.0205581 0)
(-0.32148 0.0109389 0)
(-0.3226 0.00139246 0)
(-0.321648 -0.00869111 0)
(-0.31845 -0.0199093 0)
(-0.312675 -0.032789 0)
(-0.303834 -0.0477026 0)
(-0.2913 -0.0647561 0)
(-0.274345 -0.0836402 0)
(-0.252221 -0.103443 0)
(-0.224302 -0.122455 0)
(-0.190344 -0.13802 0)
(-0.150852 -0.146526 0)
(-0.10759 -0.143696 0)
(-0.0639951 -0.125349 0)
(-0.0262007 -0.0886414 0)
(-0.00226036 -0.0340988 0)
(-0.00240108 0.0382732 0)
(-0.026588 0.0967137 0)
(-0.0638278 0.134515 0)
(-0.105979 0.152739 0)
(-0.14718 0.155321 0)
(-0.184433 0.146947 0)
(-0.216345 0.13198 0)
(-0.242652 0.113895 0)
(-0.263718 0.0951437 0)
(-0.280195 0.0772505 0)
(-0.292804 0.060993 0)
(-0.302221 0.0465999 0)
(-0.309013 0.033919 0)
(-0.313611 0.0225511 0)
(-0.316302 0.0119356 0)
(-0.317231 0.00142381 0)
(-0.316392 -0.00967006 0)
(-0.313632 -0.0220212 0)
(-0.308639 -0.0362351 0)
(-0.300939 -0.0527625 0)
(-0.289891 -0.0717793 0)
(-0.274712 -0.0930204 0)
(-0.25452 -0.115567 0)
(-0.228471 -0.137604 0)
(-0.196003 -0.156208 0)
(-0.157246 -0.167265 0)
(-0.113641 -0.165701 0)
(-0.0685253 -0.146267 0)
(-0.0284772 -0.104914 0)
(-0.00253583 -0.0412138 0)
(-0.00269125 0.0455151 0)
(-0.0287677 0.112852 0)
(-0.067932 0.154833 0)
(-0.111148 0.173745 0)
(-0.152199 0.174861 0)
(-0.188244 0.163947 0)
(-0.218224 0.146104 0)
(-0.242238 0.125243 0)
(-0.260945 0.10403 0)
(-0.275203 0.0840591 0)
(-0.285857 0.0660971 0)
(-0.293644 0.0503221 0)
(-0.299155 0.0365149 0)
(-0.302823 0.0242008 0)
(-0.304939 0.0127484 0)
(-0.305649 0.00143759 0)
(-0.304965 -0.0104901 0)
(-0.302757 -0.0237856 0)
(-0.298744 -0.0391346 0)
(-0.292478 -0.0570736 0)
(-0.283325 -0.0778653 0)
(-0.270453 -0.10132 0)
(-0.252864 -0.126556 0)
(-0.229481 -0.151706 0)
(-0.199386 -0.173626 0)
(-0.162253 -0.187709 0)
(-0.119081 -0.188018 0)
(-0.0729682 -0.16805 0)
(-0.0308727 -0.122254 0)
(-0.00285784 -0.0489586 0)
(-0.00304082 0.0533762 0)
(-0.0311098 0.129948 0)
(-0.0719876 0.175819 0)
(-0.115727 0.19482 0)
(-0.155839 0.193863 0)
(-0.189784 0.179949 0)
(-0.21696 0.158969 0)
(-0.237897 0.135249 0)
(-0.253586 0.111621 0)
(-0.265095 0.0897025 0)
(-0.273383 0.0702107 0)
(-0.279233 0.0532466 0)
(-0.283243 0.038508 0)
(-0.285837 0.0254427 0)
(-0.287294 0.0133479 0)
(-0.287762 0.00143665 0)
(-0.287265 -0.0111159 0)
(-0.285703 -0.0251308 0)
(-0.282838 -0.0413727 0)
(-0.278263 -0.0604694 0)
(-0.271368 -0.082787 0)
(-0.261303 -0.108244 0)
(-0.246966 -0.136044 0)
(-0.227054 -0.164333 0)
(-0.200264 -0.189811 0)
(-0.165736 -0.207416 0)
(-0.123883 -0.210297 0)
(-0.0773872 -0.190507 0)
(-0.0334733 -0.140635 0)
(-0.0032504 -0.0573883 0)
(-0.00347915 0.061928 0)
(-0.0337126 0.147981 0)
(-0.0760599 0.197272 0)
(-0.119678 0.215607 0)
(-0.157938 0.21188 0)
(-0.188794 0.194494 0)
(-0.212231 0.17015 0)
(-0.229292 0.143549 0)
(-0.241318 0.117624 0)
(-0.249583 0.0939537 0)
(-0.255138 0.0731638 0)
(-0.258789 0.0552503 0)
(-0.261115 0.0398153 0)
(-0.262518 0.0262254 0)
(-0.263251 0.0137099 0)
(-0.263455 0.00142245 0)
(-0.263168 -0.0115192 0)
(-0.262325 -0.0259982 0)
(-0.260739 -0.0428532 0)
(-0.258063 -0.0628058 0)
(-0.253737 -0.0863402 0)
(-0.246925 -0.113513 0)
(-0.236454 -0.143669 0)
(-0.220816 -0.175043 0)
(-0.198311 -0.204269 0)
(-0.16747 -0.225894 0)
(-0.127963 -0.232134 0)
(-0.0818258 -0.213412 0)
(-0.0363751 -0.160037 0)
(-0.00374451 -0.066588 0)
(-0.00404575 0.0712778 0)
(-0.036691 0.166933 0)
(-0.0801962 0.218952 0)
(-0.122903 0.235682 0)
(-0.158243 0.228406 0)
(-0.184902 0.207078 0)
(-0.203613 0.179205 0)
(-0.215992 0.149783 0)
(-0.223744 0.121761 0)
(-0.228321 0.0966088 0)
(-0.230834 0.0748112 0)
(-0.232076 0.0562335 0)
(-0.232584 0.0403713 0)
(-0.232711 0.0265095 0)
(-0.232675 0.0138159 0)
(-0.232601 0.00139501 0)
(-0.232537 -0.0116808 0)
(-0.232458 -0.0263452 0)
(-0.232237 -0.0435029 0)
(-0.231611 -0.0639674 0)
(-0.230099 -0.0883507 0)
(-0.226916 -0.116877 0)
(-0.220868 -0.149086 0)
(-0.210283 -0.183387 0)
(-0.193079 -0.216462 0)
(-0.167116 -0.242579 0)
(-0.131155 -0.253046 0)
(-0.0862942 -0.236484 0)
(-0.0396858 -0.180435 0)
(-0.00438129 -0.0766786 0)
(-0.00479452 0.0815776 0)
(-0.0401789 0.186785 0)
(-0.0844065 0.240553 0)
(-0.125211 0.254534 0)
(-0.156368 0.24286 0)
(-0.177602 0.217156 0)
(-0.190553 0.18568 0)
(-0.197466 0.153604 0)
(-0.200387 0.123782 0)
(-0.200905 0.0974952 0)
(-0.20014 0.0750391 0)
(-0.198832 0.0561241 0)
(-0.197441 0.0401322 0)
(-0.196249 0.0262701 0)
(-0.195422 0.0136543 0)
(-0.195061 0.00135323 0)
(-0.195223 -0.0115909 0)
(-0.195922 -0.0261478 0)
(-0.197108 -0.0432756 0)
(-0.198615 -0.0638727 0)
(-0.200076 -0.0886827 0)
(-0.200808 -0.11812 0)
(-0.199657 -0.151971 0)
(-0.194855 -0.188916 0)
(-0.183979 -0.225823 0)
(-0.164191 -0.256837 0)
(-0.133178 -0.272451 0)
(-0.0907499 -0.259359 0)
(-0.0435246 -0.201792 0)
(-0.00521605 -0.0878238 0)
(-0.00579944 0.0930349 0)
(-0.044327 0.207494 0)
(-0.0886326 0.261672 0)
(-0.126268 0.271541 0)
(-0.151751 0.254574 0)
(-0.16621 0.224142 0)
(-0.172352 0.189119 0)
(-0.173064 0.154689 0)
(-0.170687 0.123475 0)
(-0.166874 0.0964826 0)
(-0.162692 0.0737732 0)
(-0.158772 0.0548833 0)
(-0.155466 0.0390796 0)
(-0.152957 0.0254997 0)
(-0.151346 0.0132217 0)
(-0.150699 0.00129524 0)
(-0.151078 -0.0112503 0)
(-0.15254 -0.0254026 0)
(-0.155118 -0.0421562 0)
(-0.158764 -0.0624813 0)
(-0.163261 -0.0872491 0)
(-0.168079 -0.117078 0)
(-0.172181 -0.152047 0)
(-0.173796 -0.191201 0)
(-0.17025 -0.231757 0)
(-0.158025 -0.267951 0)
(-0.133589 -0.289644 0)
(-0.0950643 -0.281559 0)
(-0.0480173 -0.224029 0)
(-0.00632335 -0.100239 0)
(-0.00716053 0.105924 0)
(-0.049286 0.228962 0)
(-0.0927051 0.281765 0)
(-0.125536 0.285935 0)
(-0.143592 0.262794 0)
(-0.149826 0.227422 0)
(-0.148134 0.189087 0)
(-0.142013 0.152761 0)
(-0.134001 0.120682 0)
(-0.125717 0.0934956 0)
(-0.118093 0.0709876 0)
(-0.111599 0.0525114 0)
(-0.106434 0.0372249 0)
(-0.102662 0.02421 0)
(-0.100303 0.0125249 0)
(-0.0993813 0.00121899 0)
(-0.0999589 -0.0106704 0)
(-0.102137 -0.0241279 0)
(-0.106036 -0.0401635 0)
(-0.111744 -0.0597997 0)
(-0.119224 -0.0840213 0)
(-0.128157 -0.113652 0)
(-0.13771 -0.149096 0)
(-0.146234 -0.189854 0)
(-0.150937 -0.233663 0)
(-0.147711 -0.275127 0)
(-0.131723 -0.303767 0)
(-0.098969 -0.302437 0)
(-0.0532816 -0.246993 0)
(-0.00780266 -0.114199 0)
(-0.00900949 0.1206 0)
(-0.0551794 0.250986 0)
(-0.0962532 0.300089 0)
(-0.122179 0.296777 0)
(-0.130777 0.266671 0)
(-0.127282 0.226372 0)
(-0.11683 0.185192 0)
(-0.103411 0.147613 0)
(-0.089609 0.115323 0)
(-0.0768825 0.0885281 0)
(-0.0659332 0.0667144 0)
(-0.0570092 0.0490545 0)
(-0.050124 0.0346125 0)
(-0.0452011 0.022435 0)
(-0.0421645 0.0115813 0)
(-0.0409916 0.00112292 0)
(-0.0417406 -0.00987294 0)
(-0.0445545 -0.0223648 0)
(-0.0496446 -0.0373532 0)
(-0.0572465 -0.0558867 0)
(-0.067529 -0.0790399 0)
(-0.0804376 -0.107827 0)
(-0.0954403 -0.142991 0)
(-0.111153 -0.184558 0)
(-0.124857 -0.230964 0)
(-0.132053 -0.277509 0)
(-0.126595 -0.31379 0)
(-0.101973 -0.321124 0)
(-0.0593935 -0.270402 0)
(-0.00978313 -0.130049 0)
(-0.0115104 0.137496 0)
(-0.0620493 0.273192 0)
(-0.0985946 0.31562 0)
(-0.11491 0.302921 0)
(-0.111774 0.265286 0)
(-0.0970932 0.220402 0)
(-0.0771582 0.17713 0)
(-0.0562318 0.139142 0)
(-0.0367293 0.107416 0)
(-0.0197934 0.0816589 0)
(-0.00579843 0.0610531 0)
(0.005287 0.0446089 0)
(0.0136661 0.0313225 0)
(0.019571 0.0202313 0)
(0.023179 0.0104206 0)
(0.0245656 0.00100672 0)
(0.0236799 -0.00888977 0)
(0.0203407 -0.0201771 0)
(0.0142474 -0.0338189 0)
(0.0050142 -0.0508582 0)
(-0.00775215 -0.0724245 0)
(-0.0243058 -0.0996902 0)
(-0.0445063 -0.133723 0)
(-0.067397 -0.175115 0)
(-0.090583 -0.223153 0)
(-0.109477 -0.274183 0)
(-0.116787 -0.318531 0)
(-0.103234 -0.336438 0)
(-0.0663172 -0.293758 0)
(-0.012424 -0.148203 0)
(-0.0148504 0.157121 0)
(-0.0697251 0.294888 0)
(-0.0985182 0.326968 0)
(-0.101813 0.303 0)
(-0.0845276 0.25769 0)
(-0.0574123 0.209014 0)
(-0.027625 0.164741 0)
(0.000657459 0.127393 0)
(0.025459 0.0971049 0)
(0.0461259 0.0730664 0)
(0.0627052 0.0541782 0)
(0.0755539 0.0393255 0)
(0.0851105 0.0274729 0)
(0.0917685 0.01768 0)
(0.0958071 0.00908466 0)
(0.0973555 0.000872084 0)
(0.0963732 -0.00776159 0)
(0.0926464 -0.0176504 0)
(0.0857934 -0.0296924 0)
(0.0752837 -0.0448892 0)
(0.0604963 -0.064381 0)
(0.0408405 -0.089447 0)
(0.0159889 -0.121434 0)
(-0.013694 -0.161489 0)
(-0.0464288 -0.209864 0)
(-0.0779527 -0.264284 0)
(-0.100341 -0.316574 0)
(-0.101311 -0.346828 0)
(-0.07377 -0.316207 0)
(-0.0159008 -0.169122 0)
(-0.0191922 0.18 0)
(-0.0776182 0.314904 0)
(-0.0939001 0.332217 0)
(-0.0800954 0.295457 0)
(-0.0463359 0.243001 0)
(-0.00600585 0.191901 0)
(0.0334539 0.148081 0)
(0.0684543 0.112601 0)
(0.0977745 0.0846875 0)
(0.121417 0.0630427 0)
(0.139926 0.0463452 0)
(0.154008 0.033411 0)
(0.164339 0.0232185 0)
(0.171465 0.014885 0)
(0.175761 0.00762782 0)
(0.177406 0.000723126 0)
(0.17637 -0.00653666 0)
(0.172417 -0.0148898 0)
(0.165097 -0.0251413 0)
(0.153752 -0.038214 0)
(0.137548 -0.055207 0)
(0.115556 -0.077438 0)
(0.0869343 -0.106449 0)
(0.0513141 -0.14388 0)
(0.00954975 -0.190962 0)
(-0.0349621 -0.247099 0)
(-0.0744191 -0.306387 0)
(-0.0939397 -0.350303 0)
(-0.0809726 -0.336364 0)
(-0.0203509 -0.193252 0)
(-0.0245119 0.206517 0)
(-0.0842268 0.331279 0)
(-0.0813494 0.328889 0)
(-0.0457845 0.278626 0)
(0.00624817 0.220553 0)
(0.0597307 0.169078 0)
(0.107892 0.127509 0)
(0.148356 0.0952428 0)
(0.180977 0.070636 0)
(0.206545 0.0520017 0)
(0.226135 0.0378914 0)
(0.240797 0.0271254 0)
(0.25142 0.0187485 0)
(0.258683 0.0119711 0)
(0.263037 0.00611518 0)
(0.2647 0.000566624 0)
(0.263657 -0.00526905 0)
(0.259656 -0.012017 0)
(0.2522 -0.0203652 0)
(0.240536 -0.0311218 0)
(0.223651 -0.0452914 0)
(0.20031 -0.0641479 0)
(0.169157 -0.089315 0)
(0.129006 -0.122783 0)
(0.0795102 -0.16667 0)
(0.0225726 -0.222186 0)
(-0.0351705 -0.286459 0)
(-0.0775339 -0.344307 0)
(-0.0861425 -0.351996 0)
(-0.025682 -0.220824 0)
(-0.0301447 0.236642 0)
(-0.0861915 0.340852 0)
(-0.0550274 0.313835 0)
(0.00664111 0.250974 0)
(0.0774637 0.190154 0)
(0.142684 0.14106 0)
(0.197516 0.103784 0)
(0.241458 0.0760804 0)
(0.27569 0.0556129 0)
(0.301842 0.0404788 0)
(0.32149 0.0292301 0)
(0.335975 0.0207759 0)
(0.34635 0.0142801 0)
(0.353384 0.00907938 0)
(0.357577 0.00462026 0)
(0.359173 0.000411738 0)
(0.358168 -0.00401653 0)
(0.354308 -0.00916548 0)
(0.347075 -0.0155884 0)
(0.335664 -0.0239491 0)
(0.318943 -0.0351069 0)
(0.29544 -0.0502062 0)
(0.263353 -0.0708122 0)
(0.220688 -0.0990605 0)
(0.165724 -0.137707 0)
(0.0982704 -0.189652 0)
(0.0224803 -0.25555 0)
(-0.0464906 -0.325764 0)
(-0.0856764 -0.359581 0)
(-0.0310828 -0.251591 0)
(-0.0338281 0.269793 0)
(-0.0767704 0.338667 0)
(-0.00602998 0.283355 0)
(0.0845122 0.211532 0)
(0.172231 0.152435 0)
(0.245813 0.109054 0)
(0.303975 0.078151 0)
(0.348613 0.0561846 0)
(0.382309 0.0404669 0)
(0.407449 0.0291176 0)
(0.425997 0.0208354 0)
(0.43948 0.0147023 0)
(0.449033 0.0100481 0)
(0.455458 0.00635991 0)
(0.459266 0.00322106 0)
(0.460708 0.00026925 0)
(0.459785 -0.00283833 0)
(0.456258 -0.00647507 0)
(0.449619 -0.0110507 0)
(0.439063 -0.0170652 0)
(0.423423 -0.0251937 0)
(0.401106 -0.0363726 0)
(0.370006 -0.0519625 0)
(0.327462 -0.073988 0)
(0.270408 -0.105445 0)
(0.196176 -0.15045 0)
(0.105018 -0.213133 0)
(0.00774516 -0.291285 0)
(-0.0725018 -0.354279 0)
(-0.03402 -0.28464 0)
(-0.029301 0.303687 0)
(-0.0426264 0.317655 0)
(0.078973 0.234117 0)
(0.197064 0.160788 0)
(0.295799 0.109399 0)
(0.371778 0.0752107 0)
(0.428468 0.0524197 0)
(0.470255 0.0369405 0)
(0.50089 0.026213 0)
(0.523251 0.0186453 0)
(0.539474 0.0132204 0)
(0.551112 0.00926078 0)
(0.559275 0.0062922 0)
(0.564721 0.00396329 0)
(0.567929 0.00199519 0)
(0.569132 0.000150051 0)
(0.568336 -0.0017939 0)
(0.565332 -0.00408582 0)
(0.559648 -0.00699653 0)
(0.550552 -0.0108579 0)
(0.536938 -0.0161394 0)
(0.517248 -0.0235148 0)
(0.489296 -0.0340151 0)
(0.450061 -0.0492926 0)
(0.395463 -0.0720755 0)
(0.320456 -0.106843 0)
(0.220408 -0.160206 0)
(0.0975484 -0.238097 0)
(-0.0335476 -0.328896 0)
(-0.0278558 -0.31718 0)
(0.00190348 0.325843 0)
(0.0419185 0.267797 0)
(0.219256 0.165806 0)
(0.354849 0.102613 0)
(0.452903 0.0652875 0)
(0.522322 0.0429341 0)
(0.571367 0.0290499 0)
(0.606187 0.0200545 0)
(0.631038 0.0140171 0)
(0.648818 0.00985448 0)
(0.661519 0.00692212 0)
(0.67052 0.00481198 0)
(0.676771 0.00324906 0)
(0.680911 0.00203519 0)
(0.683333 0.00101623 0)
(0.684225 6.09831e-05 0)
(0.683601 -0.000941058 0)
(0.681293 -0.0021379 0)
(0.676901 -0.00367388 0)
(0.669835 -0.00572892 0)
(0.659166 -0.00857247 0)
(0.643549 -0.0126012 0)
(0.621015 -0.0184504 0)
(0.588651 -0.0272075 0)
(0.542079 -0.0408514 0)
(0.47477 -0.0631346 0)
(0.377529 -0.101088 0)
(0.240161 -0.166714 0)
(0.0554335 -0.274099 0)
(0.00616298 -0.335948 0)
(0.118928 0.288972 0)
(0.227589 0.178381 0)
(0.440446 0.086775 0)
(0.567444 0.0468344 0)
(0.646076 0.0273506 0)
(0.69734 0.0170199 0)
(0.731749 0.0111168 0)
(0.755352 0.00749409 0)
(0.771796 0.00514762 0)
(0.78335 0.00356985 0)
(0.791488 0.00247957 0)
(0.797189 0.00170749 0)
(0.801112 0.00114362 0)
(0.803689 0.000710783 0)
(0.805186 0.000350253 0)
(0.805721 1.09001e-05 0)
(0.805312 -0.00034257 0)
(0.803844 -0.00077356 0)
(0.801039 -0.00133367 0)
(0.796506 -0.00209107 0)
(0.789606 -0.00315241 0)
(0.779401 -0.00467935 0)
(0.764468 -0.00694229 0)
(0.742596 -0.0104356 0)
(0.710174 -0.0161506 0)
(0.661082 -0.0262458 0)
(0.584407 -0.0456328 0)
(0.458388 -0.0861927 0)
(0.242213 -0.18009 0)
(0.127095 -0.293553 0)
(0.49993 0.115021 0)
(0.615794 0.046612 0)
(0.770228 0.0116627 0)
(0.838277 0.00521181 0)
(0.873078 0.00272845 0)
(0.893789 0.00152342 0)
(0.906947 0.000921761 0)
(0.915655 0.000588403 0)
(0.921574 0.000386737 0)
(0.925656 0.000258232 0)
(0.928487 0.000173422 0)
(0.930445 0.000115843 0)
(0.931777 7.54325e-05 0)
(0.932644 4.54247e-05 0)
(0.933142 2.11955e-05 0)
(0.933311 -2.15474e-06 0)
(0.933158 -2.68158e-05 0)
(0.93264 -5.82314e-05 0)
(0.931651 -0.000100819 0)
(0.930044 -0.000160469 0)
(0.927578 -0.000246563 0)
(0.923893 -0.000374865 0)
(0.918427 -0.000573057 0)
(0.910268 -0.000896544 0)
(0.89781 -0.00147428 0)
(0.878004 -0.00262939 0)
(0.844326 -0.00505525 0)
(0.777724 -0.0113225 0)
(0.62305 -0.0461637 0)
(0.505666 -0.115081 0)
)
;

boundaryField
{
    movingWall
    {
        type            fixedValue;
        value           uniform (1 0 0);
    }
    fixedWalls
    {
        type            noSlip;
    }
    frontAndBack
    {
        type            empty;
    }
}


// ************************************************************************* //
