/*--------------------------------*- C++ -*----------------------------------*\
  =========                 |
  \\      /  F ield         | OpenFOAM: The Open Source CFD Toolbox
   \\    /   O peration     | Website:  https://openfoam.org
    \\  /    A nd           | Version:  12
     \\/     M anipulation  |
\*---------------------------------------------------------------------------*/
FoamFile
{
    format      ascii;
    class       volScalarField;
    location    "5";
    object      epsilon;
}
// * * * * * * * * * * * * * * * * * * * * * * * * * * * * * * * * * * * * * //

dimensions      [0 2 -3 0 0 0 0];

internalField   nonuniform List<scalar> 
18225
(
1.6512e-07
8.25165e-07
1.80585e-06
2.98348e-06
4.30291e-06
5.73159e-06
7.24651e-06
8.8298e-06
1.04669e-05
1.21457e-05
1.38559e-05
1.55889e-05
1.73374e-05
1.90952e-05
2.08573e-05
2.26199e-05
2.43799e-05
2.61351e-05
2.78841e-05
2.96261e-05
3.1361e-05
3.30893e-05
3.48117e-05
3.65295e-05
3.82443e-05
3.99577e-05
4.16715e-05
4.33877e-05
4.51082e-05
4.68346e-05
4.85688e-05
5.03122e-05
5.20661e-05
5.38315e-05
5.56091e-05
5.73994e-05
5.92025e-05
6.10182e-05
6.2846e-05
6.46852e-05
6.65345e-05
6.83925e-05
7.02574e-05
7.21272e-05
7.39994e-05
7.58714e-05
7.77402e-05
7.96025e-05
8.14547e-05
8.3293e-05
8.51133e-05
8.69112e-05
8.86819e-05
9.04205e-05
9.21218e-05
9.37802e-05
9.53901e-05
9.69455e-05
9.84402e-05
9.98679e-05
0.000101222
0.000102496
0.000103683
0.000104776
0.000105769
0.000106654
0.000107425
0.000108075
0.000108599
0.000108989
0.00010924
0.000109345
0.000109306
0.000109115
0.000108768
0.000108262
0.000107595
0.000106765
0.000105773
0.000104619
0.000103304
0.000101832
0.000100205
9.84295e-05
9.651e-05
9.44535e-05
9.22676e-05
8.99607e-05
8.75422e-05
8.5022e-05
8.2411e-05
7.97202e-05
7.69615e-05
7.41466e-05
7.12879e-05
6.83975e-05
6.54876e-05
6.25701e-05
5.96568e-05
5.67588e-05
5.38868e-05
5.1051e-05
4.82608e-05
4.55247e-05
4.28506e-05
4.02454e-05
3.77151e-05
3.52648e-05
3.28988e-05
3.06204e-05
2.84321e-05
2.63354e-05
2.43311e-05
2.24195e-05
2.05998e-05
1.88708e-05
1.72307e-05
1.56772e-05
1.42075e-05
1.28189e-05
1.15079e-05
1.02712e-05
9.10534e-06
8.00698e-06
6.97289e-06
6.00015e-06
5.08632e-06
4.22958e-06
3.42906e-06
2.68512e-06
1.99997e-06
1.37865e-06
8.31233e-07
3.79008e-07
7.58021e-08
8.2566e-07
6.73927e-07
1.01322e-06
1.51755e-06
2.11328e-06
2.77118e-06
3.47529e-06
4.21494e-06
4.9822e-06
5.77071e-06
6.57532e-06
7.3917e-06
8.21625e-06
9.04597e-06
9.87845e-06
1.07117e-05
1.15444e-05
1.23752e-05
1.32036e-05
1.40291e-05
1.48517e-05
1.56715e-05
1.64888e-05
1.73043e-05
1.81186e-05
1.89325e-05
1.97469e-05
2.05626e-05
2.13805e-05
2.22014e-05
2.30261e-05
2.38553e-05
2.46896e-05
2.55294e-05
2.63751e-05
2.72269e-05
2.80847e-05
2.89486e-05
2.98183e-05
3.06933e-05
3.15731e-05
3.24569e-05
3.3344e-05
3.42332e-05
3.51235e-05
3.60134e-05
3.69017e-05
3.77866e-05
3.86664e-05
3.95394e-05
4.04034e-05
4.12564e-05
4.20961e-05
4.29201e-05
4.37259e-05
4.45109e-05
4.52723e-05
4.60073e-05
4.67129e-05
4.73861e-05
4.80239e-05
4.8623e-05
4.91803e-05
4.96925e-05
5.01565e-05
5.05691e-05
5.09271e-05
5.12275e-05
5.14676e-05
5.16445e-05
5.17548e-05
5.17966e-05
5.17696e-05
5.16707e-05
5.1498e-05
5.12503e-05
5.09266e-05
5.05265e-05
5.00498e-05
4.94971e-05
4.88691e-05
4.81672e-05
4.73931e-05
4.65492e-05
4.56381e-05
4.46631e-05
4.36276e-05
4.25358e-05
4.13919e-05
4.02007e-05
3.89671e-05
3.76965e-05
3.63943e-05
3.5066e-05
3.37174e-05
3.2354e-05
3.09816e-05
2.96057e-05
2.82318e-05
2.6865e-05
2.55105e-05
2.41728e-05
2.28563e-05
2.15652e-05
2.0303e-05
1.9073e-05
1.7878e-05
1.67205e-05
1.56025e-05
1.45254e-05
1.34906e-05
1.24988e-05
1.15504e-05
1.06455e-05
9.78389e-06
8.96494e-06
8.18785e-06
7.45158e-06
6.75493e-06
6.09651e-06
5.47486e-06
4.88843e-06
4.33565e-06
3.81498e-06
3.32501e-06
2.86446e-06
2.43231e-06
2.02793e-06
1.65122e-06
1.30292e-06
9.85155e-07
7.02727e-07
4.66827e-07
3.09441e-07
3.7885e-07
1.81139e-06
1.01691e-06
1.04063e-06
1.28845e-06
1.64293e-06
2.06157e-06
2.52392e-06
3.0181e-06
3.53624e-06
4.07262e-06
4.62285e-06
5.18344e-06
5.75155e-06
6.32487e-06
6.90153e-06
7.48005e-06
8.05928e-06
8.63837e-06
9.21675e-06
9.79406e-06
1.03702e-05
1.09452e-05
1.15192e-05
1.20926e-05
1.26659e-05
1.32395e-05
1.3814e-05
1.43899e-05
1.49678e-05
1.55483e-05
1.61318e-05
1.67189e-05
1.73098e-05
1.7905e-05
1.85045e-05
1.91085e-05
1.97169e-05
2.03297e-05
2.09467e-05
2.15674e-05
2.21915e-05
2.28184e-05
2.34474e-05
2.40778e-05
2.47086e-05
2.5339e-05
2.59677e-05
2.65937e-05
2.72155e-05
2.7832e-05
2.84415e-05
2.90425e-05
2.96333e-05
3.02123e-05
3.07775e-05
3.13272e-05
3.18592e-05
3.23716e-05
3.28622e-05
3.3329e-05
3.37698e-05
3.41823e-05
3.45644e-05
3.49138e-05
3.52283e-05
3.55058e-05
3.57442e-05
3.59414e-05
3.60956e-05
3.6205e-05
3.62667e-05
3.6281e-05
3.62467e-05
3.61619e-05
3.60257e-05
3.58372e-05
3.55962e-05
3.53022e-05
3.49556e-05
3.45566e-05
3.41062e-05
3.36052e-05
3.3055e-05
3.24574e-05
3.18142e-05
3.11277e-05
3.04004e-05
2.96352e-05
2.88349e-05
2.8003e-05
2.71427e-05
2.62577e-05
2.53517e-05
2.44284e-05
2.34916e-05
2.25452e-05
2.15929e-05
2.06386e-05
1.96859e-05
1.87383e-05
1.77992e-05
1.68716e-05
1.59587e-05
1.50631e-05
1.41873e-05
1.33335e-05
1.25036e-05
1.16993e-05
1.09221e-05
1.01729e-05
9.45264e-06
8.7619e-06
8.10098e-06
7.47001e-06
6.86885e-06
6.29716e-06
5.75443e-06
5.24001e-06
4.75313e-06
4.29292e-06
3.85844e-06
3.4487e-06
3.06274e-06
2.69962e-06
2.35854e-06
2.03882e-06
1.74008e-06
1.46232e-06
1.20619e-06
9.73398e-07
7.67596e-07
5.96549e-07
4.7831e-07
4.65548e-07
8.29451e-07
3.0057e-06
1.53126e-06
1.29752e-06
1.36849e-06
1.57467e-06
1.85792e-06
2.19127e-06
2.55983e-06
2.95433e-06
3.36843e-06
3.79753e-06
4.23811e-06
4.6874e-06
5.14322e-06
5.60381e-06
6.06777e-06
6.53403e-06
7.00175e-06
7.47036e-06
7.93949e-06
8.40892e-06
8.87863e-06
9.3487e-06
9.81932e-06
1.02908e-05
1.07634e-05
1.12376e-05
1.17138e-05
1.21924e-05
1.26737e-05
1.31582e-05
1.36461e-05
1.41378e-05
1.46333e-05
1.51328e-05
1.56363e-05
1.61438e-05
1.6655e-05
1.71698e-05
1.76878e-05
1.82085e-05
1.87315e-05
1.92561e-05
1.97815e-05
2.0307e-05
2.08317e-05
2.13545e-05
2.18745e-05
2.23904e-05
2.29011e-05
2.34052e-05
2.39013e-05
2.43881e-05
2.4864e-05
2.53274e-05
2.57768e-05
2.62105e-05
2.66267e-05
2.70238e-05
2.73999e-05
2.77533e-05
2.80823e-05
2.83849e-05
2.86596e-05
2.89046e-05
2.91181e-05
2.92986e-05
2.94445e-05
2.95545e-05
2.96267e-05
2.96594e-05
2.96539e-05
2.9608e-05
2.95209e-05
2.93919e-05
2.92207e-05
2.90069e-05
2.87507e-05
2.84523e-05
2.81122e-05
2.77312e-05
2.73102e-05
2.68504e-05
2.63532e-05
2.58204e-05
2.52537e-05
2.46554e-05
2.40276e-05
2.33727e-05
2.26935e-05
2.19925e-05
2.12727e-05
2.05369e-05
1.97882e-05
1.90295e-05
1.82637e-05
1.7494e-05
1.67231e-05
1.5954e-05
1.51894e-05
1.44318e-05
1.36838e-05
1.29476e-05
1.22253e-05
1.1519e-05
1.08303e-05
1.01607e-05
9.51152e-06
8.88389e-06
8.27867e-06
7.69654e-06
7.13798e-06
6.60326e-06
6.09251e-06
5.60565e-06
5.14246e-06
4.70261e-06
4.28564e-06
3.89099e-06
3.51806e-06
3.16618e-06
2.83469e-06
2.52296e-06
2.23043e-06
1.95666e-06
1.70143e-06
1.46486e-06
1.24757e-06
1.051e-06
8.78022e-07
7.34186e-07
6.30653e-07
5.93027e-07
6.97838e-07
1.37131e-06
4.36265e-06
2.14742e-06
1.66911e-06
1.59087e-06
1.682e-06
1.86691e-06
2.11159e-06
2.39768e-06
2.71403e-06
3.05329e-06
3.41024e-06
3.78103e-06
4.1627e-06
4.55294e-06
4.94991e-06
5.35217e-06
5.75856e-06
6.16822e-06
6.58049e-06
6.99492e-06
7.41123e-06
7.82927e-06
8.24903e-06
8.6706e-06
9.09415e-06
9.5199e-06
9.94813e-06
1.03791e-05
1.08131e-05
1.12505e-05
1.16915e-05
1.21362e-05
1.25849e-05
1.30376e-05
1.34944e-05
1.39552e-05
1.44199e-05
1.48882e-05
1.53599e-05
1.58345e-05
1.63115e-05
1.67905e-05
1.72706e-05
1.77513e-05
1.82316e-05
1.87106e-05
1.91874e-05
1.96609e-05
2.013e-05
2.05935e-05
2.10501e-05
2.14985e-05
2.19374e-05
2.23653e-05
2.27808e-05
2.31824e-05
2.35686e-05
2.39378e-05
2.42885e-05
2.46191e-05
2.49281e-05
2.52139e-05
2.5475e-05
2.571e-05
2.59172e-05
2.60954e-05
2.62433e-05
2.63595e-05
2.64428e-05
2.6491e-05
2.65049e-05
2.64841e-05
2.64271e-05
2.63332e-05
2.62022e-05
2.60336e-05
2.58276e-05
2.55843e-05
2.5304e-05
2.49873e-05
2.4635e-05
2.42479e-05
2.38272e-05
2.33743e-05
2.28907e-05
2.23782e-05
2.18385e-05
2.12738e-05
2.06861e-05
2.00779e-05
1.94515e-05
1.88094e-05
1.81541e-05
1.74882e-05
1.68144e-05
1.61352e-05
1.54532e-05
1.47709e-05
1.40908e-05
1.34152e-05
1.27463e-05
1.20863e-05
1.1437e-05
1.08004e-05
1.01779e-05
9.5712e-06
8.98146e-06
8.4098e-06
7.85715e-06
7.32425e-06
6.81168e-06
6.31984e-06
5.84899e-06
5.39921e-06
4.97048e-06
4.56263e-06
4.17539e-06
3.80843e-06
3.46133e-06
3.13362e-06
2.82485e-06
2.53455e-06
2.26233e-06
2.0079e-06
1.77115e-06
1.55222e-06
1.35171e-06
1.17081e-06
1.01179e-06
8.78699e-07
7.7893e-07
7.27214e-07
7.57139e-07
9.72704e-07
1.97963e-06
5.86038e-06
2.84096e-06
2.11594e-06
1.89966e-06
1.89145e-06
1.99594e-06
2.17149e-06
2.39602e-06
2.65639e-06
2.94401e-06
3.25294e-06
3.57882e-06
3.91837e-06
4.26905e-06
4.62884e-06
4.99616e-06
5.36973e-06
5.74857e-06
6.13192e-06
6.51923e-06
6.9101e-06
7.3043e-06
7.7017e-06
8.10229e-06
8.50614e-06
8.91336e-06
9.32412e-06
9.73861e-06
1.0157e-05
1.05795e-05
1.10063e-05
1.14374e-05
1.1873e-05
1.2313e-05
1.27574e-05
1.3206e-05
1.36586e-05
1.41149e-05
1.45745e-05
1.50369e-05
1.55016e-05
1.59679e-05
1.64351e-05
1.69023e-05
1.73688e-05
1.78335e-05
1.82953e-05
1.87533e-05
1.92062e-05
1.96528e-05
2.00919e-05
2.05221e-05
2.09422e-05
2.13507e-05
2.17462e-05
2.21274e-05
2.24927e-05
2.28407e-05
2.31701e-05
2.34792e-05
2.37668e-05
2.40314e-05
2.42716e-05
2.44861e-05
2.46736e-05
2.48329e-05
2.49629e-05
2.50625e-05
2.51306e-05
2.51643e-05
2.51669e-05
2.51358e-05
2.50704e-05
2.49701e-05
2.48346e-05
2.46638e-05
2.44577e-05
2.42165e-05
2.39406e-05
2.36306e-05
2.32872e-05
2.29113e-05
2.25041e-05
2.20668e-05
2.16009e-05
2.11081e-05
2.05901e-05
2.0049e-05
1.94867e-05
1.89055e-05
1.83078e-05
1.76958e-05
1.7072e-05
1.64389e-05
1.57989e-05
1.51546e-05
1.45083e-05
1.38624e-05
1.32193e-05
1.2581e-05
1.19498e-05
1.13276e-05
1.07161e-05
1.01171e-05
9.53197e-06
8.96212e-06
8.40869e-06
7.87266e-06
7.35486e-06
6.85593e-06
6.37637e-06
5.91652e-06
5.47658e-06
5.05663e-06
4.65662e-06
4.27639e-06
3.91572e-06
3.5743e-06
3.2518e-06
2.94785e-06
2.66211e-06
2.39425e-06
2.14408e-06
1.91151e-06
1.69671e-06
1.50017e-06
1.32289e-06
1.16663e-06
1.03441e-06
9.31461e-07
8.67123e-07
8.59576e-07
9.51225e-07
1.27695e-06
2.63998e-06
7.48753e-06
3.60124e-06
2.6209e-06
2.27028e-06
2.17082e-06
2.20503e-06
2.32275e-06
2.49794e-06
2.71529e-06
2.96495e-06
3.24013e-06
3.53592e-06
3.84863e-06
4.17542e-06
4.51405e-06
4.86273e-06
5.22002e-06
5.5848e-06
5.95617e-06
6.33344e-06
6.71612e-06
7.10384e-06
7.49638e-06
7.89361e-06
8.29549e-06
8.70205e-06
9.11335e-06
9.52947e-06
9.95052e-06
1.03766e-05
1.08077e-05
1.12439e-05
1.16852e-05
1.21314e-05
1.25824e-05
1.30379e-05
1.34977e-05
1.39613e-05
1.44282e-05
1.48978e-05
1.53695e-05
1.58425e-05
1.63161e-05
1.67893e-05
1.72611e-05
1.77304e-05
1.81963e-05
1.86575e-05
1.91129e-05
1.95611e-05
2.00009e-05
2.0431e-05
2.08501e-05
2.12567e-05
2.16495e-05
2.20271e-05
2.23881e-05
2.27312e-05
2.3055e-05
2.33581e-05
2.36391e-05
2.38969e-05
2.413e-05
2.43373e-05
2.45175e-05
2.46696e-05
2.47925e-05
2.48854e-05
2.49466e-05
2.49736e-05
2.49706e-05
2.49341e-05
2.48636e-05
2.47587e-05
2.4619e-05
2.44445e-05
2.4235e-05
2.39908e-05
2.37122e-05
2.33997e-05
2.30541e-05
2.26762e-05
2.22672e-05
2.18282e-05
2.13608e-05
2.08666e-05
2.03474e-05
1.98051e-05
1.92418e-05
1.86599e-05
1.80615e-05
1.74492e-05
1.68253e-05
1.61926e-05
1.55534e-05
1.49102e-05
1.42657e-05
1.36221e-05
1.29819e-05
1.23472e-05
1.17202e-05
1.11028e-05
1.04969e-05
9.90396e-06
9.32559e-06
8.76305e-06
8.21744e-06
7.68972e-06
7.18063e-06
6.69077e-06
6.22057e-06
5.77032e-06
5.34017e-06
4.93015e-06
4.54017e-06
4.17008e-06
3.81963e-06
3.4885e-06
3.17638e-06
2.88295e-06
2.60793e-06
2.35112e-06
2.11243e-06
1.89197e-06
1.69013e-06
1.50768e-06
1.34599e-06
1.20741e-06
1.09575e-06
1.01727e-06
9.83151e-07
1.01538e-06
1.16603e-06
1.60345e-06
3.34226e-06
9.23849e-06
4.42322e-06
3.17571e-06
2.69036e-06
2.50365e-06
2.47366e-06
2.54077e-06
2.67462e-06
2.85756e-06
3.07836e-06
3.32937e-06
3.6051e-06
3.9014e-06
4.21508e-06
4.5436e-06
4.88496e-06
5.23751e-06
5.59995e-06
5.97122e-06
6.35049e-06
6.73711e-06
7.13061e-06
7.53064e-06
7.93696e-06
8.34941e-06
8.76792e-06
9.19244e-06
9.62297e-06
1.00595e-05
1.0502e-05
1.09504e-05
1.14047e-05
1.18647e-05
1.23302e-05
1.28009e-05
1.32765e-05
1.37565e-05
1.42405e-05
1.47277e-05
1.52176e-05
1.57093e-05
1.62019e-05
1.66947e-05
1.71865e-05
1.76763e-05
1.8163e-05
1.86454e-05
1.91223e-05
1.95924e-05
2.00545e-05
2.05073e-05
2.09494e-05
2.13794e-05
2.17961e-05
2.21981e-05
2.25841e-05
2.29527e-05
2.33025e-05
2.36324e-05
2.39409e-05
2.42268e-05
2.44889e-05
2.47259e-05
2.49366e-05
2.51199e-05
2.52748e-05
2.54e-05
2.54945e-05
2.55568e-05
2.55842e-05
2.55814e-05
2.55447e-05
2.54733e-05
2.53669e-05
2.52249e-05
2.50472e-05
2.48336e-05
2.45842e-05
2.42993e-05
2.39793e-05
2.36248e-05
2.32367e-05
2.2816e-05
2.2364e-05
2.18821e-05
2.13719e-05
2.08354e-05
2.02745e-05
1.96914e-05
1.90886e-05
1.84685e-05
1.78337e-05
1.71868e-05
1.65305e-05
1.58677e-05
1.5201e-05
1.4533e-05
1.38665e-05
1.32039e-05
1.25476e-05
1.18999e-05
1.12629e-05
1.06384e-05
1.00283e-05
9.43399e-06
8.85687e-06
8.29807e-06
7.75851e-06
7.23894e-06
6.73991e-06
6.26182e-06
5.80489e-06
5.36922e-06
4.95476e-06
4.56139e-06
4.18886e-06
3.83692e-06
3.50521e-06
3.19339e-06
2.90116e-06
2.62827e-06
2.37455e-06
2.14004e-06
1.92498e-06
1.72994e-06
1.556e-06
1.40489e-06
1.27938e-06
1.18393e-06
1.12598e-06
1.11865e-06
1.18792e-06
1.39625e-06
1.94753e-06
4.07868e-06
1.11112e-05
5.30468e-06
3.7762e-06
3.15327e-06
2.8808e-06
2.79021e-06
2.81156e-06
2.9097e-06
3.06447e-06
3.26317e-06
3.49718e-06
3.76032e-06
4.04797e-06
4.35657e-06
4.68328e-06
5.02582e-06
5.38234e-06
5.75133e-06
6.13156e-06
6.52203e-06
6.92195e-06
7.33071e-06
7.74781e-06
8.1729e-06
8.60572e-06
9.04606e-06
9.49378e-06
9.94876e-06
1.04109e-05
1.088e-05
1.1356e-05
1.18386e-05
1.23276e-05
1.28227e-05
1.33234e-05
1.38293e-05
1.43398e-05
1.48543e-05
1.5372e-05
1.5892e-05
1.64136e-05
1.69357e-05
1.74572e-05
1.79771e-05
1.84943e-05
1.90074e-05
1.95154e-05
2.00169e-05
2.05106e-05
2.09953e-05
2.14696e-05
2.19322e-05
2.23818e-05
2.28172e-05
2.32368e-05
2.36396e-05
2.40241e-05
2.43892e-05
2.47335e-05
2.50559e-05
2.5355e-05
2.56297e-05
2.58787e-05
2.6101e-05
2.62952e-05
2.64603e-05
2.65951e-05
2.66985e-05
2.67693e-05
2.68036e-05
2.68066e-05
2.67749e-05
2.67073e-05
2.66031e-05
2.64617e-05
2.62827e-05
2.60657e-05
2.58109e-05
2.55182e-05
2.51879e-05
2.48206e-05
2.4417e-05
2.39781e-05
2.35052e-05
2.29996e-05
2.24631e-05
2.18976e-05
2.13053e-05
2.06885e-05
2.00498e-05
1.9392e-05
1.87177e-05
1.803e-05
1.73319e-05
1.66265e-05
1.59167e-05
1.52056e-05
1.44961e-05
1.3791e-05
1.3093e-05
1.24047e-05
1.17283e-05
1.1066e-05
1.04198e-05
9.7912e-06
9.18176e-06
8.59268e-06
8.02494e-06
7.47929e-06
6.9563e-06
6.45633e-06
5.97956e-06
5.52601e-06
5.09559e-06
4.68807e-06
4.30315e-06
3.94045e-06
3.5996e-06
3.28022e-06
2.98197e-06
2.70459e-06
2.44795e-06
2.21211e-06
1.99743e-06
1.80462e-06
1.63494e-06
1.49046e-06
1.37442e-06
1.29197e-06
1.25166e-06
1.2686e-06
1.37309e-06
1.63844e-06
2.30574e-06
4.84299e-06
1.31058e-05
6.24504e-06
4.42043e-06
3.65542e-06
3.29694e-06
3.14773e-06
3.1266e-06
3.19316e-06
3.32454e-06
3.5064e-06
3.7291e-06
3.98574e-06
4.27118e-06
4.58143e-06
4.91331e-06
5.26425e-06
5.63214e-06
6.01523e-06
6.4121e-06
6.82156e-06
7.24265e-06
7.6746e-06
8.11678e-06
8.56869e-06
9.02994e-06
9.5002e-06
9.9792e-06
1.04667e-05
1.09625e-05
1.14662e-05
1.19777e-05
1.24966e-05
1.30224e-05
1.35548e-05
1.40932e-05
1.46369e-05
1.51853e-05
1.57375e-05
1.62928e-05
1.685e-05
1.74083e-05
1.79665e-05
1.85235e-05
1.9078e-05
1.96289e-05
2.01749e-05
2.07148e-05
2.12471e-05
2.17707e-05
2.22842e-05
2.27863e-05
2.32758e-05
2.37513e-05
2.42117e-05
2.46556e-05
2.50818e-05
2.54891e-05
2.58763e-05
2.62421e-05
2.65854e-05
2.69049e-05
2.71995e-05
2.74678e-05
2.77087e-05
2.7921e-05
2.81035e-05
2.82548e-05
2.83738e-05
2.84592e-05
2.85072e-05
2.85205e-05
2.8499e-05
2.84396e-05
2.83414e-05
2.82036e-05
2.80256e-05
2.78069e-05
2.75471e-05
2.72462e-05
2.69044e-05
2.65219e-05
2.60995e-05
2.56381e-05
2.51388e-05
2.4603e-05
2.40326e-05
2.34296e-05
2.27963e-05
2.21353e-05
2.14493e-05
2.07413e-05
2.00145e-05
1.92721e-05
1.85177e-05
1.77545e-05
1.69861e-05
1.62159e-05
1.54471e-05
1.46832e-05
1.3927e-05
1.31816e-05
1.24496e-05
1.17334e-05
1.10352e-05
1.03569e-05
9.70018e-06
9.06638e-06
8.45658e-06
7.87161e-06
7.31207e-06
6.77831e-06
6.27048e-06
5.78855e-06
5.33234e-06
4.90155e-06
4.49577e-06
4.11456e-06
3.75743e-06
3.42392e-06
3.11362e-06
2.82623e-06
2.56161e-06
2.31984e-06
2.10132e-06
1.9069e-06
1.73802e-06
1.59703e-06
1.48759e-06
1.41555e-06
1.39057e-06
1.42982e-06
1.56817e-06
1.89015e-06
2.67542e-06
5.63007e-06
1.52244e-05
7.24477e-06
5.10771e-06
4.19492e-06
3.74898e-06
3.54194e-06
3.48054e-06
3.51865e-06
3.63042e-06
3.79977e-06
4.01593e-06
4.27123e-06
4.55991e-06
4.87755e-06
5.22056e-06
5.58605e-06
5.97162e-06
6.37528e-06
6.79536e-06
7.23048e-06
7.67947e-06
8.1414e-06
8.61547e-06
9.10103e-06
9.59754e-06
1.01045e-05
1.06216e-05
1.11484e-05
1.16845e-05
1.22295e-05
1.27831e-05
1.33446e-05
1.39136e-05
1.44895e-05
1.50716e-05
1.56591e-05
1.62511e-05
1.68467e-05
1.74449e-05
1.80446e-05
1.86447e-05
1.92439e-05
1.98411e-05
2.0435e-05
2.10242e-05
2.16075e-05
2.21837e-05
2.27513e-05
2.33091e-05
2.38559e-05
2.43904e-05
2.49114e-05
2.54176e-05
2.59078e-05
2.6381e-05
2.68358e-05
2.72713e-05
2.76861e-05
2.80791e-05
2.84491e-05
2.87949e-05
2.91154e-05
2.94091e-05
2.96749e-05
2.99113e-05
3.01171e-05
3.02909e-05
3.04311e-05
3.05366e-05
3.06042e-05
3.06323e-05
3.06253e-05
3.05781e-05
3.04895e-05
3.03584e-05
3.01838e-05
2.9965e-05
2.97015e-05
2.93929e-05
2.90391e-05
2.86405e-05
2.81973e-05
2.77106e-05
2.71813e-05
2.66111e-05
2.60016e-05
2.5355e-05
2.46738e-05
2.39607e-05
2.32188e-05
2.24514e-05
2.1662e-05
2.08542e-05
2.0032e-05
1.91992e-05
1.83597e-05
1.75175e-05
1.66763e-05
1.584e-05
1.5012e-05
1.41957e-05
1.33942e-05
1.26104e-05
1.18467e-05
1.11054e-05
1.03884e-05
9.69729e-06
9.03328e-06
8.39734e-06
7.79012e-06
7.21201e-06
6.66316e-06
6.14349e-06
5.65275e-06
5.19055e-06
4.75639e-06
4.34971e-06
3.9699e-06
3.6164e-06
3.2887e-06
2.98644e-06
2.70941e-06
2.45768e-06
2.23168e-06
2.03233e-06
1.86124e-06
1.721e-06
1.61569e-06
1.55182e-06
1.54022e-06
1.60017e-06
1.77126e-06
2.14961e-06
3.05446e-06
6.43572e-06
1.74698e-05
8.30491e-06
5.83812e-06
4.77091e-06
4.23517e-06
3.97023e-06
3.86999e-06
3.88201e-06
3.9773e-06
4.13785e-06
4.35165e-06
4.61015e-06
4.90698e-06
5.23715e-06
5.59667e-06
5.98229e-06
6.39126e-06
6.82132e-06
7.27053e-06
7.73727e-06
8.22019e-06
8.71813e-06
9.23011e-06
9.75534e-06
1.02931e-05
1.08427e-05
1.14037e-05
1.19756e-05
1.25577e-05
1.31495e-05
1.37504e-05
1.43599e-05
1.49772e-05
1.56015e-05
1.6232e-05
1.68677e-05
1.75076e-05
1.81507e-05
1.87958e-05
1.94416e-05
2.0087e-05
2.07307e-05
2.13714e-05
2.20076e-05
2.26383e-05
2.32619e-05
2.38773e-05
2.44831e-05
2.50782e-05
2.56613e-05
2.62313e-05
2.6787e-05
2.73273e-05
2.7851e-05
2.83572e-05
2.88446e-05
2.93123e-05
2.9759e-05
3.01836e-05
3.0585e-05
3.0962e-05
3.13131e-05
3.16372e-05
3.19327e-05
3.21983e-05
3.24324e-05
3.26334e-05
3.27996e-05
3.29295e-05
3.30211e-05
3.30694e-05
3.30793e-05
3.3048e-05
3.29723e-05
3.28507e-05
3.26819e-05
3.24651e-05
3.21993e-05
3.18839e-05
3.15188e-05
3.11038e-05
3.06394e-05
3.01261e-05
2.95651e-05
2.89578e-05
2.83061e-05
2.76121e-05
2.68785e-05
2.61082e-05
2.53045e-05
2.44711e-05
2.36119e-05
2.27309e-05
2.18324e-05
2.09208e-05
2.00005e-05
1.90761e-05
1.81519e-05
1.72321e-05
1.6321e-05
1.54223e-05
1.45397e-05
1.36765e-05
1.28356e-05
1.20197e-05
1.1231e-05
1.04713e-05
9.74223e-06
9.04481e-06
8.37983e-06
7.74776e-06
7.14876e-06
6.58275e-06
6.04942e-06
5.5483e-06
5.07878e-06
4.64017e-06
4.23176e-06
3.85284e-06
3.5028e-06
3.18115e-06
2.88761e-06
2.62222e-06
2.38538e-06
2.17807e-06
2.00202e-06
1.86004e-06
1.75662e-06
1.69892e-06
1.69895e-06
1.77818e-06
1.98103e-06
2.41549e-06
3.44122e-06
7.25665e-06
1.98457e-05
9.42697e-06
6.61223e-06
5.38321e-06
4.75461e-06
4.43106e-06
4.29275e-06
4.28058e-06
4.36203e-06
4.51705e-06
4.73225e-06
4.99814e-06
5.30761e-06
5.6551e-06
6.03615e-06
6.44706e-06
6.88474e-06
7.34659e-06
7.83039e-06
8.33425e-06
8.85657e-06
9.39598e-06
9.95132e-06
1.05216e-05
1.11058e-05
1.17033e-05
1.23133e-05
1.29351e-05
1.35679e-05
1.42111e-05
1.48639e-05
1.55255e-05
1.6195e-05
1.68715e-05
1.75539e-05
1.82411e-05
1.8932e-05
1.96254e-05
2.03199e-05
2.10143e-05
2.17073e-05
2.23974e-05
2.30834e-05
2.37639e-05
2.44375e-05
2.51031e-05
2.57594e-05
2.64051e-05
2.70392e-05
2.76604e-05
2.82678e-05
2.88603e-05
2.94369e-05
2.99966e-05
3.05383e-05
3.10611e-05
3.15639e-05
3.20457e-05
3.25052e-05
3.29414e-05
3.33529e-05
3.37383e-05
3.40964e-05
3.44254e-05
3.47238e-05
3.49898e-05
3.52217e-05
3.54175e-05
3.55754e-05
3.56934e-05
3.57671e-05
3.57956e-05
3.57831e-05
3.5723e-05
3.56134e-05
3.54529e-05
3.52401e-05
3.49739e-05
3.46534e-05
3.42782e-05
3.38479e-05
3.33628e-05
3.28233e-05
3.22304e-05
3.15856e-05
3.08906e-05
3.01477e-05
2.93596e-05
2.85295e-05
2.76609e-05
2.67576e-05
2.5824e-05
2.48645e-05
2.38839e-05
2.28871e-05
2.1879e-05
2.08647e-05
1.98492e-05
1.88374e-05
1.7834e-05
1.68434e-05
1.58698e-05
1.49172e-05
1.3989e-05
1.30883e-05
1.22177e-05
1.13795e-05
1.05754e-05
9.80686e-06
9.07481e-06
8.37983e-06
7.72215e-06
7.1017e-06
6.51815e-06
5.97096e-06
5.45943e-06
4.98274e-06
4.54004e-06
4.13051e-06
3.75336e-06
3.408e-06
3.09404e-06
2.81142e-06
2.56054e-06
2.34237e-06
2.15874e-06
2.01267e-06
1.90902e-06
1.85562e-06
1.86564e-06
1.96287e-06
2.19654e-06
2.68683e-06
3.83447e-06
8.09036e-06
2.23562e-05
1.06127e-05
7.4309e-06
6.03203e-06
5.30696e-06
4.92357e-06
4.7475e-06
4.71265e-06
4.78255e-06
4.93499e-06
5.15509e-06
5.43229e-06
5.75867e-06
6.12803e-06
6.53535e-06
6.97646e-06
7.44786e-06
7.94658e-06
8.47007e-06
9.01614e-06
9.58293e-06
1.01688e-05
1.07724e-05
1.13925e-05
1.20279e-05
1.26778e-05
1.33411e-05
1.40169e-05
1.47045e-05
1.54028e-05
1.61109e-05
1.68278e-05
1.75525e-05
1.82838e-05
1.90206e-05
1.97615e-05
2.05053e-05
2.12505e-05
2.19959e-05
2.27401e-05
2.34815e-05
2.42189e-05
2.49509e-05
2.56761e-05
2.63933e-05
2.71014e-05
2.7799e-05
2.84851e-05
2.91587e-05
2.98188e-05
3.04644e-05
3.10947e-05
3.17086e-05
3.23054e-05
3.28841e-05
3.34438e-05
3.39834e-05
3.4502e-05
3.49984e-05
3.54713e-05
3.59195e-05
3.63415e-05
3.67357e-05
3.71005e-05
3.7434e-05
3.77343e-05
3.79993e-05
3.8227e-05
3.84151e-05
3.85613e-05
3.86632e-05
3.87138e-05
3.87208e-05
3.86788e-05
3.85836e-05
3.84336e-05
3.82271e-05
3.79627e-05
3.76394e-05
3.72562e-05
3.68128e-05
3.6309e-05
3.57452e-05
3.51222e-05
3.44413e-05
3.37042e-05
3.29132e-05
3.20711e-05
3.11811e-05
3.02469e-05
2.92727e-05
2.8263e-05
2.72226e-05
2.61569e-05
2.5071e-05
2.39706e-05
2.28613e-05
2.17487e-05
2.06383e-05
1.95355e-05
1.84454e-05
1.73729e-05
1.63225e-05
1.52982e-05
1.43037e-05
1.33422e-05
1.24163e-05
1.15282e-05
1.06796e-05
9.87176e-06
9.10539e-06
8.38088e-06
7.69821e-06
7.05706e-06
6.45685e-06
5.8968e-06
5.37599e-06
4.89343e-06
4.44813e-06
4.03918e-06
3.66583e-06
3.32757e-06
3.02422e-06
2.75611e-06
2.52423e-06
2.33045e-06
2.17799e-06
2.07206e-06
2.02115e-06
2.0396e-06
2.15358e-06
2.4172e-06
2.96299e-06
4.23339e-06
8.93513e-06
2.50055e-05
1.1864e-05
8.29517e-06
6.71783e-06
5.8922e-06
5.44736e-06
5.23351e-06
5.17716e-06
5.23756e-06
5.39017e-06
5.61848e-06
5.91075e-06
6.25815e-06
6.65375e-06
7.09191e-06
7.56793e-06
8.07784e-06
8.61826e-06
9.18625e-06
9.7793e-06
1.03952e-05
1.10322e-05
1.16885e-05
1.23626e-05
1.30534e-05
1.37594e-05
1.44797e-05
1.52131e-05
1.59585e-05
1.67148e-05
1.74808e-05
1.82554e-05
1.90373e-05
1.98251e-05
2.06176e-05
2.14132e-05
2.22106e-05
2.30083e-05
2.38048e-05
2.45986e-05
2.53884e-05
2.61727e-05
2.69502e-05
2.77196e-05
2.84798e-05
2.92295e-05
2.99679e-05
3.06938e-05
3.14064e-05
3.21049e-05
3.27884e-05
3.34561e-05
3.41073e-05
3.47412e-05
3.5357e-05
3.59538e-05
3.65306e-05
3.70864e-05
3.76201e-05
3.81304e-05
3.86159e-05
3.9075e-05
3.95061e-05
3.99074e-05
4.02767e-05
4.06121e-05
4.09112e-05
4.11717e-05
4.13911e-05
4.15669e-05
4.16968e-05
4.17738e-05
4.17999e-05
4.17779e-05
4.16993e-05
4.15621e-05
4.13645e-05
4.11047e-05
4.07815e-05
4.03936e-05
3.99404e-05
3.94214e-05
3.88369e-05
3.81874e-05
3.7474e-05
3.66983e-05
3.58625e-05
3.49694e-05
3.40221e-05
3.30246e-05
3.19812e-05
3.08964e-05
2.97757e-05
2.86245e-05
2.74486e-05
2.6254e-05
2.50471e-05
2.38339e-05
2.26207e-05
2.14135e-05
2.02182e-05
1.90404e-05
1.78853e-05
1.67575e-05
1.56615e-05
1.4601e-05
1.35791e-05
1.25987e-05
1.16617e-05
1.07697e-05
9.92385e-06
9.12459e-06
8.37209e-06
7.66606e-06
7.00594e-06
6.39089e-06
5.8199e-06
5.29185e-06
4.80561e-06
4.36012e-06
3.95445e-06
3.58793e-06
3.26029e-06
2.97176e-06
2.72327e-06
2.51675e-06
2.35559e-06
2.24532e-06
2.1951e-06
2.22047e-06
2.34996e-06
2.64265e-06
3.24362e-06
4.63752e-06
9.79004e-06
2.77981e-05
1.31829e-05
9.20615e-06
7.44122e-06
6.51056e-06
6.00232e-06
5.75044e-06
5.67355e-06
5.72632e-06
5.88171e-06
6.12141e-06
6.43239e-06
6.80481e-06
7.23091e-06
7.70435e-06
8.21983e-06
8.77286e-06
9.35956e-06
9.9766e-06
1.06211e-05
1.12905e-05
1.19827e-05
1.26956e-05
1.34276e-05
1.41772e-05
1.49427e-05
1.5723e-05
1.65166e-05
1.73222e-05
1.81385e-05
1.89642e-05
1.97977e-05
2.06378e-05
2.14828e-05
2.23313e-05
2.31817e-05
2.40324e-05
2.48818e-05
2.57286e-05
2.65711e-05
2.74079e-05
2.82376e-05
2.90591e-05
2.9871e-05
3.06724e-05
3.14621e-05
3.22394e-05
3.30034e-05
3.37533e-05
3.44885e-05
3.52083e-05
3.59121e-05
3.65992e-05
3.72689e-05
3.79205e-05
3.85531e-05
3.9166e-05
3.97579e-05
4.03279e-05
4.08744e-05
4.13962e-05
4.18915e-05
4.23585e-05
4.27953e-05
4.31998e-05
4.35695e-05
4.39021e-05
4.4195e-05
4.44456e-05
4.46511e-05
4.48089e-05
4.49139e-05
4.49602e-05
4.49591e-05
4.4899e-05
4.4777e-05
4.45912e-05
4.43394e-05
4.40201e-05
4.36318e-05
4.31735e-05
4.26445e-05
4.20446e-05
4.13742e-05
4.06341e-05
3.98257e-05
3.89509e-05
3.80125e-05
3.70135e-05
3.59578e-05
3.48496e-05
3.3694e-05
3.24962e-05
3.12621e-05
2.99979e-05
2.87101e-05
2.74054e-05
2.60906e-05
2.47727e-05
2.34583e-05
2.2154e-05
2.08663e-05
1.9601e-05
1.83638e-05
1.71596e-05
1.59929e-05
1.48677e-05
1.37871e-05
1.27538e-05
1.17698e-05
1.08365e-05
9.95469e-06
9.12479e-06
8.3466e-06
7.61961e-06
6.94298e-06
6.31562e-06
5.73633e-06
5.20382e-06
4.71687e-06
4.27439e-06
3.87556e-06
3.51994e-06
3.20765e-06
2.93957e-06
2.71765e-06
2.54541e-06
2.42872e-06
2.37738e-06
2.40812e-06
2.5519e-06
2.8728e-06
3.52862e-06
5.04676e-06
1.06549e-05
3.0738e-05
1.45711e-05
1.0165e-05
8.20287e-06
7.16237e-06
6.58856e-06
6.29818e-06
6.20157e-06
6.24846e-06
6.40913e-06
6.66333e-06
6.99659e-06
7.39795e-06
7.85872e-06
8.37178e-06
8.93114e-06
9.5317e-06
1.01691e-05
1.08394e-05
1.15395e-05
1.22664e-05
1.30175e-05
1.37906e-05
1.45837e-05
1.53949e-05
1.62226e-05
1.70651e-05
1.79209e-05
1.87883e-05
1.96658e-05
2.05519e-05
2.14448e-05
2.23431e-05
2.3245e-05
2.41487e-05
2.50528e-05
2.59554e-05
2.6855e-05
2.77501e-05
2.8639e-05
2.95204e-05
3.03931e-05
3.12558e-05
3.21075e-05
3.29472e-05
3.37741e-05
3.45875e-05
3.53867e-05
3.61711e-05
3.69402e-05
3.76935e-05
3.84306e-05
3.91507e-05
3.98535e-05
4.05382e-05
4.1204e-05
4.18501e-05
4.24755e-05
4.30789e-05
4.3659e-05
4.42143e-05
4.47431e-05
4.52435e-05
4.57133e-05
4.61504e-05
4.65523e-05
4.69164e-05
4.724e-05
4.75203e-05
4.77545e-05
4.79395e-05
4.80721e-05
4.81429e-05
4.81606e-05
4.81212e-05
4.80172e-05
4.78464e-05
4.76067e-05
4.7296e-05
4.69127e-05
4.64554e-05
4.5923e-05
4.5315e-05
4.46314e-05
4.38727e-05
4.30398e-05
4.21346e-05
4.11593e-05
4.01168e-05
3.90109e-05
3.78457e-05
3.66261e-05
3.53576e-05
3.40462e-05
3.26984e-05
3.1321e-05
2.99212e-05
2.85064e-05
2.70841e-05
2.56617e-05
2.42467e-05
2.28462e-05
2.14671e-05
2.01156e-05
1.87977e-05
1.75187e-05
1.62833e-05
1.50954e-05
1.39583e-05
1.28746e-05
1.18461e-05
1.08741e-05
9.95918e-06
9.10144e-06
8.30047e-06
7.55546e-06
6.86534e-06
6.2288e-06
5.64445e-06
5.1109e-06
4.62691e-06
4.19147e-06
3.80399e-06
3.46445e-06
3.17365e-06
2.93353e-06
2.74774e-06
2.62247e-06
2.56813e-06
2.60269e-06
2.7595e-06
3.10777e-06
3.81816e-06
5.46135e-06
1.15302e-05
3.38291e-05
1.60304e-05
1.11727e-05
9.00346e-06
7.84806e-06
7.2063e-06
6.8768e-06
6.76119e-06
6.80386e-06
6.97227e-06
7.24403e-06
7.6031e-06
8.03727e-06
8.5368e-06
9.09369e-06
9.7012e-06
1.03535e-05
1.10457e-05
1.17734e-05
1.25329e-05
1.33207e-05
1.41341e-05
1.49704e-05
1.58273e-05
1.67026e-05
1.75943e-05
1.85006e-05
1.94196e-05
2.03495e-05
2.12885e-05
2.22349e-05
2.31867e-05
2.41422e-05
2.50996e-05
2.60569e-05
2.70125e-05
2.79647e-05
2.89117e-05
2.98519e-05
3.07841e-05
3.17067e-05
3.26187e-05
3.35189e-05
3.44065e-05
3.52807e-05
3.61408e-05
3.69862e-05
3.78165e-05
3.86313e-05
3.94303e-05
4.0213e-05
4.09791e-05
4.17282e-05
4.24598e-05
4.31733e-05
4.3868e-05
4.4543e-05
4.51974e-05
4.58298e-05
4.64391e-05
4.70235e-05
4.75814e-05
4.81108e-05
4.86096e-05
4.90755e-05
4.95059e-05
4.98982e-05
5.02497e-05
5.05574e-05
5.08185e-05
5.10298e-05
5.11882e-05
5.12856e-05
5.13223e-05
5.13054e-05
5.12222e-05
5.10703e-05
5.08473e-05
5.05509e-05
5.01792e-05
4.97302e-05
4.92027e-05
4.85956e-05
4.79085e-05
4.71413e-05
4.62947e-05
4.53699e-05
4.43687e-05
4.32939e-05
4.21486e-05
4.09369e-05
3.96635e-05
3.83338e-05
3.69537e-05
3.55299e-05
3.40695e-05
3.258e-05
3.10693e-05
2.95455e-05
2.80168e-05
2.64914e-05
2.49771e-05
2.34819e-05
2.20129e-05
2.05771e-05
1.91806e-05
1.7829e-05
1.65272e-05
1.52792e-05
1.40883e-05
1.2957e-05
1.1887e-05
1.08794e-05
9.93453e-06
9.05221e-06
8.23178e-06
7.47217e-06
6.77206e-06
6.12997e-06
5.54437e-06
5.01386e-06
4.53724e-06
4.11375e-06
3.74323e-06
3.42637e-06
3.1651e-06
2.96314e-06
2.827e-06
2.76772e-06
2.80449e-06
2.97309e-06
3.34788e-06
4.11262e-06
5.88185e-06
1.24172e-05
3.70749e-05
1.75624e-05
1.22302e-05
9.84361e-06
8.56803e-06
7.85578e-06
7.48648e-06
7.35249e-06
7.39259e-06
7.57115e-06
7.86351e-06
8.25188e-06
8.72266e-06
9.26498e-06
9.86982e-06
1.05296e-05
1.12378e-05
1.19887e-05
1.27774e-05
1.35997e-05
1.44517e-05
1.53302e-05
1.62321e-05
1.71548e-05
1.80957e-05
1.90528e-05
2.00236e-05
2.10062e-05
2.19985e-05
2.29984e-05
2.4004e-05
2.50132e-05
2.6024e-05
2.70344e-05