/*--------------------------------*- C++ -*----------------------------------*\
  =========                 |
  \\      /  F ield         | OpenFOAM: The Open Source CFD Toolbox
   \\    /   O peration     | Website:  https://openfoam.org
    \\  /    A nd           | Version:  12
     \\/     M anipulation  |
\*---------------------------------------------------------------------------*/
FoamFile
{
    format      ascii;
    class       volScalarField;
    location    "5";
    object      k;
}
// * * * * * * * * * * * * * * * * * * * * * * * * * * * * * * * * * * * * * //

dimensions      [0 2 -2 0 0 0 0];

internalField   nonuniform List<scalar> 
18225
(
4.50857e-11
2.2531e-10
4.93086e-10
8.14636e-10
1.17491e-09
1.56501e-09
1.97865e-09
2.41097e-09
2.85798e-09
3.31637e-09
3.78335e-09
4.25654e-09
4.73395e-09
5.21392e-09
5.69508e-09
6.17636e-09
6.65692e-09
7.13618e-09
7.61373e-09
8.08939e-09
8.56311e-09
9.03501e-09
9.50532e-09
9.97438e-09
1.04426e-08
1.09104e-08
1.13784e-08
1.1847e-08
1.23168e-08
1.27882e-08
1.32617e-08
1.37378e-08
1.42167e-08
1.46987e-08
1.51841e-08
1.56729e-08
1.61652e-08
1.6661e-08
1.71601e-08
1.76623e-08
1.81673e-08
1.86746e-08
1.91838e-08
1.96943e-08
2.02056e-08
2.07167e-08
2.1227e-08
2.17355e-08
2.22412e-08
2.27432e-08
2.32402e-08
2.37311e-08
2.42146e-08
2.46893e-08
2.51539e-08
2.56067e-08
2.60463e-08
2.6471e-08
2.68791e-08
2.72689e-08
2.76387e-08
2.79865e-08
2.83106e-08
2.86091e-08
2.88801e-08
2.91218e-08
2.93323e-08
2.95099e-08
2.96528e-08
2.97595e-08
2.98279e-08
2.98567e-08
2.9846e-08
2.97939e-08
2.96991e-08
2.95609e-08
2.93787e-08
2.91522e-08
2.88813e-08
2.85661e-08
2.82071e-08
2.78051e-08
2.7361e-08
2.68761e-08
2.6352e-08
2.57905e-08
2.51936e-08
2.45637e-08
2.39033e-08
2.32152e-08
2.25023e-08
2.17675e-08
2.10143e-08
2.02457e-08
1.94651e-08
1.86759e-08
1.78813e-08
1.70847e-08
1.62892e-08
1.54979e-08
1.47137e-08
1.39394e-08
1.31776e-08
1.24305e-08
1.17003e-08
1.09889e-08
1.0298e-08
9.62901e-09
8.98298e-09
8.36087e-09
7.76334e-09
7.19083e-09
6.64357e-09
6.12161e-09
5.62476e-09
5.15265e-09
4.70482e-09
4.28062e-09
3.87935e-09
3.50017e-09
3.1422e-09
2.80453e-09
2.4862e-09
2.18629e-09
1.90394e-09
1.63833e-09
1.38881e-09
1.15488e-09
9.36298e-10
7.33167e-10
5.46088e-10
3.76438e-10
2.26967e-10
1.03488e-10
2.06976e-11
2.25446e-10
1.93971e-09
4.38279e-09
7.29098e-09
1.05414e-08
1.40577e-08
1.77845e-08
2.16785e-08
2.57041e-08
2.98317e-08
3.4036e-08
3.82957e-08
4.2593e-08
4.6913e-08
5.12434e-08
5.55747e-08
5.98993e-08
6.42119e-08
6.8509e-08
7.27888e-08
7.70511e-08
8.12968e-08
8.55282e-08
8.97481e-08
9.39605e-08
9.81694e-08
1.02379e-07
1.06595e-07
1.10822e-07
1.15063e-07
1.19323e-07
1.23606e-07
1.27914e-07
1.32251e-07
1.36618e-07
1.41016e-07
1.45446e-07
1.49907e-07
1.54398e-07
1.58916e-07
1.6346e-07
1.68025e-07
1.72607e-07
1.77201e-07
1.81802e-07
1.86401e-07
1.90993e-07
1.95569e-07
2.00121e-07
2.04638e-07
2.09112e-07
2.1353e-07
2.17881e-07
2.22154e-07
2.26335e-07
2.30411e-07
2.34368e-07
2.38191e-07
2.41866e-07
2.45375e-07
2.48704e-07
2.51836e-07
2.54754e-07
2.57442e-07
2.59883e-07
2.62061e-07
2.63957e-07
2.65557e-07
2.66842e-07
2.67799e-07
2.6841e-07
2.68664e-07
2.68564e-07
2.68091e-07
2.67234e-07
2.65986e-07
2.64342e-07
2.62299e-07
2.59857e-07
2.57017e-07
2.53783e-07
2.50161e-07
2.46162e-07
2.41795e-07
2.37076e-07
2.32021e-07
2.26648e-07
2.20978e-07
2.15034e-07
2.08841e-07
2.02425e-07
1.95813e-07
1.89034e-07
1.82118e-07
1.75095e-07
1.67994e-07
1.60845e-07
1.53678e-07
1.46521e-07
1.39402e-07
1.32347e-07
1.25381e-07
1.18527e-07
1.11806e-07
1.05238e-07
9.88386e-08
9.26234e-08
8.6605e-08
8.07936e-08
7.51974e-08
6.98224e-08
6.46725e-08
5.97497e-08
5.5054e-08
5.05839e-08
4.63366e-08
4.23078e-08
3.84919e-08
3.48823e-08
3.14715e-08
2.82517e-08
2.52144e-08
2.23512e-08
1.96537e-08
1.7114e-08
1.47249e-08
1.24804e-08
1.03758e-08
8.40905e-09
6.58077e-09
4.89614e-09
3.36693e-09
2.01622e-09
8.90482e-10
1.03444e-10
4.94599e-10
4.39331e-09
1.00112e-08
1.67243e-08
2.42358e-08
3.23636e-08
4.09778e-08
4.99775e-08
5.92803e-08
6.88177e-08
7.85315e-08
8.83726e-08
9.82997e-08
1.08278e-07
1.18281e-07
1.28284e-07
1.38272e-07
1.48231e-07
1.58154e-07
1.68037e-07
1.77879e-07
1.87683e-07
1.97454e-07
2.07199e-07
2.16926e-07
2.26646e-07
2.36369e-07
2.46107e-07
2.55869e-07
2.65666e-07
2.75507e-07
2.85402e-07
2.95358e-07
3.05379e-07
3.15471e-07
3.25636e-07
3.35874e-07
3.46185e-07
3.56565e-07
3.6701e-07
3.77512e-07
3.88065e-07
3.98657e-07
4.09276e-07
4.19909e-07
4.3054e-07
4.41153e-07
4.51728e-07
4.62245e-07
4.72682e-07
4.83016e-07
4.93221e-07
5.03271e-07
5.13137e-07
5.22789e-07
5.32197e-07
5.41327e-07
5.50146e-07
5.58619e-07
5.66709e-07
5.7438e-07
5.81593e-07
5.88312e-07
5.94496e-07
6.00108e-07
6.05108e-07
6.09459e-07
6.13124e-07
6.16066e-07
6.1825e-07
6.19632e-07
6.2019e-07
6.19936e-07
6.18817e-07
6.16813e-07
6.13905e-07
6.10083e-07
6.05341e-07
5.99676e-07
5.93094e-07
5.85604e-07
5.7722e-07
5.67965e-07
5.57864e-07
5.46951e-07
5.35262e-07
5.22842e-07
5.09738e-07
4.96003e-07
4.81695e-07
4.66874e-07
4.51603e-07
4.35949e-07
4.1998e-07
4.03764e-07
3.87371e-07
3.7087e-07
3.54328e-07
3.37811e-07
3.21383e-07
3.05105e-07
2.89033e-07
2.73221e-07
2.57718e-07
2.42566e-07
2.27807e-07
2.13473e-07
1.99593e-07
1.86192e-07
1.73288e-07
1.60895e-07
1.49022e-07
1.37673e-07
1.26848e-07
1.16545e-07
1.06755e-07
9.74698e-08
8.8675e-08
8.03557e-08
7.2495e-08
6.50742e-08
5.80741e-08
5.14751e-08
4.52578e-08
3.9404e-08
3.3897e-08
2.87226e-08
2.38705e-08
1.93355e-08
1.51192e-08
1.12339e-08
7.70764e-09
4.59625e-09
2.01286e-09
2.2648e-10
8.20704e-10
7.34005e-09
1.67962e-08
2.81382e-08
4.0852e-08
5.46198e-08
6.92162e-08
8.44673e-08
1.00232e-07
1.16394e-07
1.32854e-07
1.49528e-07
1.66346e-07
1.8325e-07
2.00193e-07
2.17137e-07
2.34053e-07
2.5092e-07
2.67725e-07
2.84461e-07
3.01128e-07
3.17731e-07
3.34277e-07
3.5078e-07
3.67255e-07
3.83719e-07
4.00189e-07
4.16684e-07
4.33224e-07
4.49825e-07
4.66503e-07
4.83274e-07
5.00149e-07
5.17137e-07
5.34247e-07
5.51481e-07
5.68842e-07
5.86325e-07
6.03927e-07
6.21639e-07
6.39449e-07
6.57342e-07
6.75301e-07
6.93305e-07
7.11331e-07
7.29351e-07
7.47337e-07
7.65256e-07
7.83074e-07
8.00752e-07
8.18252e-07
8.35529e-07
8.52538e-07
8.69231e-07
8.85557e-07
9.01464e-07
9.16896e-07
9.31795e-07
9.46103e-07
9.59759e-07
9.727e-07
9.84862e-07
9.96181e-07
1.00659e-06
1.01603e-06
1.02443e-06
1.03173e-06
1.03786e-06
1.04277e-06
1.0464e-06
1.04866e-06
1.04953e-06
1.04904e-06
1.04708e-06
1.04361e-06
1.03862e-06
1.03209e-06
1.024e-06
1.01434e-06
1.00314e-06
9.90403e-07
9.76157e-07
9.60437e-07
9.4329e-07
9.2477e-07
9.04941e-07
8.83877e-07
8.6166e-07
8.3838e-07
8.14132e-07
7.8902e-07
7.63151e-07
7.36639e-07
7.09597e-07
6.82142e-07
6.54393e-07
6.26464e-07
5.98471e-07
5.70526e-07
5.42735e-07
5.15202e-07
4.88023e-07
4.61287e-07
4.35077e-07
4.09466e-07
3.84521e-07
3.60299e-07
3.36849e-07
3.1421e-07
2.92413e-07
2.71482e-07
2.51431e-07
2.32268e-07
2.13993e-07
1.96599e-07
1.80075e-07
1.64402e-07
1.49558e-07
1.35518e-07
1.22253e-07
1.0973e-07
9.7917e-08
8.67812e-08
7.62894e-08
6.64106e-08
5.71166e-08
4.83835e-08
4.01939e-08
3.25392e-08
2.54229e-08
1.88668e-08
1.29209e-08
7.68344e-09
3.35076e-09
3.74433e-10
1.19122e-09
1.06798e-08
2.44942e-08
4.11101e-08
5.97683e-08
7.99933e-08
1.01447e-07
1.23869e-07
1.4705e-07
1.70814e-07
1.95017e-07
2.19533e-07
2.44261e-07
2.69113e-07
2.94021e-07
3.18928e-07
3.43792e-07
3.68583e-07
3.93282e-07
4.1788e-07
4.42377e-07
4.66778e-07
4.91099e-07
5.15357e-07
5.39575e-07
5.6378e-07
5.87996e-07
6.12254e-07
6.36579e-07
6.60998e-07
6.85534e-07
7.10209e-07
7.3504e-07
7.60041e-07
7.85222e-07
8.10588e-07
8.3614e-07
8.61873e-07
8.87779e-07
9.13845e-07
9.40053e-07
9.66379e-07
9.92799e-07
1.01928e-06
1.04578e-06
1.07228e-06
1.09871e-06
1.12504e-06
1.1512e-06
1.17716e-06
1.20284e-06
1.22818e-06
1.25312e-06
1.27759e-06
1.3015e-06
1.32479e-06
1.34737e-06
1.36916e-06
1.39007e-06
1.41001e-06
1.4289e-06
1.44663e-06
1.46313e-06
1.47828e-06
1.492e-06
1.50419e-06
1.51476e-06
1.52362e-06
1.53069e-06
1.53588e-06
1.53904e-06
1.54019e-06
1.53933e-06
1.53632e-06
1.53111e-06
1.52367e-06
1.51395e-06
1.50196e-06
1.48768e-06
1.47113e-06
1.45234e-06
1.43133e-06
1.40816e-06
1.38291e-06
1.35564e-06
1.32646e-06
1.29546e-06
1.26279e-06
1.22855e-06
1.1929e-06
1.15599e-06
1.11797e-06
1.07901e-06
1.03929e-06
9.98962e-07
9.58212e-07
9.17208e-07
8.76118e-07
8.35107e-07
7.94331e-07
7.53943e-07
7.14082e-07
6.7488e-07
6.36458e-07
5.98923e-07
5.62372e-07
5.26889e-07
4.92543e-07
4.59392e-07
4.27482e-07
3.96845e-07
3.67503e-07
3.39464e-07
3.12729e-07
2.87287e-07
2.63121e-07
2.40202e-07
2.18499e-07
1.97972e-07
1.78578e-07
1.60272e-07
1.43004e-07
1.26726e-07
1.11389e-07
9.69478e-08
8.33612e-08
7.05944e-08
5.86221e-08
4.74323e-08
3.70318e-08
2.74543e-08
1.8776e-08
1.11446e-08
4.84908e-09
5.40535e-10
1.60017e-09
1.43625e-08
3.2984e-08
5.54269e-08
8.06652e-08
1.0805e-07
1.37116e-07
1.67506e-07
1.9893e-07
2.31149e-07
2.63963e-07
2.97204e-07
3.30729e-07
3.64423e-07
3.9819e-07
4.31954e-07
4.65659e-07
4.99263e-07
5.32742e-07
5.66084e-07
5.99288e-07
6.32364e-07
6.65333e-07
6.98219e-07
7.31054e-07
7.63873e-07
7.96714e-07
8.29614e-07
8.6261e-07
8.95738e-07
9.29029e-07
9.62511e-07
9.96208e-07
1.03014e-06
1.06431e-06
1.09873e-06
1.13341e-06
1.16832e-06
1.20347e-06
1.23883e-06
1.27436e-06
1.31006e-06
1.34586e-06
1.38174e-06
1.41763e-06
1.45349e-06
1.48925e-06
1.52486e-06
1.56023e-06
1.59529e-06
1.62996e-06
1.66415e-06
1.69778e-06
1.73074e-06
1.76294e-06
1.79428e-06
1.82464e-06
1.85391e-06
1.88198e-06
1.90873e-06
1.93403e-06
1.95778e-06
1.97983e-06
2.00007e-06
2.01836e-06
2.03459e-06
2.04864e-06
2.06037e-06
2.06968e-06
2.07646e-06
2.08049e-06
2.08182e-06
2.08046e-06
2.0762e-06
2.06897e-06
2.05872e-06
2.04542e-06
2.02904e-06
2.00958e-06
1.98707e-06
1.96152e-06
1.93299e-06
1.90154e-06
1.86728e-06
1.83031e-06
1.79074e-06
1.74874e-06
1.70446e-06
1.65808e-06
1.60979e-06
1.5598e-06
1.50833e-06
1.45559e-06
1.40182e-06
1.34725e-06
1.29211e-06
1.23664e-06
1.18106e-06
1.12561e-06
1.07049e-06
1.0159e-06
9.62041e-07
9.09086e-07
8.57199e-07
8.06525e-07
7.57193e-07
7.09315e-07
6.62986e-07
6.18282e-07
5.75262e-07
5.3397e-07
4.94432e-07
4.56661e-07
4.20653e-07
3.86395e-07
3.5386e-07
3.2301e-07
2.93801e-07
2.66178e-07
2.40083e-07
2.15452e-07
1.9222e-07
1.70319e-07
1.49686e-07
1.30257e-07
1.11978e-07
9.48022e-08
7.86958e-08
6.36442e-08
4.96581e-08
3.67855e-08
2.51321e-08
1.4899e-08
6.474e-09
7.20842e-10
2.04446e-09
1.83617e-08
4.22026e-08
7.09768e-08
1.03373e-07
1.38555e-07
1.75921e-07
2.15003e-07
2.55427e-07
2.96882e-07
3.39105e-07
3.81879e-07
4.25021e-07
4.68378e-07
5.11829e-07
5.55274e-07
5.98641e-07
6.41878e-07
6.84952e-07
7.27849e-07
7.70568e-07
8.13126e-07
8.55545e-07
8.97862e-07
9.40117e-07
9.82355e-07
1.02463e-06
1.06698e-06
1.10945e-06
1.15211e-06
1.19497e-06
1.23808e-06
1.28147e-06
1.32515e-06
1.36915e-06
1.41346e-06
1.45809e-06
1.50301e-06
1.54822e-06
1.59368e-06
1.63936e-06
1.68521e-06
1.73119e-06
1.77723e-06
1.82326e-06
1.86922e-06
1.91503e-06
1.9606e-06
2.00584e-06
2.05064e-06
2.09492e-06
2.13854e-06
2.18141e-06
2.2234e-06
2.26438e-06
2.30422e-06
2.34279e-06
2.37994e-06
2.41553e-06
2.44941e-06
2.48144e-06
2.51144e-06
2.53928e-06
2.56479e-06
2.58782e-06
2.6082e-06
2.62579e-06
2.64044e-06
2.652e-06
2.66033e-06
2.66511e-06
2.66652e-06
2.66449e-06
2.65876e-06
2.64924e-06
2.63587e-06
2.61861e-06
2.59743e-06
2.57233e-06
2.54331e-06
2.51042e-06
2.47372e-06
2.43331e-06
2.38929e-06
2.34179e-06
2.29099e-06
2.23707e-06
2.18022e-06
2.1207e-06
2.05873e-06
1.99458e-06
1.92853e-06
1.86087e-06
1.79189e-06
1.7219e-06
1.65119e-06
1.58006e-06
1.50881e-06
1.43773e-06
1.36709e-06
1.29716e-06
1.22817e-06
1.16037e-06
1.09394e-06
1.02909e-06
9.65982e-07
9.04749e-07
8.45517e-07
7.8838e-07
7.33414e-07
6.80672e-07
6.30186e-07
5.8197e-07
5.36019e-07
4.92312e-07
4.50812e-07
4.11471e-07
3.74228e-07
3.39014e-07
3.05751e-07
2.74359e-07
2.44751e-07
2.16841e-07
1.90547e-07
1.65788e-07
1.42495e-07
1.20608e-07
1.00085e-07
8.09098e-08
6.30975e-08
4.6712e-08
3.18902e-08
1.88897e-08
8.20126e-09
9.12597e-10
2.52256e-09
2.26641e-08
5.2119e-08
8.7705e-08
1.27807e-07
1.71391e-07
2.17706e-07
2.6617e-07
3.16312e-07
3.67742e-07
4.20134e-07
4.73214e-07
5.26752e-07
5.80558e-07
6.34478e-07
6.88391e-07
7.42205e-07
7.95855e-07
8.49301e-07
9.02526e-07
9.5553e-07
1.00833e-06
1.06097e-06
1.11347e-06
1.1659e-06
1.21832e-06
1.27077e-06
1.32333e-06
1.37605e-06
1.42898e-06
1.48218e-06
1.53567e-06
1.58951e-06
1.6437e-06
1.69827e-06
1.75321e-06
1.80852e-06
1.86417e-06
1.92015e-06
1.97642e-06
2.03291e-06
2.08959e-06
2.14637e-06
2.20319e-06
2.25996e-06
2.31659e-06
2.37298e-06
2.42902e-06
2.48461e-06
2.5396e-06
2.59389e-06
2.64734e-06
2.6998e-06
2.75112e-06
2.80117e-06
2.84977e-06
2.89677e-06
2.942e-06
2.98528e-06
3.02643e-06
3.06528e-06
3.10164e-06
3.13532e-06
3.16614e-06
3.19391e-06
3.21844e-06
3.23954e-06
3.25704e-06
3.27075e-06
3.28052e-06
3.28589e-06
3.28724e-06
3.28435e-06
3.27692e-06
3.26486e-06
3.24809e-06
3.22654e-06
3.20019e-06
3.16903e-06
3.13307e-06
3.09236e-06
3.04698e-06
2.99702e-06
2.94262e-06
2.88396e-06
2.82122e-06
2.75464e-06
2.68446e-06
2.61096e-06
2.53446e-06
2.45527e-06
2.37374e-06
2.29021e-06
2.20507e-06
2.11867e-06
2.0314e-06
1.94361e-06
1.85569e-06
1.76799e-06
1.68085e-06
1.59459e-06
1.50952e-06
1.42592e-06
1.34405e-06
1.26414e-06
1.18639e-06
1.11098e-06
1.03806e-06
9.67744e-07
9.00122e-07
8.35257e-07
7.73187e-07
7.13928e-07
6.5747e-07
6.03784e-07
5.52824e-07
5.04527e-07
4.58816e-07
4.15603e-07
3.74793e-07
3.36281e-07
2.99961e-07
2.65728e-07
2.33477e-07
2.03111e-07
1.74543e-07
1.47701e-07
1.22535e-07
9.90253e-08
7.71935e-08
5.71202e-08
3.89747e-08
2.30728e-08
1.0012e-08
1.11368e-09
3.0339e-09
2.72649e-08
6.27219e-08
1.05591e-07
1.53937e-07
2.06512e-07
2.6241e-07
3.20927e-07
3.81488e-07
4.43619e-07
5.06923e-07
5.71064e-07
6.35762e-07
7.00786e-07
7.65947e-07
8.31097e-07
8.96124e-07
9.60948e-07
1.02552e-06
1.08982e-06
1.15386e-06
1.21764e-06
1.28122e-06
1.34464e-06
1.40797e-06
1.47128e-06
1.53464e-06
1.59811e-06
1.66178e-06
1.72569e-06
1.78991e-06
1.85449e-06
1.91945e-06
1.98482e-06
2.05062e-06
2.11683e-06
2.18345e-06
2.25045e-06
2.31779e-06
2.38542e-06
2.45328e-06
2.52129e-06
2.58936e-06
2.65741e-06
2.72533e-06
2.79301e-06
2.86032e-06
2.92715e-06
2.99335e-06
3.05878e-06
3.12328e-06
3.18671e-06
3.2489e-06
3.30968e-06
3.36886e-06
3.42627e-06
3.48173e-06
3.53502e-06
3.58596e-06
3.63434e-06
3.67995e-06
3.72257e-06
3.762e-06
3.79801e-06
3.83039e-06
3.85892e-06
3.88338e-06
3.90357e-06
3.91927e-06
3.93028e-06
3.93602e-06
3.93713e-06
3.93315e-06
3.92379e-06
3.90893e-06
3.88847e-06
3.86236e-06
3.83053e-06
3.79298e-06
3.74973e-06
3.70081e-06
3.64633e-06
3.5864e-06
3.52117e-06
3.45084e-06
3.37565e-06
3.29585e-06
3.21175e-06
3.12368e-06
3.032e-06
2.9371e-06
2.83939e-06
2.73928e-06
2.63723e-06
2.53367e-06
2.42905e-06
2.32383e-06
2.21844e-06
2.11331e-06
2.00886e-06
1.90548e-06
1.80353e-06
1.70336e-06
1.60528e-06
1.50957e-06
1.41648e-06
1.3262e-06
1.23893e-06
1.1548e-06
1.07392e-06
9.9636e-07
9.22169e-07
8.51359e-07
7.83918e-07
7.19809e-07
6.58973e-07
6.01332e-07
5.46791e-07
4.95242e-07
4.46568e-07
4.00643e-07
3.57339e-07
3.16526e-07
2.78078e-07
2.4188e-07
2.07826e-07
1.75833e-07
1.45841e-07
1.17828e-07
9.18212e-08
6.79193e-08
4.63247e-08
2.74128e-08
1.1891e-08
1.32237e-09
3.57854e-09
3.21648e-08
7.40132e-08
1.24639e-07
1.81764e-07
2.4392e-07
3.10035e-07
3.79273e-07
4.50953e-07
5.24509e-07
5.99466e-07
6.75423e-07
7.52044e-07
8.29053e-07
9.06221e-07
9.83372e-07
1.06037e-06
1.13712e-06
1.21357e-06
1.28968e-06
1.36546e-06
1.44095e-06
1.51618e-06
1.59121e-06
1.66613e-06
1.74101e-06
1.81594e-06
1.89099e-06
1.96626e-06
2.04179e-06
2.11767e-06
2.19393e-06
2.27062e-06
2.34775e-06
2.42533e-06
2.50336e-06
2.5818e-06
2.66062e-06
2.73977e-06
2.81919e-06
2.89878e-06
2.97846e-06
3.05813e-06
3.13767e-06
3.21697e-06
3.29588e-06
3.37426e-06
3.45197e-06
3.52885e-06
3.60473e-06
3.67944e-06
3.75281e-06
3.82465e-06
3.89476e-06
3.96295e-06
4.029e-06
4.09272e-06
4.15388e-06
4.21226e-06
4.26763e-06
4.31975e-06
4.36839e-06
4.4133e-06
4.45424e-06
4.49096e-06
4.52322e-06
4.55077e-06
4.57337e-06
4.59079e-06
4.60274e-06
4.60857e-06
4.60922e-06
4.6039e-06
4.59235e-06
4.57443e-06
4.55003e-06
4.51908e-06
4.48152e-06
4.43732e-06
4.3865e-06
4.32912e-06
4.26526e-06
4.19506e-06
4.1187e-06
4.0364e-06
3.94842e-06
3.85507e-06
3.75668e-06
3.65365e-06
3.5464e-06
3.43536e-06
3.32101e-06
3.20385e-06
3.08439e-06
2.96314e-06
2.84065e-06
2.71743e-06
2.59399e-06
2.47086e-06
2.3485e-06
2.22739e-06
2.10797e-06
1.99063e-06
1.87574e-06
1.76363e-06
1.65461e-06
1.5489e-06
1.44673e-06
1.34826e-06
1.25361e-06
1.16288e-06
1.07611e-06
9.93316e-07
9.1449e-07
8.3958e-07
7.68517e-07
7.01204e-07
6.37529e-07
5.77363e-07
5.20564e-07
4.66983e-07
4.16467e-07
3.68864e-07
3.24024e-07
2.81812e-07
2.42103e-07
2.04801e-07
1.69836e-07
1.37184e-07
1.06879e-07
7.90354e-08
5.38907e-08
3.18808e-08
1.38256e-08
1.53728e-09
4.15702e-09
3.73685e-08
8.60041e-08
1.44866e-07
2.11316e-07
2.8365e-07
3.60624e-07
4.41263e-07
5.2477e-07
6.10483e-07
6.97843e-07
7.8638e-07
8.75695e-07
9.65461e-07
1.05541e-06
1.14533e-06
1.23505e-06
1.32448e-06
1.41353e-06
1.50217e-06
1.59042e-06
1.67829e-06
1.76585e-06
1.85316e-06
1.94032e-06
2.0274e-06
2.11452e-06
2.20176e-06
2.2892e-06
2.37693e-06
2.465e-06
2.55348e-06
2.64239e-06
2.73175e-06
2.82156e-06
2.9118e-06
3.00243e-06
3.09341e-06
3.18467e-06
3.27611e-06
3.36765e-06
3.45917e-06
3.55054e-06
3.64165e-06
3.73233e-06
3.82244e-06
3.91182e-06
4.0003e-06
4.08771e-06
4.17385e-06
4.25853e-06
4.34157e-06
4.42276e-06
4.50188e-06
4.57872e-06
4.65306e-06
4.72466e-06
4.79328e-06
4.85869e-06
4.92063e-06
4.97884e-06
5.03306e-06
5.08304e-06
5.12848e-06
5.16914e-06
5.20472e-06
5.23497e-06
5.25961e-06
5.27838e-06
5.29086e-06
5.29646e-06
5.29638e-06
5.28941e-06
5.27538e-06
5.25414e-06
5.22556e-06
5.18954e-06
5.14604e-06
5.095e-06
5.03645e-06
4.97044e-06
4.89707e-06
4.81648e-06
4.72886e-06
4.63447e-06
4.53359e-06
4.42656e-06
4.31377e-06
4.19565e-06
4.07267e-06
3.94533e-06
3.81417e-06
3.67975e-06
3.54265e-06
3.40348e-06
3.26283e-06
3.1213e-06
2.97949e-06
2.83799e-06
2.69736e-06
2.55813e-06
2.42081e-06
2.28586e-06
2.15373e-06
2.02479e-06
1.89938e-06
1.7778e-06
1.66029e-06
1.54705e-06
1.43822e-06
1.33392e-06
1.23419e-06
1.13905e-06
1.0485e-06
9.62467e-07
8.80874e-07
8.0361e-07
7.30541e-07
6.61517e-07
5.96371e-07
5.3493e-07
4.77015e-07
4.22447e-07
3.71056e-07
3.22681e-07
2.77181e-07
2.34442e-07
1.94387e-07
1.56988e-07
1.22284e-07
9.04087e-08
6.16324e-08
3.6453e-08
1.58057e-08
1.75726e-09
4.77013e-09
4.28834e-08
9.87113e-08
1.66302e-07
2.42634e-07
3.25759e-07
4.14249e-07
5.06982e-07
6.03042e-07
7.01662e-07
8.02194e-07
9.04088e-07
1.00688e-06
1.11019e-06
1.2137e-06
1.31715e-06
1.42036e-06
1.5232e-06
1.62558e-06
1.72747e-06
1.82885e-06
1.92978e-06
2.03031e-06
2.13052e-06
2.23051e-06
2.33039e-06
2.43024e-06
2.53019e-06
2.63032e-06
2.73072e-06
2.83144e-06
2.93255e-06
3.03406e-06
3.136e-06
3.23834e-06
3.34106e-06
3.4441e-06
3.54741e-06
3.65088e-06
3.75443e-06
3.85792e-06
3.96124e-06
4.06424e-06
4.16676e-06
4.26864e-06
4.36972e-06
4.46981e-06
4.56872e-06
4.66627e-06
4.76225e-06
4.85646e-06
4.94869e-06
5.03872e-06
5.12632e-06
5.21126e-06
5.2933e-06
5.3722e-06
5.44769e-06
5.51953e-06
5.58744e-06
5.65115e-06
5.71038e-06
5.76483e-06
5.81421e-06
5.85824e-06
5.89661e-06
5.92903e-06
5.95521e-06
5.97486e-06
5.98737e-06
5.99251e-06
5.99124e-06
5.98229e-06
5.96548e-06
5.94064e-06
5.90766e-06
5.86641e-06
5.81682e-06
5.75885e-06
5.69251e-06
5.61785e-06
5.53497e-06
5.44404e-06
5.34524e-06
5.23886e-06
5.1252e-06
5.00463e-06
4.87757e-06
4.7445e-06
4.60592e-06
4.46241e-06
4.31454e-06
4.16295e-06
4.00828e-06
3.8512e-06
3.69239e-06
3.53252e-06
3.37227e-06
3.21229e-06
3.05323e-06
2.89569e-06
2.74026e-06
2.58747e-06
2.43781e-06
2.29174e-06
2.14965e-06
2.01187e-06
1.8787e-06
1.75035e-06
1.62701e-06
1.5088e-06
1.39579e-06
1.28801e-06
1.18543e-06
1.088e-06
9.95613e-07
9.08153e-07
8.25463e-07
7.4737e-07
6.73685e-07
6.04207e-07
5.3873e-07
4.77051e-07
4.18973e-07
3.64311e-07
3.12907e-07
2.64628e-07
2.19388e-07
1.77155e-07
1.37973e-07
1.01992e-07
6.95177e-08
4.11109e-08
1.78231e-08
1.98142e-09
5.41886e-09
4.87185e-08
1.12156e-07
1.88981e-07
2.75772e-07
3.70319e-07
4.71001e-07
5.76544e-07
6.85904e-07
7.98202e-07
9.12694e-07
1.02875e-06
1.14582e-06
1.26347e-06
1.38132e-06
1.49909e-06
1.61655e-06
1.73353e-06
1.84995e-06
1.96575e-06
2.08094e-06
2.19555e-06
2.30965e-06
2.42333e-06
2.5367e-06
2.64987e-06
2.76295e-06
2.87606e-06
2.98929e-06
3.10272e-06
3.21644e-06
3.33046e-06
3.44483e-06
3.55954e-06
3.67457e-06
3.78987e-06
3.90537e-06
4.02099e-06
4.13662e-06
4.25214e-06
4.36741e-06
4.48229e-06
4.5966e-06
4.71019e-06
4.82286e-06
4.93444e-06
5.04473e-06
5.15353e-06
5.26063e-06
5.36583e-06
5.4689e-06
5.56962e-06
5.66777e-06
5.76311e-06
5.85539e-06
5.94438e-06
6.0298e-06
6.11139e-06
6.18889e-06
6.262e-06
6.33044e-06
6.39391e-06
6.4521e-06
6.50471e-06
6.55141e-06
6.5919e-06
6.62586e-06
6.65298e-06
6.67294e-06
6.68491e-06
6.68922e-06
6.68633e-06
6.67502e-06
6.65512e-06
6.62645e-06
6.58888e-06
6.54227e-06
6.48654e-06
6.42165e-06
6.3476e-06
6.26442e-06
6.17224e-06
6.0712e-06
5.96152e-06
5.84348e-06
5.71741e-06
5.58369e-06
5.44278e-06
5.29518e-06
5.14145e-06
4.98218e-06
4.81802e-06
4.64964e-06
4.47776e-06
4.3031e-06
4.1264e-06
3.94842e-06
3.7699e-06
3.59158e-06
3.41417e-06
3.23836e-06
3.06479e-06
2.89409e-06
2.72681e-06
2.56346e-06
2.4045e-06
2.25032e-06
2.10124e-06
1.95755e-06
1.81944e-06
1.68706e-06
1.5605e-06
1.4398e-06
1.32494e-06
1.21586e-06
1.11245e-06
1.01457e-06
9.2205e-07
8.34697e-07
7.52297e-07
6.74621e-07
6.01438e-07
5.32516e-07
4.67632e-07
4.06578e-07
3.49172e-07
2.95266e-07
2.44762e-07
1.97622e-07
1.53896e-07
1.13749e-07
7.75228e-08
4.58401e-08
1.98718e-08
2.20906e-09
6.10434e-09
5.48839e-08
1.26362e-07
2.12945e-07
3.10788e-07
4.17407e-07
5.30982e-07
6.50075e-07
7.73506e-07
9.00278e-07
1.02954e-06
1.16057e-06
1.29275e-06
1.42555e-06
1.55855e-06
1.6914e-06
1.82385e-06
1.95571e-06
2.08686e-06
2.21724e-06
2.34684e-06
2.47572e-06
2.60393e-06
2.73159e-06
2.8588e-06
2.98569e-06
3.11239e-06
3.239e-06
3.36563e-06
3.49237e-06
3.61928e-06
3.74639e-06
3.87371e-06
4.00125e-06
4.12895e-06
4.25675e-06
4.38458e-06
4.51231e-06
4.63984e-06
4.76701e-06
4.89366e-06
5.01964e-06
5.14477e-06
5.26885e-06
5.39169e-06
5.5131e-06
5.63286e-06
5.75078e-06
5.86663e-06
5.9802e-06
6.09126e-06
6.19958e-06
6.30494e-06
6.40709e-06
6.50577e-06
6.60075e-06
6.69174e-06
6.77847e-06
6.86068e-06
6.93805e-06
7.01029e-06
7.07709e-06
7.13814e-06
7.19311e-06
7.24167e-06
7.28349e-06
7.31825e-06
7.3456e-06
7.36522e-06
7.37604e-06
7.37912e-06
7.37414e-06
7.3601e-06
7.33681e-06
7.3041e-06
7.26182e-06
7.20982e-06
7.14801e-06
7.07634e-06
6.9948e-06
6.90343e-06
6.80233e-06
6.69165e-06
6.57162e-06
6.44251e-06
6.30466e-06
6.15847e-06
6.00442e-06
5.84302e-06
5.67485e-06
5.50056e-06
5.32081e-06
5.13634e-06
4.94789e-06
4.75625e-06
4.56223e-06
4.36664e-06
4.1703e-06
3.974e-06
3.77855e-06
3.5847e-06
3.39317e-06
3.20466e-06
3.0198e-06
2.83917e-06
2.66328e-06
2.49259e-06
2.32747e-06
2.16825e-06
2.01517e-06
1.86841e-06
1.72808e-06
1.59423e-06
1.46686e-06
1.34589e-06
1.23123e-06
1.12272e-06
1.02018e-06
9.23379e-07
8.32093e-07
7.46065e-07
6.65037e-07
5.88747e-07
5.16946e-07
4.49401e-07
3.85906e-07
3.26296e-07
2.70458e-07
2.18349e-07
1.70021e-07
1.25657e-07
8.56313e-08
5.06311e-08
2.19475e-08
2.43972e-09
6.82774e-09
6.13903e-08
1.41353e-07
2.38235e-07
3.47744e-07
4.6711e-07
5.943e-07
7.27708e-07
8.66008e-07
1.00808e-06
1.15295e-06
1.2998e-06
1.44791e-06
1.59669e-06
1.74564e-06
1.89436e-06
2.04254e-06
2.18997e-06
2.33651e-06
2.48208e-06
2.62668e-06
2.77035e-06
2.91316e-06
3.05522e-06
3.19666e-06
3.33762e-06
3.47821e-06
3.61856e-06
3.75878e-06
3.89894e-06
4.03911e-06
4.17931e-06
4.31954e-06
4.45977e-06
4.59996e-06
4.74001e-06
4.87983e-06
5.01929e-06
5.15824e-06
5.29653e-06
5.43397e-06
5.5704e-06
5.7056e-06
5.8394e-06
5.97157e-06
6.10192e-06
6.23024e-06
6.3563e-06
6.47989e-06
6.6008e-06
6.71878e-06
6.83362e-06
6.94508e-06
7.05292e-06
7.15688e-06
7.25671e-06
7.35214e-06
7.4429e-06
7.52869e-06
7.60923e-06
7.68419e-06
7.75328e-06
7.81616e-06
7.87251e-06
7.92199e-06
7.96426e-06
7.99898e-06
8.02581e-06
8.04432e-06
8.05339e-06
8.05481e-06
8.04727e-06
8.03014e-06
8.00322e-06
7.96633e-06
7.91929e-06
7.86198e-06
7.79429e-06
7.71613e-06
7.62751e-06
7.52845e-06
7.41904e-06
7.29942e-06
7.16981e-06
7.03048e-06
6.88177e-06
6.72408e-06
6.55788e-06
6.3837e-06
6.20214e-06
6.01385e-06
5.81953e-06
5.61994e-06
5.41587e-06
5.20815e-06
4.99764e-06
4.7852e-06
4.57171e-06
4.35805e-06
4.14507e-06
3.93361e-06
3.72447e-06
3.51843e-06
3.31617e-06
3.11837e-06
2.9256e-06
2.73838e-06
2.55715e-06
2.3823e-06
2.2141e-06
2.05278e-06
1.89848e-06
1.75127e-06
1.61116e-06
1.47809e-06
1.35196e-06
1.23261e-06
1.11983e-06
1.0134e-06
9.13055e-07
8.18516e-07
7.29498e-07
6.45714e-07
5.66884e-07
4.92748e-07
4.23079e-07
3.57689e-07
2.9645e-07
2.39313e-07
1.86331e-07
1.37702e-07
9.38343e-08
5.54787e-08
2.40479e-08
2.67315e-09
7.59024e-09
6.82482e-08
1.57155e-07
2.64892e-07
3.86701e-07
5.1951e-07
6.61064e-07
8.09577e-07
9.6357e-07
1.12178e-06
1.28312e-06
1.44665e-06
1.61156e-06
1.77715e-06
1.94285e-06
2.1082e-06
2.27284e-06
2.43652e-06
2.59908e-06
2.76041e-06
2.92052e-06
3.07943e-06
3.23725e-06
3.39407e-06
3.55003e-06
3.70527e-06
3.85993e-06
4.01413e-06
4.16798e-06
4.32155e-06
4.47489e-06
4.62802e-06
4.78092e-06
4.93356e-06
5.08586e-06
5.23772e-06
5.38901e-06
5.5396e-06
5.68931e-06
5.83798e-06
5.9854e-06
6.1314e-06
6.27576e-06
6.41829e-06
6.55876e-06
6.69696e-06
6.8327e-06
6.96574e-06
7.09588e-06
7.22289e-06
7.34655e-06
7.46664e-06
7.58292e-06
7.69515e-06
7.8031e-06
7.90649e-06
8.00508e-06
8.09857e-06
8.1867e-06
8.26915e-06
8.34564e-06
8.41583e-06
8.47941e-06
8.53605e-06
8.58542e-06
8.62717e-06
8.66098e-06
8.68651e-06
8.70296e-06
8.70991e-06
8.70911e-06
8.69857e-06
8.67805e-06
8.64733e-06
8.60621e-06
8.55452e-06
8.49211e-06
8.41886e-06
8.3347e-06
8.2396e-06
8.13356e-06
8.01667e-06
7.88905e-06
7.75089e-06
7.60246e-06
7.44407e-06
7.27612e-06
7.09906e-06
6.91342e-06
6.71979e-06
6.51882e-06
6.31123e-06
6.0978e-06
5.87933e-06
5.65669e-06
5.43077e-06
5.20248e-06
4.97276e-06
4.74255e-06
4.51276e-06
4.28432e-06
4.05809e-06
3.83491e-06
3.61558e-06
3.40083e-06
3.19132e-06
2.98764e-06
2.79031e-06
2.59976e-06
2.41633e-06
2.24029e-06
2.07183e-06
1.91106e-06
1.75799e-06
1.61259e-06
1.47476e-06
1.34434e-06
1.22112e-06
1.10485e-06
9.95252e-07
8.92029e-07
7.94866e-07
7.03447e-07
6.17466e-07
5.36634e-07
4.60697e-07
3.89448e-07
3.2274e-07
2.60514e-07
2.02825e-07
1.49883e-07
1.0213e-07
6.03817e-08
2.61727e-08
2.9093e-09
8.39298e-09
7.5468e-08
1.7379e-07
2.92958e-07
4.2772e-07
5.74689e-07
7.31379e-07
8.95812e-07
1.06635e-06
1.24157e-06
1.42026e-06
1.60135e-06
1.78391e-06
1.96715e-06
2.1504e-06
2.33314e-06
2.51494e-06
2.69552e-06
2.87466e-06
3.05228e-06
3.22834e-06
3.4029e-06
3.57602e-06
3.74784e-06
3.9185e-06
4.08815e-06
4.25692e-06
4.42494e-06
4.59232e-06
4.75912e-06
4.92538e-06
5.09111e-06
5.25629e-06
5.42085e-06
5.5847e-06
5.74772e-06
5.90977e-06
6.07069e-06
6.2303e-06
6.3884e-06
6.54481e-06
6.69931e-06
6.8517e-06
7.00177e-06
7.1493e-06
7.29409e-06
7.43593e-06
7.57461e-06
7.70991e-06
7.84163e-06
7.96955e-06
8.09345e-06
8.21311e-06
8.3283e-06
8.43878e-06
8.5443e-06
8.64461e-06
8.73943e-06
8.8285e-06
8.91152e-06
8.9882e-06
9.05822e-06
9.12129e-06
9.17706e-06
9.22523e-06
9.26545e-06
9.2974e-06
9.32076e-06
9.33439e-06
9.33905e-06
9.33526e-06
9.32138e-06
9.29726e-06
9.26266e-06
9.21738e-06
9.16125e-06
9.09411e-06
9.01583e-06
8.92632e-06
8.82552e-06
8.71344e-06
8.59012e-06
8.45566e-06
8.31024e-06
8.15407e-06
7.98745e-06
7.81074e-06
7.62438e-06
7.42886e-06
7.22475e-06
7.01271e-06
6.79343e-06
6.56768e-06
6.33629e-06
6.10014e-06
5.86014e-06
5.61724e-06
5.37243e-06
5.12669e-06
4.881e-06
4.63635e-06
4.39369e-06
4.15394e-06
3.91797e-06
3.6866e-06
3.46058e-06
3.24057e-06
3.02718e-06
2.8209e-06
2.62215e-06
2.43126e-06
2.24847e-06
2.07391e-06
1.90765e-06
1.74968e-06
1.59989e-06
1.45815e-06
1.32424e-06
1.1979e-06
1.07884e-06
9.66737e-07
8.6125e-07
7.62037e-07
6.68764e-07
5.81114e-07
4.98805e-07
4.21605e-07
3.4935e-07
2.81969e-07
2.19514e-07
1.62208e-07
1.10525e-07
6.53434e-08
2.8323e-08
3.14831e-09
9.23702e-09
8.30592e-08
1.91282e-07
3.2247e-07
4.70856e-07
6.32724e-07
8.05342e-07
9.86534e-07
1.17448e-06
1.36761e-06
1.56456e-06
1.7641e-06
1.96518e-06
2.1669e-06
2.36849e-06
2.56935e-06
2.76898e-06
2.96704e-06
3.16331e-06
3.35766e-06
3.55005e-06
3.74053e-06
3.92919e-06
4.11615e-06
4.30158e-06
4.48561e-06
4.66839e-06
4.85006e-06
5.03071e-06
5.2104e-06
5.38917e-06
5.56701e-06
5.74387e-06
5.91968e-06
6.09433e-06
6.26767e-06
6.43957e-06
6.60983e-06
6.77826e-06
6.94468e-06
7.10886e-06
7.27061e-06
7.42971e-06
7.58596e-06
7.73915e-06
7.88907e-06
8.03553e-06
8.17833e-06
8.31726e-06
8.45213e-06
8.58274e-06
8.70888e-06
8.83034e-06
8.9469e-06
9.05834e-06
9.16442e-06
9.26491e-06
9.35955e-06
9.44808e-06
9.53022e-06
9.6057e-06
9.67423e-06
9.7355e-06
9.78922e-06
9.83508e-06
9.87276e-06
9.90194e-06
9.92227e-06
9.93245e-06
9.93446e-06
9.92716e-06
9.90968e-06
9.88183e-06
9.84341e-06
9.79418e-06
9.73397e-06
9.66262e-06
9.57999e-06
9.48596e-06
9.38046e-06
9.26346e-06
9.13497e-06
8.99506e-06
8.84386e-06
8.68155e-06
8.50837e-06
8.32466e-06
8.13078e-06
7.92721e-06
7.71448e-06
7.49319e-06
7.26403e-06
7.02775e-06
6.78516e-06
6.53714e-06
6.28461e-06
6.02856e-06
5.76998e-06
5.50992e-06
5.24942e-06
4.98951e-06
4.73123e-06
4.47558e-06
4.22351e-06
3.97594e-06
3.7337e-06
3.49755e-06
3.26819e-06
3.04619e-06
2.83205e-06
2.62617e-06
2.42885e-06
2.24028e-06
2.06058e-06
1.88975e-06
1.72774e-06
1.57439e-06
1.42952e-06
1.29284e-06
1.16406e-06
1.04285e-06
9.28823e-07
8.21629e-07
7.20898e-07
6.26285e-07
5.37479e-07
4.54222e-07
3.76329e-07
3.03714e-07
2.36425e-07
1.74696e-07
1.1903e-07
7.03707e-08
3.05019e-08
3.3905e-09
1.01233e-08
9.10302e-08
2.09649e-07
3.53461e-07
5.16158e-07
6.93681e-07
8.83041e-07
1.08185e-06
1.2881e-06
1.50005e-06
1.71616e-06
1.93505e-06
2.15552e-06
2.37655e-06
2.59726e-06
2.81693e-06
3.03502e-06
3.25112e-06
3.46497e-06
3.67642e-06
3.88543e-06
4.09203e-06
4.29633e-06
4.49846e-06
4.69857e-06
4.89684e-06
5.0934e-06
5.28838e-06
5.48188e-06
5.67397e-06
5.86465e-06
6.0539e-06
6.24168e-06
6.42788e-06
6.61239e-06
6.79504e-06