/*--------------------------------*- C++ -*----------------------------------*\
  =========                 |
  \\      /  F ield         | OpenFOAM: The Open Source CFD Toolbox
   \\    /   O peration     | Website:  https://openfoam.org
    \\  /    A nd           | Version:  12
     \\/     M anipulation  |
\*---------------------------------------------------------------------------*/
FoamFile
{
    format      ascii;
    class       volScalarField;
    location    "5";
    object      nut;
}
// * * * * * * * * * * * * * * * * * * * * * * * * * * * * * * * * * * * * * //

dimensions      [0 2 -1 0 0 0 0];

internalField   nonuniform List<scalar> 
18225
(
1.10796e-15
5.53687e-15
1.21173e-14
2.00192e-14
2.88726e-14
3.84591e-14
4.86243e-14
5.92482e-14
7.02333e-14
8.1498e-14
9.29736e-14
1.04602e-13
1.16334e-13
1.28129e-13
1.39953e-13
1.51781e-13
1.6359e-13
1.75368e-13
1.87103e-13
1.98792e-13
2.10434e-13
2.22031e-13
2.33588e-13
2.45115e-13
2.56621e-13
2.68118e-13
2.79618e-13
2.91134e-13
3.02679e-13
3.14264e-13
3.259e-13
3.37599e-13
3.49367e-13
3.61213e-13
3.73141e-13
3.85154e-13
3.97253e-13
4.09437e-13
4.21702e-13
4.34043e-13
4.46452e-13
4.58919e-13
4.71433e-13
4.83979e-13
4.96542e-13
5.09103e-13
5.21643e-13
5.34139e-13
5.46568e-13
5.58903e-13
5.71117e-13
5.83181e-13
5.95062e-13
6.06729e-13
6.18144e-13
6.29272e-13
6.40075e-13
6.50511e-13
6.60541e-13
6.70121e-13
6.79207e-13
6.87755e-13
6.95719e-13
7.03055e-13
7.09715e-13
7.15654e-13
7.20828e-13
7.2519e-13
7.28703e-13
7.31325e-13
7.33005e-13
7.33713e-13
7.3345e-13
7.32169e-13
7.2984e-13
7.26445e-13
7.21967e-13
7.164e-13
7.09742e-13
7.01996e-13
6.93175e-13
6.83295e-13
6.72381e-13
6.60466e-13
6.47586e-13
6.33787e-13
6.19119e-13
6.0364e-13
5.87411e-13
5.70501e-13
5.5298e-13
5.34925e-13
5.16414e-13
4.97526e-13
4.78344e-13
4.58949e-13
4.39423e-13
4.19847e-13
4.00298e-13
3.80852e-13
3.61581e-13
3.42553e-13
3.23831e-13
3.05471e-13
2.87528e-13
2.70047e-13
2.53068e-13
2.36627e-13
2.20751e-13
2.05463e-13
1.90779e-13
1.7671e-13
1.63262e-13
1.50435e-13
1.38225e-13
1.26623e-13
1.15618e-13
1.05194e-13
9.53325e-14
8.60144e-14
7.72177e-14
6.89194e-14
6.10967e-14
5.37267e-14
4.6788e-14
4.02609e-14
3.41291e-14
2.83804e-14
2.30089e-14
1.80171e-14
1.34198e-14
9.25071e-15
5.57755e-15
2.54314e-15
5.08631e-16
5.5402e-15
5.02462e-13
1.70625e-12
3.15262e-12
4.73243e-12
6.4181e-12
8.19099e-12
1.00348e-11
1.19351e-11
1.38793e-11
1.58563e-11
1.78566e-11
1.98722e-11
2.18964e-11
2.39238e-11
2.595e-11
2.79715e-11
2.99861e-11
3.19923e-11
3.39892e-11
3.59769e-11
3.7956e-11
3.99274e-11
4.18928e-11
4.38539e-11
4.58127e-11
4.77715e-11
4.97325e-11
5.1698e-11
5.367e-11
5.56505e-11
5.76413e-11
5.96439e-11
6.16595e-11
6.3689e-11
6.57329e-11
6.77915e-11
6.98646e-11
7.19517e-11
7.40517e-11
7.61636e-11
7.82857e-11
8.0416e-11
8.25522e-11
8.46916e-11
8.68312e-11
8.89678e-11
9.10976e-11
9.32166e-11
9.53206e-11
9.74048e-11
9.94644e-11
1.01494e-10
1.03488e-10
1.05441e-10
1.07346e-10
1.09196e-10
1.10986e-10
1.12708e-10
1.14354e-10
1.15918e-10
1.17392e-10
1.18767e-10
1.20036e-10
1.21192e-10
1.22225e-10
1.23129e-10
1.23895e-10
1.24514e-10
1.24978e-10
1.25282e-10
1.25418e-10
1.2539e-10
1.25188e-10
1.24806e-10
1.24241e-10
1.2349e-10
1.22551e-10
1.21425e-10
1.20112e-10
1.18613e-10
1.16931e-10
1.15072e-10
1.13038e-10
1.10839e-10
1.0848e-10
1.0597e-10
1.0332e-10
1.00541e-10
9.76428e-11
9.46391e-11
9.15427e-11
8.83671e-11
8.51263e-11
8.18344e-11
7.85057e-11
7.51543e-11
7.17942e-11
6.8439e-11
6.51017e-11
6.17949e-11
5.85303e-11
5.53187e-11
5.21701e-11
4.90937e-11
4.60974e-11
4.31881e-11
4.03718e-11
3.76533e-11
3.50363e-11
3.25237e-11
3.01172e-11
2.78175e-11
2.56244e-11
2.35372e-11
2.15548e-11
1.9675e-11
1.7895e-11
1.62118e-11
1.46216e-11
1.31207e-11
1.1705e-11
1.03703e-11
9.11253e-12
7.92782e-12
6.81251e-12
5.7634e-12
4.77789e-12
3.85418e-12
2.99143e-12
2.19001e-12
1.45186e-12
7.83721e-13
2.30629e-13
2.54207e-15
1.21545e-14
1.70822e-12
8.66796e-12
1.95375e-11
3.21766e-11
4.57256e-11
5.98776e-11
7.4483e-11
8.94381e-11
1.04657e-10
1.20066e-10
1.356e-10
1.51204e-10
1.6683e-10
1.82442e-10
1.98009e-10
2.13507e-10
2.28923e-10
2.44245e-10
2.59472e-10
2.74604e-10
2.89649e-10
3.04616e-10
3.19519e-10
3.34373e-10
3.49196e-10
3.64005e-10
3.7882e-10
3.93658e-10
4.08537e-10
4.23473e-10
4.3848e-10
4.53571e-10
4.68757e-10
4.84044e-10
4.99437e-10
5.14939e-10
5.3055e-10
5.46266e-10
5.62081e-10
5.77987e-10
5.93972e-10
6.10022e-10
6.26121e-10
6.4225e-10
6.58386e-10
6.74508e-10
6.90586e-10
7.06594e-10
7.22499e-10
7.38267e-10
7.53862e-10
7.69246e-10
7.84377e-10
7.99211e-10
8.13703e-10
8.27803e-10
8.41462e-10
8.54626e-10
8.67241e-10
8.79249e-10
8.90594e-10
9.01215e-10
9.11053e-10
9.20045e-10
9.2813e-10
9.35247e-10
9.41334e-10
9.46328e-10
9.50172e-10
9.52803e-10
9.54143e-10
9.54263e-10
9.53052e-10
9.50467e-10
9.46477e-10
9.4106e-10
9.34201e-10
9.25891e-10
9.16132e-10
9.04934e-10
8.92317e-10
8.7831e-10
8.62951e-10
8.46288e-10
8.28378e-10
8.09289e-10
7.89095e-10
7.67879e-10
7.45732e-10
7.2275e-10
6.99036e-10
6.74696e-10
6.49839e-10
6.24578e-10
5.99024e-10
5.7329e-10
5.47485e-10
5.21717e-10
4.96088e-10
4.70697e-10
4.45637e-10
4.20992e-10
3.96841e-10
3.73254e-10
3.50294e-10
3.28014e-10
3.06459e-10
2.85667e-10
2.65666e-10
2.46476e-10
2.2811e-10
2.10572e-10
1.93861e-10
1.77969e-10
1.62884e-10
1.48587e-10
1.35056e-10
1.22263e-10
1.10181e-10
9.87754e-11
8.80141e-11
7.78623e-11
6.82853e-11
5.9249e-11
5.07207e-11
4.26699e-11
3.5069e-11
2.78955e-11
2.11353e-11
1.47969e-11
8.96272e-12
3.97503e-12
7.83255e-13
5.5656e-15
2.01683e-14
3.16658e-12
1.95682e-11
5.20708e-11
9.53847e-11
1.44515e-10
1.96772e-10
2.50847e-10
3.06055e-10
3.61973e-10
4.183e-10
4.74802e-10
5.31293e-10
5.8762e-10
6.43663e-10
6.99328e-10
7.54552e-10
8.09292e-10
8.63529e-10
9.17266e-10
9.7052e-10
1.02333e-09
1.07573e-09
1.1278e-09
1.17959e-09
1.23117e-09
1.28262e-09
1.33401e-09
1.38541e-09
1.43689e-09
1.48852e-09
1.54035e-09
1.59243e-09
1.6448e-09
1.69749e-09
1.75053e-09
1.80394e-09
1.8577e-09
1.91182e-09
1.96628e-09
2.02106e-09
2.07612e-09
2.13142e-09
2.18691e-09
2.24254e-09
2.29822e-09
2.35388e-09
2.40945e-09
2.46482e-09
2.5199e-09
2.57457e-09
2.62872e-09
2.68221e-09
2.7349e-09
2.78666e-09
2.83733e-09
2.88674e-09
2.93472e-09
2.98108e-09
3.02565e-09
3.06821e-09
3.10857e-09
3.14652e-09
3.18184e-09
3.21431e-09
3.24372e-09
3.26983e-09
3.29243e-09
3.3113e-09
3.32626e-09
3.33698e-09
3.34314e-09
3.34515e-09
3.34249e-09
3.33499e-09
3.32254e-09
3.30503e-09
3.28239e-09
3.25458e-09
3.2216e-09
3.18345e-09
3.1402e-09
3.09193e-09
3.03878e-09
2.9809e-09
2.91848e-09
2.85177e-09
2.78103e-09
2.70654e-09
2.62864e-09
2.54767e-09
2.464e-09
2.37802e-09
2.29013e-09
2.20073e-09
2.11023e-09
2.01904e-09
1.92758e-09
1.83621e-09
1.74534e-09
1.6553e-09
1.56645e-09
1.4791e-09
1.39352e-09
1.30998e-09
1.22869e-09
1.14986e-09
1.07365e-09
1.00018e-09
9.29555e-10
8.61844e-10
7.97087e-10
7.35298e-10
6.76465e-10
6.20555e-10
5.67513e-10
5.17268e-10
4.6973e-10
4.24794e-10
3.82345e-10
3.4226e-10
3.04406e-10
2.68648e-10
2.34846e-10
2.02863e-10
1.72565e-10
1.43827e-10
1.16547e-10
9.0668e-11
6.62501e-11
4.3635e-11
2.38253e-11
8.95943e-12
1.44802e-12
9.20144e-15
2.92735e-14
4.78027e-12
3.23506e-11
9.56104e-11
1.91143e-10
3.08479e-10
4.38644e-10
5.75943e-10
7.17062e-10
8.6005e-10
1.00369e-09
1.14718e-09
1.28996e-09
1.4316e-09
1.57181e-09
1.7104e-09
1.84722e-09
1.98223e-09
2.1154e-09
2.24679e-09
2.37649e-09
2.50462e-09
2.63134e-09
2.75683e-09
2.88128e-09
3.00489e-09
3.12788e-09
3.25046e-09
3.37283e-09
3.49518e-09
3.61769e-09
3.74052e-09
3.86381e-09
3.98767e-09
4.1122e-09
4.23747e-09
4.36353e-09
4.49042e-09
4.61812e-09
4.74661e-09
4.87587e-09
5.00582e-09
5.13637e-09
5.26743e-09
5.39886e-09
5.53053e-09
5.66227e-09
5.79389e-09
5.9252e-09
6.05596e-09
6.18592e-09
6.31482e-09
6.44237e-09
6.56826e-09
6.69214e-09
6.81365e-09
6.93242e-09
7.04803e-09
7.16005e-09
7.26804e-09
7.37151e-09
7.46998e-09
7.56293e-09
7.64984e-09
7.73017e-09
7.80336e-09
7.86886e-09
7.92612e-09
7.97461e-09
8.01416e-09
8.04301e-09
8.06126e-09
8.06968e-09
8.06683e-09
8.05231e-09
8.02579e-09
7.98699e-09
7.93571e-09
7.8718e-09
7.7952e-09
7.70594e-09
7.6041e-09
7.48989e-09
7.36359e-09
7.22555e-09
7.07626e-09
6.91625e-09
6.74616e-09
6.56671e-09
6.37869e-09
6.18294e-09
5.98037e-09
5.77194e-09
5.55863e-09
5.34146e-09
5.12144e-09
4.89959e-09
4.67692e-09
4.45441e-09
4.23301e-09
4.01361e-09
3.79705e-09
3.58413e-09
3.37554e-09
3.17194e-09
2.97388e-09
2.78185e-09
2.59624e-09
2.41738e-09
2.24551e-09
2.0808e-09
1.92335e-09
1.77317e-09
1.63023e-09
1.49444e-09
1.36564e-09
1.24365e-09
1.12822e-09
1.01908e-09
9.1591e-10
8.18391e-10
7.26168e-10
6.38874e-10
5.56139e-10
4.776e-10
4.02918e-10
3.31819e-10
2.64168e-10
2.00125e-10
1.40459e-10
8.70893e-11
4.36301e-11
1.47637e-11
2.17561e-12
1.32833e-14
3.93233e-14
6.5349e-12
4.6275e-11
1.45548e-10
3.09614e-10
5.26433e-10
7.79224e-10
1.05393e-09
1.34075e-09
1.63338e-09
1.92776e-09
2.22132e-09
2.51236e-09
2.79978e-09
3.08284e-09
3.3611e-09
3.63434e-09
3.90249e-09
4.16563e-09
4.42393e-09
4.67766e-09
4.92718e-09
5.17289e-09
5.41524e-09
5.65469e-09
5.89174e-09
6.12688e-09
6.3606e-09
6.59334e-09
6.82556e-09
7.05765e-09
7.28997e-09
7.52285e-09
7.75655e-09
7.99131e-09
8.2273e-09
8.46466e-09
8.70347e-09
8.94376e-09
9.18554e-09
9.42875e-09
9.67331e-09
9.91908e-09
1.01659e-08
1.04136e-08
1.06618e-08
1.09104e-08
1.11589e-08
1.14071e-08
1.16545e-08
1.19007e-08
1.21452e-08
1.23874e-08
1.26268e-08
1.28628e-08
1.30946e-08
1.33215e-08
1.35428e-08
1.37577e-08
1.39652e-08
1.41645e-08
1.43546e-08
1.45345e-08
1.47032e-08
1.48596e-08
1.50027e-08
1.51313e-08
1.52443e-08
1.53408e-08
1.54208e-08
1.5479e-08
1.5518e-08
1.55382e-08
1.55367e-08
1.55129e-08
1.5466e-08
1.53954e-08
1.53007e-08
1.51817e-08
1.50381e-08
1.48699e-08
1.46774e-08
1.44609e-08
1.42208e-08
1.39578e-08
1.36729e-08
1.3367e-08
1.30414e-08
1.26974e-08
1.23365e-08
1.19604e-08
1.15708e-08
1.11696e-08
1.07585e-08
1.03397e-08
9.91511e-09
9.48665e-09
9.05632e-09
8.62603e-09
8.19764e-09
7.77289e-09
7.35347e-09
6.9409e-09
6.53658e-09
6.1418e-09
5.75765e-09
5.38509e-09
5.02493e-09
4.6778e-09
4.34418e-09
4.02442e-09
3.71869e-09
3.42705e-09
3.14942e-09
2.8856e-09
2.63529e-09
2.39808e-09
2.17348e-09
1.96093e-09
1.75978e-09
1.56934e-09
1.38889e-09
1.21767e-09
1.05494e-09
8.99994e-10
7.52263e-10
6.11444e-10
4.77762e-10
3.52426e-10
2.38263e-10
1.40448e-10
6.61326e-11
2.10026e-11
2.95403e-12
1.77142e-14
5.02415e-14
8.42588e-12
6.11605e-11
1.99709e-10
4.43031e-10
7.83561e-10
1.19915e-09
1.66553e-09
2.16253e-09
2.67542e-09
3.1941e-09
3.71187e-09
4.22432e-09
4.72864e-09
5.22306e-09
5.7066e-09
6.17879e-09
6.63957e-09
7.08918e-09
7.52809e-09
7.95695e-09
8.37654e-09
8.78774e-09
9.1915e-09
9.58879e-09
9.98063e-09
1.0368e-08
1.07518e-08
1.11331e-08
1.15126e-08
1.18911e-08
1.22694e-08
1.26481e-08
1.30276e-08
1.34085e-08
1.37912e-08
1.41758e-08
1.45627e-08
1.49519e-08
1.53434e-08
1.57373e-08
1.61334e-08
1.65316e-08
1.69315e-08
1.7333e-08
1.77356e-08
1.81389e-08
1.85424e-08
1.89456e-08
1.93477e-08
1.97481e-08
2.0146e-08
2.05405e-08
2.09306e-08
2.13154e-08
2.16937e-08
2.20643e-08
2.2426e-08
2.27773e-08
2.31169e-08
2.34432e-08
2.37547e-08
2.40496e-08
2.43262e-08
2.45829e-08
2.48178e-08
2.5029e-08
2.52146e-08
2.53734e-08
2.55054e-08
2.56002e-08
2.56648e-08
2.56984e-08
2.56964e-08
2.56575e-08
2.55806e-08
2.5465e-08
2.53097e-08
2.51144e-08
2.48789e-08
2.4603e-08
2.4287e-08
2.39316e-08
2.35375e-08
2.31058e-08
2.2638e-08
2.21356e-08
2.16007e-08
2.10355e-08
2.04424e-08
1.9824e-08
1.91833e-08
1.8523e-08
1.78464e-08
1.71567e-08
1.6457e-08
1.57506e-08
1.50407e-08
1.43305e-08
1.36229e-08
1.29209e-08
1.22272e-08
1.15444e-08
1.08749e-08
1.02206e-08
9.58352e-09
8.96525e-09
8.36713e-09
7.79025e-09
7.23544e-09
6.70329e-09
6.19413e-09
5.70807e-09
5.24497e-09
4.80452e-09
4.3862e-09
3.98933e-09
3.61307e-09
3.25645e-09
2.91838e-09
2.59767e-09
2.29306e-09
2.00329e-09
1.72716e-09
1.46362e-09
1.21208e-09
9.72633e-10
7.46663e-10
5.37691e-10
3.52233e-10
1.99746e-10
9.01422e-11
2.75411e-11
3.77528e-12
2.24265e-14
6.19905e-14
1.04515e-11
7.69828e-11
2.57325e-10
5.87193e-10
1.06876e-09
1.67887e-09
2.38395e-09
3.15121e-09
3.95376e-09
4.77152e-09
5.59038e-09
6.4008e-09
7.19662e-09
7.97399e-09
8.73077e-09
9.46598e-09
1.01795e-08
1.08718e-08
1.1544e-08
1.21971e-08
1.28328e-08
1.34528e-08
1.40587e-08
1.46525e-08
1.52358e-08
1.58106e-08
1.63784e-08
1.69408e-08
1.74994e-08
1.80556e-08
1.86104e-08
1.91651e-08
1.97205e-08
2.02774e-08
2.08365e-08
2.13982e-08
2.1963e-08
2.25309e-08
2.31023e-08
2.36769e-08
2.42548e-08
2.48357e-08
2.54192e-08
2.60049e-08
2.65922e-08
2.71807e-08
2.77694e-08
2.83575e-08
2.89442e-08
2.95282e-08
3.01085e-08
3.06837e-08
3.12524e-08
3.1813e-08
3.23639e-08
3.29032e-08
3.34291e-08
3.39394e-08
3.44322e-08
3.4905e-08
3.53555e-08
3.57812e-08
3.61798e-08
3.65484e-08
3.68846e-08
3.71857e-08
3.7449e-08
3.76732e-08
3.7858e-08
3.79861e-08
3.8072e-08
3.81114e-08
3.80985e-08
3.80313e-08
3.79086e-08
3.77292e-08
3.7492e-08
3.71964e-08
3.68423e-08
3.64296e-08
3.59589e-08
3.54308e-08
3.48468e-08
3.42084e-08
3.35177e-08
3.27771e-08
3.19894e-08
3.11578e-08
3.02858e-08
2.93772e-08
2.84359e-08
2.74663e-08
2.64728e-08
2.54598e-08
2.44321e-08
2.33941e-08
2.23506e-08
2.13059e-08
2.02646e-08
1.92307e-08
1.82083e-08
1.7201e-08
1.62123e-08
1.52452e-08
1.43026e-08
1.33869e-08
1.25e-08
1.16436e-08
1.08191e-08
1.00272e-08
9.26868e-09
8.54359e-09
7.85184e-09
7.19298e-09
6.56629e-09
5.97075e-09
5.40513e-09
4.86797e-09
4.35765e-09
3.87237e-09
3.41029e-09
2.96959e-09
2.54863e-09
2.14625e-09
1.76212e-09
1.39754e-09
1.05624e-09
7.45431e-10
4.76293e-10
2.62499e-10
1.15085e-10
3.43145e-11
4.63236e-12
2.73679e-14
7.45562e-14
1.26122e-11
9.37618e-11
3.18228e-10
7.40311e-10
1.37561e-09
2.20423e-09
3.18571e-09
4.27413e-09
5.4278e-09
6.61315e-09
7.80525e-09
8.98658e-09
1.01454e-08
1.12743e-08
1.23691e-08
1.34279e-08
1.44502e-08
1.5437e-08
1.63898e-08
1.73108e-08
1.82027e-08
1.90682e-08
1.99104e-08
2.07322e-08
2.15365e-08
2.23262e-08
2.31041e-08
2.38727e-08
2.46343e-08
2.53911e-08
2.61451e-08
2.68978e-08
2.76507e-08
2.84051e-08
2.91618e-08
2.99217e-08
3.06853e-08
3.14531e-08
3.22251e-08
3.30015e-08
3.3782e-08
3.45663e-08
3.53541e-08
3.61446e-08
3.69372e-08
3.77308e-08
3.85244e-08
3.93168e-08
4.01066e-08
4.08923e-08
4.16721e-08
4.24443e-08
4.32068e-08
4.39574e-08
4.46938e-08
4.54134e-08
4.61136e-08
4.67915e-08
4.74442e-08
4.80686e-08
4.86615e-08
4.92195e-08
4.97392e-08
5.02172e-08
5.065e-08
5.10342e-08
5.13663e-08
5.16434e-08
5.18676e-08
5.20134e-08
5.21042e-08
5.21307e-08
5.20861e-08
5.19686e-08
5.17764e-08
5.15082e-08
5.11631e-08
5.07404e-08
5.024e-08
4.96621e-08
4.90075e-08
4.82774e-08
4.74737e-08
4.65986e-08
4.56549e-08
4.46458e-08
4.35752e-08
4.2447e-08
4.12659e-08
4.00368e-08
3.8765e-08
3.74559e-08
3.61152e-08
3.47489e-08
3.33628e-08
3.1963e-08
3.05553e-08
2.91456e-08
2.77397e-08
2.63429e-08
2.49606e-08
2.35974e-08
2.22581e-08
2.09467e-08
1.96669e-08
1.84219e-08
1.72146e-08
1.60471e-08
1.49213e-08
1.38385e-08
1.27995e-08
1.18047e-08
1.0854e-08
9.94678e-09
9.08221e-09
8.25895e-09
7.47533e-09
6.72938e-09
6.01887e-09
5.34143e-09
4.69463e-09
4.07617e-09
3.48421e-09
2.91781e-09
2.37761e-09
1.8669e-09
1.39277e-09
9.67125e-10
6.06236e-10
3.27268e-10
1.40659e-10
4.12781e-11
5.51908e-12
3.24964e-14
8.79406e-14
1.49097e-11
1.11531e-10
3.82484e-10
9.01878e-10
1.70114e-09
2.7669e-09
4.0544e-09
5.50522e-09
7.06135e-09
8.67297e-09
1.03011e-08
1.19174e-08
1.35022e-08
1.50431e-08
1.65326e-08
1.79674e-08
1.93466e-08
2.06714e-08
2.19444e-08
2.31689e-08
2.43491e-08
2.54893e-08
2.65941e-08
2.76679e-08
2.87153e-08
2.97406e-08
3.07478e-08
3.17406e-08
3.27225e-08
3.36966e-08
3.46656e-08
3.56319e-08
3.65976e-08
3.75644e-08
3.85335e-08
3.95061e-08
4.0483e-08
4.14646e-08
4.24511e-08
4.34427e-08
4.44389e-08
4.54394e-08
4.64435e-08
4.74503e-08
4.84587e-08
4.94675e-08
5.0475e-08
5.14797e-08
5.24797e-08
5.34728e-08
5.44567e-08
5.5429e-08
5.63869e-08
5.73275e-08
5.82477e-08
5.91442e-08
6.00135e-08
6.08519e-08
6.16556e-08
6.24206e-08
6.31429e-08
6.38183e-08
6.44425e-08
6.50114e-08
6.55206e-08
6.5966e-08
6.63435e-08
6.66491e-08
6.68838e-08
6.70219e-08
6.70916e-08
6.70766e-08
6.69716e-08
6.67746e-08
6.6484e-08
6.60984e-08
6.56171e-08
6.50395e-08
6.43659e-08
6.35969e-08
6.27336e-08
6.17779e-08
6.07322e-08
5.95995e-08
5.83832e-08
5.70874e-08
5.57168e-08
5.42766e-08
5.27721e-08
5.12095e-08
4.95951e-08
4.79354e-08
4.62374e-08
4.45082e-08
4.27547e-08
4.09843e-08
3.92041e-08
3.74212e-08
3.56423e-08
3.38741e-08
3.21229e-08
3.03947e-08
2.86951e-08
2.7029e-08
2.5401e-08
2.38153e-08
2.22752e-08
2.07837e-08
1.93431e-08
1.79551e-08
1.66208e-08
1.53408e-08
1.4115e-08
1.2943e-08
1.18235e-08
1.07549e-08
9.73535e-09
8.76227e-09
7.83293e-09
6.94443e-09
6.09384e-09
5.27857e-09
4.49682e-09
3.74829e-09
3.03521e-09
2.36371e-09
1.74509e-09
1.19654e-09
7.39322e-10
3.93192e-10
1.66678e-10
4.83953e-11
6.43013e-12
3.77776e-14
1.02156e-13
1.73472e-11
1.30333e-10
4.50249e-10
1.072e-09
2.04441e-09
3.36283e-09
4.98037e-09
6.8269e-09
8.82739e-09
1.09137e-08
1.30303e-08
1.51353e-08
1.71993e-08
1.92029e-08
2.11347e-08
2.29891e-08
2.47646e-08
2.6463e-08
2.80877e-08
2.96438e-08
3.11371e-08
3.2574e-08
3.39609e-08
3.53043e-08
3.66106e-08
3.78857e-08
3.91353e-08
4.03645e-08
4.15781e-08
4.27802e-08
4.39745e-08
4.51643e-08
4.63521e-08
4.75402e-08
4.87303e-08
4.99238e-08
5.11215e-08
5.23242e-08
5.35319e-08
5.47446e-08
5.59618e-08
5.71829e-08
5.84069e-08
5.96325e-08
6.08582e-08
6.20823e-08
6.33027e-08
6.45172e-08
6.57232e-08
6.69181e-08
6.80988e-08
6.9262e-08
7.04043e-08
7.15221e-08
7.26113e-08
7.36678e-08
7.46874e-08
7.56655e-08
7.65975e-08
7.74787e-08
7.83042e-08
7.90691e-08
7.97686e-08
8.03976e-08
8.09513e-08
8.14252e-08
8.18146e-08
8.21152e-08
8.23216e-08
8.24205e-08
8.24368e-08
8.23468e-08
8.21484e-08
8.18401e-08
8.14204e-08
8.08884e-08
8.02435e-08
7.94857e-08
7.86155e-08
7.76341e-08
7.65431e-08
7.53451e-08
7.40431e-08
7.26407e-08
7.11422e-08
6.95524e-08
6.78768e-08
6.61214e-08
6.42926e-08
6.23973e-08
6.04428e-08
5.84366e-08
5.63865e-08
5.43007e-08
5.21873e-08
5.00544e-08
4.79101e-08
4.57626e-08
4.36196e-08
4.14887e-08
3.93772e-08
3.72919e-08
3.52393e-08
3.32251e-08
3.12548e-08
2.93331e-08
2.74641e-08
2.56513e-08
2.38974e-08
2.22046e-08
2.05743e-08
1.90071e-08
1.75032e-08
1.6062e-08
1.46822e-08
1.33621e-08
1.20991e-08
1.08905e-08
9.73309e-09
8.62349e-09
7.55844e-09
6.53527e-09
5.55252e-09
4.61099e-09
3.71506e-09
2.8743e-09
2.10484e-09
1.42933e-09
8.73777e-10
4.59724e-10
1.93009e-10
5.56353e-11
7.36099e-12
4.31836e-14
1.17223e-13
1.9929e-11
1.50212e-10
5.21716e-10
1.25106e-09
2.40559e-09
3.99076e-09
5.95897e-09
8.22904e-09
1.07084e-08
1.3309e-08
1.59569e-08
1.85946e-08
2.11808e-08
2.36883e-08
2.61004e-08
2.8409e-08
3.06119e-08
3.27111e-08
3.47115e-08
3.662e-08
3.84446e-08
4.01939e-08
4.18767e-08
4.35017e-08
4.50774e-08
4.66117e-08
4.81121e-08
4.95853e-08
5.10374e-08
5.24737e-08
5.38991e-08
5.53174e-08
5.67319e-08
5.81455e-08
5.95601e-08
6.09773e-08
6.23981e-08
6.38232e-08
6.52525e-08
6.66858e-08
6.81225e-08
6.95614e-08
7.10012e-08
7.24401e-08
7.38762e-08
7.5307e-08
7.673e-08
7.81423e-08
7.95405e-08
8.09214e-08
8.2281e-08
8.36155e-08
8.49205e-08
8.61915e-08
8.7424e-08
8.86129e-08
8.97532e-08
9.08397e-08
9.18671e-08
9.283e-08
9.37229e-08
9.45404e-08
9.52771e-08
9.59276e-08
9.6487e-08
9.69501e-08
9.73124e-08
9.75694e-08
9.77064e-08
9.77312e-08
9.76609e-08
9.74612e-08
9.71367e-08
9.66864e-08
9.61093e-08
9.54048e-08
9.4573e-08
9.36142e-08
9.25295e-08
9.13207e-08
8.999e-08
8.85404e-08
8.69758e-08
8.53002e-08
8.35187e-08
8.16369e-08
7.96608e-08
7.75972e-08
7.54531e-08
7.32363e-08
7.09546e-08
6.86165e-08
6.62306e-08
6.38055e-08
6.13503e-08
5.88739e-08
5.63853e-08
5.38931e-08
5.14061e-08
4.89325e-08
4.64804e-08
4.40573e-08
4.16704e-08
3.93262e-08
3.70306e-08
3.4789e-08
3.2606e-08
3.04856e-08
2.84308e-08
2.64443e-08
2.45276e-08
2.26816e-08
2.09065e-08
1.92016e-08
1.75657e-08
1.59965e-08
1.44916e-08
1.30477e-08
1.16611e-08
1.03283e-08
9.04578e-09
7.81095e-09
6.62302e-09
5.48423e-09
4.40153e-09
3.38837e-09
2.46599e-09
1.66255e-09
1.00843e-09
5.26498e-10
2.19555e-10
6.29725e-11
8.30806e-12
4.8692e-14
1.33165e-13
2.26599e-11
1.71215e-10
5.97088e-10
1.43956e-09
2.78539e-09
4.65104e-09
6.98883e-09
9.70688e-09
1.26944e-08
1.58425e-08
1.90568e-08
2.22626e-08
2.54057e-08
2.84494e-08
3.13716e-08
3.4161e-08
3.68147e-08
3.9335e-08
4.17287e-08
4.40045e-08
4.61729e-08
4.82453e-08
5.02329e-08
5.2147e-08
5.39985e-08
5.57974e-08
5.75531e-08
5.92741e-08
6.09679e-08
6.2641e-08
6.42993e-08
6.59474e-08
6.75894e-08
6.92282e-08
7.08663e-08
7.25054e-08
7.41465e-08
7.579e-08
7.74359e-08
7.90834e-08
8.07317e-08
8.2379e-08
8.40237e-08
8.56633e-08
8.72953e-08
8.89166e-08
9.0524e-08
9.21138e-08
9.36821e-08
9.52246e-08
9.67369e-08
9.82142e-08
9.96516e-08
1.01044e-07
1.02385e-07
1.03671e-07
1.04895e-07
1.06051e-07
1.07134e-07
1.08138e-07
1.09056e-07
1.09885e-07
1.10616e-07
1.11246e-07
1.11769e-07
1.1218e-07
1.12475e-07
1.12649e-07
1.1268e-07
1.12593e-07
1.12406e-07
1.12065e-07
1.11585e-07
1.10966e-07
1.10208e-07
1.09311e-07
1.08274e-07
1.071e-07
1.0579e-07
1.04345e-07
1.0277e-07
1.01067e-07
9.92409e-08
9.72964e-08
9.52389e-08
9.30746e-08
9.08101e-08
8.84526e-08
8.60098e-08
8.34899e-08
8.09013e-08
7.8253e-08
7.55541e-08
7.28139e-08
7.00419e-08
6.72476e-08
6.44405e-08
6.16301e-08
5.88254e-08
5.60354e-08
5.32687e-08
5.05334e-08
4.78372e-08
4.51871e-08
4.25896e-08
4.00506e-08
3.7575e-08
3.51671e-08
3.28306e-08
3.05681e-08
2.83814e-08
2.62716e-08
2.42389e-08
2.22825e-08
2.04011e-08
1.85925e-08
1.68535e-08
1.51809e-08
1.35706e-08
1.20188e-08
1.0522e-08
9.07782e-09
7.68634e-09
6.35148e-09
5.08301e-09
3.8985e-09
2.82436e-09
1.8942e-09
1.14253e-09
5.93264e-10
2.46242e-10
7.03872e-11
9.26854e-12
5.42861e-14
1.50011e-13
2.5545e-11
1.9339e-10
6.76573e-10
1.63804e-09
3.1848e-09
5.34486e-09
8.07057e-09
1.12593e-08
1.47812e-08
1.85052e-08
2.23153e-08
2.61184e-08
2.9846e-08
3.34514e-08
3.69064e-08
4.01967e-08
4.33183e-08
4.62744e-08
4.90733e-08
5.17264e-08
5.42467e-08
5.66485e-08
5.89461e-08
6.11533e-08
6.32835e-08
6.53491e-08
6.73615e-08
6.93309e-08
7.12663e-08
7.31756e-08
7.50653e-08
7.6941e-08
7.88072e-08
8.06673e-08
8.25239e-08
8.43787e-08
8.62326e-08
8.80857e-08
8.99378e-08
9.17877e-08
9.3634e-08
9.54746e-08
9.7307e-08
9.91283e-08
1.00935e-07
1.02724e-07
1.04491e-07
1.06231e-07
1.0794e-07
1.09613e-07
1.11245e-07
1.12831e-07
1.14364e-07
1.15839e-07
1.1725e-07
1.18591e-07
1.19857e-07
1.2104e-07
1.22135e-07
1.23136e-07
1.24036e-07
1.24831e-07
1.25515e-07
1.26082e-07
1.26528e-07
1.26847e-07
1.27036e-07
1.2709e-07
1.26981e-07
1.26752e-07
1.26415e-07
1.25911e-07
1.25252e-07
1.24444e-07
1.23487e-07
1.22383e-07
1.21131e-07
1.19734e-07
1.18194e-07
1.16513e-07
1.14695e-07
1.12743e-07
1.10664e-07
1.08461e-07
1.06141e-07
1.03709e-07
1.01174e-07
9.85431e-08
9.58233e-08
9.30237e-08
9.01531e-08
8.72206e-08
8.42358e-08
8.12083e-08
7.81481e-08
7.50649e-08
7.19686e-08
6.88692e-08
6.57761e-08
6.26987e-08
5.9646e-08
5.66267e-08
5.36487e-08
5.07197e-08
4.78464e-08
4.50351e-08
4.22911e-08
3.96192e-08
3.7023e-08
3.45054e-08
3.20686e-08
2.97136e-08
2.74406e-08
2.52489e-08
2.31369e-08
2.11022e-08
1.91417e-08
1.72514e-08
1.54274e-08
1.36654e-08
1.19621e-08
1.03154e-08
8.7264e-09
7.20081e-09
5.7513e-09
4.39957e-09
3.17716e-09
2.12298e-09
1.27556e-09
6.59864e-10
2.73021e-10
7.78659e-11
1.02406e-11
5.99546e-14
1.67788e-13
2.85896e-11
2.16785e-10
7.60369e-10
1.84707e-09
3.60491e-09
6.0738e-09
9.20587e-09
1.28871e-08
1.69678e-08
2.12933e-08
2.57248e-08
3.01495e-08
3.4484e-08
3.86713e-08
4.26766e-08
4.64825e-08
5.00842e-08
5.34859e-08
5.66979e-08
5.97341e-08
6.26107e-08
6.5345e-08
6.79543e-08
7.04555e-08
7.28644e-08
7.51959e-08
7.74635e-08
7.96791e-08
8.18531e-08
8.39946e-08
8.61111e-08
8.82088e-08
9.02926e-08
9.23662e-08
9.44322e-08
9.64922e-08
9.8547e-08
1.00596e-07
1.02639e-07
1.04675e-07
1.067e-07
1.08714e-07
1.10711e-07
1.1269e-07
1.14645e-07
1.16572e-07
1.18468e-07
1.20326e-07
1.22142e-07
1.23909e-07
1.25623e-07
1.27277e-07
1.28865e-07
1.30381e-07
1.31819e-07
1.33172e-07
1.34435e-07
1.35601e-07
1.36663e-07
1.37617e-07
1.38457e-07
1.39176e-07
1.39771e-07
1.40235e-07
1.40565e-07
1.40757e-07
1.40806e-07
1.40706e-07
1.40427e-07
1.40039e-07
1.3952e-07
1.38839e-07
1.37983e-07
1.36971e-07
1.35806e-07
1.34487e-07
1.33016e-07
1.31395e-07
1.29627e-07
1.27715e-07
1.25662e-07
1.23474e-07
1.21154e-07
1.18709e-07
1.16144e-07
1.13466e-07
1.10683e-07
1.07802e-07
1.04831e-07
1.01778e-07
9.86529e-08
9.5465e-08
9.22236e-08
8.89387e-08
8.56202e-08
8.22784e-08
7.89233e-08
7.5565e-08
7.22134e-08
6.88781e-08
6.55685e-08
6.22936e-08
5.90617e-08
5.58808e-08
5.27581e-08
4.97e-08
4.67123e-08
4.37999e-08
4.09668e-08
3.82161e-08
3.555e-08
3.29696e-08
3.04751e-08
2.80658e-08
2.574e-08
2.3495e-08
2.13275e-08
1.92334e-08
1.72083e-08
1.52479e-08
1.33489e-08
1.15097e-08
9.73233e-09
8.02422e-09
6.40096e-09
4.88826e-09
3.52264e-09
2.34812e-09
1.40724e-09
7.26213e-10
2.99865e-10
8.54013e-11
1.12231e-11
6.5691e-14
1.86526e-13
3.17991e-11
2.41446e-10
8.48667e-10
2.06716e-09
4.04679e-09
6.83956e-09
1.03969e-08
1.45926e-08
1.92555e-08
2.42063e-08
2.92819e-08
3.43493e-08
3.93094e-08
4.40945e-08
4.86634e-08
5.29957e-08
5.70859e-08
6.09394e-08
6.45686e-08
6.79906e-08
7.12248e-08
7.42917e-08
7.72118e-08
8.00049e-08
8.26899e-08
8.52839e-08
8.78023e-08
9.0259e-08
9.26657e-08
9.50326e-08
9.7368e-08
9.96788e-08
1.0197e-07
1.04246e-07
1.06508e-07
1.08759e-07
1.10998e-07
1.13226e-07
1.1544e-07
1.1764e-07
1.19821e-07
1.21982e-07
1.24117e-07
1.26223e-07
1.28295e-07
1.30329e-07
1.32318e-07
1.34257e-07
1.36141e-07
1.37963e-07
1.39718e-07
1.41398e-07
1.42998e-07
1.44512e-07
1.45932e-07
1.47253e-07
1.48469e-07
1.49574e-07
1.50561e-07
1.51426e-07
1.52163e-07
1.52768e-07
1.53236e-07
1.53562e-07
1.53744e-07
1.53777e-07
1.5366e-07
1.53373e-07
1.52911e-07
1.52344e-07
1.5162e-07
1.50751e-07
1.49689e-07
1.48467e-07
1.47088e-07
1.45554e-07
1.43866e-07
1.42027e-07
1.4004e-07
1.37907e-07
1.35634e-07
1.33224e-07
1.30682e-07
1.28015e-07
1.25228e-07
1.22328e-07
1.19321e-07
1.16216e-07
1.13021e-07
1.09744e-07
1.06394e-07
1.02981e-07
9.9513e-08
9.60011e-08
9.24549e-08
8.88848e-08
8.53009e-08
8.17134e-08
7.81325e-08
7.4568e-08
7.10296e-08
6.75265e-08
6.40674e-08
6.06605e-08
5.73133e-08
5.40328e-08
5.08248e-08
4.76946e-08
4.46464e-08
4.16836e-08
3.88083e-08
3.60219e-08
3.33246e-08
3.07155e-08
2.81929e-08
2.5754e-08
2.3395e-08
2.11118e-08
1.88997e-08
1.67543e-08
1.46722e-08
1.26523e-08
1.06975e-08
8.81688e-09
7.02878e-09
5.36269e-09
3.85984e-09
2.56924e-09
1.53746e-09
7.92291e-10
3.26774e-10
9.29926e-11
1.22159e-11
7.14941e-14
2.06253e-13
3.51784e-11
2.67416e-10
9.41647e-10
2.29882e-09
4.51147e-09
7.64385e-09
1.16459e-08
1.63782e-08
2.16465e-08
2.72452e-08
3.29861e-08
3.87149e-08
4.43165e-08
4.97124e-08
5.48551e-08
5.97213e-08
6.43052e-08
6.86136e-08
7.26616e-08
7.64693e-08
8.00596e-08
8.34564e-08
8.66838e-08
8.97646e-08
9.27203e-08
9.55706e-08
9.83329e-08
1.01023e-07
1.03653e-07
1.06236e-07
1.08779e-07
1.11291e-07
1.13776e-07
1.16238e-07
1.1868e-07
1.21103e-07
1.23507e-07
1.25891e-07
1.28254e-07
1.30591e-07
1.32901e-07
1.35179e-07
1.3742e-07
1.39621e-07
1.41775e-07
1.43878e-07
1.45923e-07
1.47904e-07
1.49815e-07
1.5165e-07
1.53403e-07
1.55066e-07
1.56635e-07
1.58102e-07
1.59462e-07
1.60708e-07
1.61834e-07
1.62837e-07
1.63709e-07
1.64447e-07
1.65045e-07
1.655e-07
1.65809e-07
1.65967e-07
1.65972e-07
1.65822e-07
1.65514e-07
1.65019e-07
1.64374e-07
1.63607e-07
1.62671e-07
1.61592e-07
1.60333e-07
1.58899e-07
1.5731e-07
1.55566e-07
1.53669e-07
1.51622e-07
1.49428e-07
1.47091e-07
1.44614e-07
1.42002e-07
1.39261e-07
1.36395e-07
1.3341e-07
1.30313e-07
1.27111e-07
1.23811e-07
1.20421e-07
1.16949e-07
1.13404e-07
1.09795e-07
1.06131e-07
1.02422e-07
9.86785e-08
9.49096e-08
9.11259e-08
8.73378e-08
8.35554e-08
7.97889e-08
7.60479e-08
7.23421e-08
6.86804e-08
6.50714e-08
6.15229e-08
5.80421e-08
5.46353e-08
5.1308e-08
4.80646e-08
4.49088e-08
4.1843e-08
3.88685e-08
3.59857e-08
3.31937e-08
3.04905e-08
2.78732e-08
2.53381e-08
2.28805e-08
2.04956e-08
1.81789e-08
1.5927e-08
1.3739e-08
1.16186e-08
9.57649e-09
7.63331e-09
5.82207e-09
4.18846e-09
2.7863e-09
1.66626e-09
8.58136e-10
3.53765e-10
1.00645e-10
1.32197e-11
7.73675e-14
2.26995e-13
3.87323e-11
2.94736e-10
1.03947e-09
2.54247e-09
4.99987e-09
8.48822e-09
1.29552e-08
1.82465e-08
2.41433e-08
3.0412e-08
3.6838e-08
4.32452e-08
4.95022e-08
5.55196e-08
6.12439e-08
6.6649e-08
7.17293e-08
7.64933e-08
8.0959e-08
8.51498e-08
8.90924e-08
9.28143e-08
9.63429e-08
9.97045e-08
1.02923e-07
1.06021e-07
1.09018e-07
1.1193e-07
1.14773e-07
1.17558e-07
1.20295e-07
1.22991e-07
1.25653e-07
1.28283e-07
1.30885e-07
1.33459e-07
1.36003e-07
1.38518e-07
1.41e-07
1.43447e-07
1.45854e-07
1.48216e-07
1.5053e-07
1.52789e-07
1.54988e-07
1.5712e-07
1.59181e-07
1.61162e-07
1.63059e-07
1.64865e-07
1.66573e-07
1.68177e-07
1.69672e-07
1.7105e-07
1.72308e-07
1.73438e-07
1.74437e-07
1.753e-07
1.76021e-07
1.76598e-07
1.77026e-07
1.77303e-07
1.77426e-07
1.77392e-07
1.772e-07
1.76847e-07
1.76332e-07
1.75618e-07
1.74787e-07
1.73808e-07
1.7266e-07
1.71365e-07
1.69913e-07
1.68274e-07
1.66481e-07
1.64537e-07
1.62444e-07
1.60205e-07
1.57822e-07
1.55299e-07
1.5264e-07
1.49849e-07
1.46931e-07
1.43892e-07
1.40736e-07
1.3747e-07
1.341e-07
1.30634e-07
1.27079e-07
1.23441e-07
1.19731e-07
1.15956e-07
1.12126e-07
1.08249e-07
1.04336e-07
1.00396e-07
9.64406e-08
9.24786e-08
8.85208e-08
8.45773e-08
8.06581e-08
7.6773e-08
7.29312e-08
6.91415e-08
6.54123e-08
6.1751e-08
5.81643e-08
5.46581e-08
5.12372e-08
4.79053e-08
4.46653e-08
4.15186e-08
3.84657e-08
3.55056e-08
3.26365e-08
2.98554e-08
2.71581e-08
2.454e-08
2.1996e-08
1.95214e-08
1.71126e-08
1.47692e-08
1.24952e-08
1.03027e-08
8.21444e-09
6.26651e-09
4.5087e-09
2.9995e-09
1.7938e-09
9.23846e-10
3.80879e-10
1.0837e-10
1.42358e-11
8.33194e-14
2.48775e-13
4.24648e-11
3.23441e-10
1.14227e-09
2.79851e-09
5.51281e-09
9.37404e-09
1.43266e-08
2.01998e-08
2.67481e-08
3.37085e-08
4.08387e-08
4.79401e-08
5.48647e-08
6.15125e-08
6.7824e-08
7.3771e-08
7.93483e-08
8.45665e-08
8.94466e-08
9.40158e-08
9.83046e-08
1.02344e-07
1.06166e-07
1.09799e-07
1.1327e-07
1.16604e-07
1.19823e-07
1.22944e-07
1.25985e-07
1.28956e-07
1.3187e-07
1.34732e-07
1.3755e-07
1.40327e-07
1.43065e-07
1.45763e-07
1.48422e-07