/*--------------------------------*- C++ -*----------------------------------*\
  =========                 |
  \\      /  F ield         | OpenFOAM: The Open Source CFD Toolbox
   \\    /   O peration     | Website:  https://openfoam.org
    \\  /    A nd           | Version:  12
     \\/     M anipulation  |
\*---------------------------------------------------------------------------*/
FoamFile
{
    format      ascii;
    class       surfaceScalarField;
    location    "5";
    object      phi;
}
// * * * * * * * * * * * * * * * * * * * * * * * * * * * * * * * * * * * * * //

dimensions      [0 3 -1 0 0 0 0];

internalField   nonuniform List<scalar> 
36180
(
3.27875e-11
-3.25576e-11
1.64569e-10
-1.31811e-10
3.66904e-10
-2.02373e-10
6.01009e-10
-2.3414e-10
8.36516e-10
-2.35534e-10
1.05167e-09
-2.15173e-10
1.23159e-09
-1.79935e-10
1.36662e-09
-1.35029e-10
1.45089e-09
-8.42806e-11
1.48133e-09
-3.04348e-11
1.45675e-09
2.45753e-11
1.37732e-09
7.94387e-11
1.24404e-09
1.3328e-10
1.05847e-09
1.85569e-10
8.22439e-10
2.36028e-10
5.37879e-10
2.84558e-10
2.0668e-10
3.31196e-10
-1.69387e-10
3.76063e-10
-5.88743e-10
4.19352e-10
-1.05003e-09
4.61283e-10
-1.55212e-09
5.02083e-10
-2.09409e-09
5.41972e-10
-2.67526e-09
5.81158e-10
-3.29509e-09
6.1983e-10
-3.95324e-09
6.58144e-10
-4.64946e-09
6.96222e-10
-5.38361e-09
7.34149e-10
-6.15558e-09
7.71971e-10
-6.96528e-09
8.09696e-10
-7.81257e-09
8.47295e-10
-8.69727e-09
8.84704e-10
-9.6191e-09
9.21823e-10
-1.05776e-08
9.58521e-10
-1.15723e-08
9.94638e-10
-1.26022e-08
1.02999e-09
-1.36666e-08
1.06435e-09
-1.47641e-08
1.0975e-09
-1.58933e-08
1.12918e-09
-1.70524e-08
1.15911e-09
-1.82394e-08
1.187e-09
-1.9452e-08
1.21256e-09
-2.06874e-08
1.23548e-09
-2.19429e-08
1.25542e-09
-2.32149e-08
1.27207e-09
-2.45e-08
1.2851e-09
-2.57942e-08
1.29418e-09
-2.70932e-08
1.29898e-09
-2.83924e-08
1.29919e-09
-2.96869e-08
1.29449e-09
-3.09715e-08
1.28459e-09
-3.22407e-08
1.2692e-09
-3.34887e-08
1.24806e-09
-3.47097e-08
1.22094e-09
-3.58973e-08
1.18764e-09
-3.70453e-08
1.14796e-09
-3.8147e-08
1.10177e-09
-3.9196e-08
1.04897e-09
-4.01855e-08
9.89509e-10
-4.11089e-08
9.23365e-10
-4.19595e-08
8.50585e-10
-4.27307e-08
7.71261e-10
-4.34163e-08
6.85544e-10
-4.40099e-08
5.93645e-10
-4.45058e-08
4.95829e-10
-4.48982e-08
3.92418e-10
-4.51819e-08
2.83767e-10
-4.53522e-08
1.70301e-10
-4.54054e-08
5.31593e-11
-4.53372e-08
-6.81928e-11
-4.51449e-08
-1.92345e-10
-4.48261e-08
-3.188e-10
-4.43793e-08
-4.46812e-10
-4.38037e-08
-5.75588e-10
-4.30994e-08
-7.04296e-10
-4.22673e-08
-8.32072e-10
-4.13093e-08
-9.58023e-10
-4.0228e-08
-1.08124e-09
-3.90272e-08
-1.2008e-09
-3.77115e-08
-1.31578e-09
-3.62862e-08
-1.42528e-09
-3.47578e-08
-1.52841e-09
-3.31335e-08
-1.6243e-09
-3.14213e-08
-1.71214e-09
-2.96302e-08
-1.79118e-09
-2.77695e-08
-1.8607e-09
-2.58494e-08
-1.92009e-09
-2.38806e-08
-1.9688e-09
-2.18742e-08
-2.00638e-09
-1.98417e-08
-2.03247e-09
-1.77949e-08
-2.04683e-09
-1.57456e-08
-2.04931e-09
-1.37057e-08
-2.0399e-09
-1.1687e-08
-2.01867e-09
-9.70117e-09
-1.98584e-09
-7.75946e-09
-1.94171e-09
-5.87273e-09
-1.88673e-09
-4.05133e-09
-1.8214e-09
-2.30497e-09
-1.74637e-09
-6.42632e-10
-1.66234e-09
9.27471e-10
-1.5701e-09
2.398e-09
-1.47053e-09
3.76253e-09
-1.36453e-09
5.01557e-09
-1.25304e-09
6.15263e-09
-1.13706e-09
7.17022e-09
-1.0176e-09
8.06588e-09
-8.95658e-10
8.8381e-09
-7.72215e-10
9.48633e-09
-6.48237e-10
1.0011e-08
-5.24661e-10
1.04134e-08
-4.0238e-10
1.06956e-08
-2.82236e-10
1.08606e-08
-1.65021e-10
1.09121e-08
-5.14744e-11
1.08544e-08
5.77434e-11
1.06924e-08
1.61965e-10
1.04317e-08
2.6066e-10
1.00785e-08
3.53245e-10
9.63932e-09
4.39172e-10
9.12143e-09
5.17888e-10
8.53262e-09
5.8881e-10
7.88133e-09
6.51289e-10
7.17677e-09
7.04568e-10
6.42903e-09
7.47739e-10
5.64934e-09
7.79687e-10
4.85031e-09
7.99033e-10
4.04624e-09
8.04066e-10
3.25356e-09
7.92676e-10
2.49126e-09
7.62308e-10
1.7813e-09
7.09961e-10
1.14895e-09
6.32349e-10
6.22513e-10
5.26434e-10
2.31801e-10
3.90712e-10
3.35158e-12
2.28449e-10
-5.50641e-11
5.84156e-11
-5.50642e-11
1.32543e-10
-1.65107e-10
4.63047e-10
-4.62341e-10
9.19594e-10
-6.58955e-10
1.42937e-09
-7.43949e-10
1.9302e-09
-7.36391e-10
2.37379e-09
-6.58785e-10
2.72469e-09
-5.30842e-10
2.95813e-09
-3.68478e-10
3.05788e-09
-1.84033e-10
3.01423e-09
1.3216e-11
2.82232e-09
2.16487e-10
2.48083e-09
4.2093e-10
1.99089e-09
6.23213e-10
1.35528e-09
8.21178e-10
5.77733e-10
1.01358e-09
-3.37548e-10
1.19984e-09
-1.38625e-09
1.37989e-09
-2.56421e-09
1.55402e-09
-3.86759e-09
1.72272e-09
-5.29292e-09
1.88661e-09
-6.83723e-09
2.04639e-09
-8.49806e-09
2.20279e-09
-1.02734e-08
2.35648e-09
-1.21616e-08
2.50805e-09
-1.41615e-08
2.65799e-09
-1.62719e-08
2.80669e-09
-1.84922e-08
2.95438e-09
-2.08214e-08
3.10119e-09
-2.32588e-08
3.24708e-09
-2.58033e-08
3.39189e-09
-2.8454e-08
3.53535e-09
-3.12092e-08
3.67702e-09
-3.40671e-08
3.8164e-09
-3.70253e-08
3.95283e-09
-4.00809e-08
4.08558e-09
-4.32303e-08
4.21383e-09
-4.64695e-08
4.33666e-09
-4.97934e-08
4.45309e-09
-5.31964e-08
4.56208e-09
-5.66719e-08
4.66253e-09
-6.02127e-08
4.75331e-09
-6.38104e-08
4.83324e-09
-6.74561e-08
4.90111e-09
-7.11398e-08
4.95572e-09
-7.48505e-08
4.99586e-09
-7.85767e-08
5.02032e-09
-8.23056e-08
5.02791e-09
-8.60239e-08
5.01747e-09
-8.97173e-08
4.98791e-09
-9.33709e-08
4.93816e-09
-9.69689e-08
4.86724e-09
-1.00495e-07
4.77426e-09
-1.03933e-07
4.65842e-09
-1.07264e-07
4.51904e-09
-1.10472e-07
4.35555e-09
-1.13537e-07
4.16754e-09
-1.16443e-07
3.95475e-09
-1.19171e-07
3.71709e-09
-1.21702e-07
3.45462e-09
-1.24019e-07
3.16762e-09
-1.26104e-07
2.85658e-09
-1.27941e-07
2.52215e-09
-1.29513e-07
2.16525e-09
-1.30804e-07
1.78697e-09
-1.318e-07
1.38865e-09
-1.32488e-07
9.71757e-10
-1.32856e-07
5.3796e-10
-1.32893e-07
9.02757e-11
-1.3259e-07
-3.70456e-10
-1.31942e-07
-8.4125e-10
-1.30941e-07
-1.31951e-09
-1.29585e-07
-1.80247e-09
-1.27874e-07
-2.28722e-09
-1.25807e-07
-2.77069e-09
-1.23389e-07
-3.24973e-09
-1.20626e-07
-3.72108e-09
-1.17526e-07
-4.18143e-09
-1.141e-07
-4.62747e-09
-1.10359e-07
-5.05588e-09
-1.06321e-07
-5.46339e-09
-1.02003e-07
-5.84682e-09
-9.74241e-08
-6.2031e-09
-9.26069e-08
-6.52933e-09
-8.75753e-08
-6.82279e-09
-8.2355e-08
-7.08099e-09
-7.69734e-08
-7.30171e-09
-7.14592e-08
-7.48302e-09
-6.58423e-08
-7.62332e-09
-6.01534e-08
-7.72134e-09
-5.4424e-08
-7.77621e-09
-4.86859e-08
-7.78743e-09
-4.29709e-08
-7.75489e-09
-3.73107e-08
-7.6789e-09
-3.17363e-08
-7.56017e-09
-2.62783e-08
-7.3998e-09
-2.09657e-08
-7.1993e-09
-1.58266e-08
-6.96053e-09
-1.08872e-08
-6.68569e-09
-6.17223e-09
-6.37733e-09
-1.70408e-09
-6.03826e-09
2.49692e-09
-5.67153e-09
6.41281e-09
-5.28042e-09
1.00281e-08
-4.86835e-09
1.333e-08
-4.4389e-09
1.6308e-08
-3.99565e-09
1.89546e-08
-3.54223e-09
2.12647e-08
-3.08229e-09
2.32358e-08
-2.61938e-09
2.48681e-08
-2.15696e-09
2.61641e-08
-1.69837e-09
2.71286e-08
-1.24678e-09
2.77688e-08
-8.05228e-10
2.80939e-08
-3.76532e-10
2.8115e-08
3.66551e-11
2.78452e-08
4.31771e-10
2.72993e-08
8.06589e-10
2.64937e-08
1.15878e-09
2.54468e-08
1.48609e-09
2.41784e-08
1.78625e-09
2.27103e-08
2.05691e-09
2.10662e-08
2.29546e-09
1.92718e-08
2.49896e-09
1.73555e-08
2.66401e-09
1.53486e-08
2.78655e-09
1.32859e-08
2.86175e-09
1.12061e-08
2.88386e-09
9.15271e-09
2.8461e-09
7.17432e-09
2.7407e-09
5.32514e-09
2.55914e-09
3.66444e-09
2.29305e-09
2.25471e-09
1.93616e-09
1.1569e-09
1.48852e-09
4.19937e-10
9.65417e-10
5.85253e-11
4.19827e-10
3.46107e-12
2.04521e-10
-3.6962e-10
6.62983e-10
-9.20812e-10
1.25989e-09
-1.25589e-09
1.90086e-09
-1.38494e-09
2.50699e-09
-1.34254e-09
3.01518e-09
-1.167e-09
3.37733e-09
-8.92996e-10
3.55841e-09
-5.49568e-10
3.53434e-09
-1.59962e-10
3.28977e-09
2.5779e-10
2.81618e-09
6.90077e-10
2.11017e-09
1.12694e-09
1.17202e-09
1.56136e-09
4.5615e-12
1.98864e-09
-1.38777e-09
2.40591e-09
-2.99962e-09
2.81167e-09
-4.8252e-09
3.20547e-09
-6.85879e-09
3.5876e-09
-9.09494e-09
3.95886e-09
-1.15287e-08
4.32038e-09
-1.41557e-08
4.67342e-09
-1.69723e-08
5.01931e-09
-1.99751e-08
5.35928e-09
-2.31615e-08
5.69443e-09
-2.65291e-08
6.02568e-09
-3.00761e-08
6.35367e-09
-3.38006e-08
6.67881e-09
-3.77006e-08
7.00124e-09
-4.17743e-08
7.32078e-09
-4.60194e-08
7.63702e-09
-5.04333e-08
7.94925e-09
-5.50128e-08
8.2565e-09
-5.9754e-08
8.55757e-09
-6.46522e-08
8.85102e-09
-6.97018e-08
9.13522e-09
-7.48963e-08
9.40834e-09
-8.0228e-08
9.66838e-09
-8.56881e-08
9.9132e-09
-9.12666e-08
1.01405e-08
-9.69521e-08
1.0348e-08
-1.02732e-07
1.05332e-08
-1.08592e-07
1.06935e-08
-1.14518e-07
1.08264e-08
-1.20491e-07
1.09294e-08
-1.26495e-07
1.09999e-08
-1.3251e-07
1.10352e-08
-1.38515e-07
1.10331e-08
-1.44489e-07
1.0991e-08
-1.50408e-07
1.09068e-08
-1.56248e-07
1.07782e-08
-1.61984e-07
1.06033e-08
-1.6759e-07
1.03803e-08
-1.73039e-07
1.01077e-08
-1.78304e-07
9.78421e-09
-1.83358e-07
9.40878e-09
-1.88171e-07
8.98074e-09
-1.92716e-07
8.49972e-09
-1.96964e-07
7.96572e-09
-2.00889e-07
7.37912e-09
-2.04462e-07
6.74071e-09
-2.07657e-07
6.05171e-09
-2.10449e-07
5.31375e-09
-2.12812e-07
4.52894e-09
-2.14725e-07
3.69981e-09
-2.16166e-07
2.82936e-09
-2.17115e-07
1.92101e-09
-2.17556e-07
9.78702e-10
-2.17473e-07
7.21234e-12
-2.16854e-07
-9.89322e-10
-2.1569e-07
-2.00549e-09
-2.13974e-07
-3.03575e-09
-2.11702e-07
-4.0742e-09
-2.08874e-07
-5.11466e-09
-2.05494e-07
-6.1507e-09
-2.01568e-07
-7.17569e-09
-1.97107e-07
-8.18284e-09
-1.92123e-07
-9.16527e-09
-1.86634e-07
-1.01161e-08
-1.80662e-07
-1.10284e-08
-1.74229e-07
-1.18956e-08
-1.67365e-07
-1.27109e-08
-1.601e-07
-1.34682e-08
-1.52468e-07
-1.41614e-08
-1.44506e-07
-1.4785e-08
-1.36253e-07
-1.53338e-08
-1.27752e-07
-1.58034e-08
-1.19045e-07
-1.61898e-08
-1.10179e-07
-1.64896e-08
-1.012e-07
-1.67003e-08
-9.21557e-08
-1.68202e-08
-8.30951e-08
-1.6848e-08
-7.40662e-08
-1.67837e-08
-6.51173e-08
-1.66278e-08
-5.62958e-08
-1.63817e-08
-4.76479e-08
-1.60477e-08
-3.92184e-08
-1.56288e-08
-3.10502e-08
-1.51288e-08
-2.31837e-08
-1.45521e-08
-1.56571e-08
-1.3904e-08
-8.50508e-09
-1.31902e-08
-1.75957e-09
-1.2417e-08
4.55119e-09
-1.15912e-08
1.04025e-08
-1.07197e-08
1.57737e-08
-9.81e-09
2.06476e-08
-8.86955e-09
2.50113e-08
-7.90596e-09
2.88558e-08
-6.92682e-09
3.21761e-08
-5.93964e-09
3.49709e-08
-4.95176e-09
3.72428e-08
-3.97031e-09
3.89982e-08
-3.00213e-09
4.02467e-08
-2.05374e-09
4.10015e-08
-1.13133e-09
4.12789e-08
-2.40781e-10
4.10983e-08
6.1235e-10
4.04821e-08
1.42281e-09
3.94554e-08
2.18545e-09
3.80463e-08
2.89521e-09
3.62856e-08
3.54696e-09
3.42072e-08
4.13536e-09
3.18479e-08
4.65467e-09
2.92484e-08
5.09854e-09
2.64526e-08
5.45973e-09
2.35093e-08
5.72988e-09
2.04717e-08
5.89932e-09
1.73987e-08
5.95686e-09
1.4355e-08
5.88981e-09
1.14115e-08
5.68419e-09
8.6451e-09
5.32557e-09
6.13729e-09
4.80086e-09
3.97135e-09
4.1021e-09
2.2264e-09
3.23347e-09
9.67357e-10
2.22446e-09
2.29161e-10
1.15802e-09
2.32622e-10
2.37782e-10
-6.07392e-10
7.50412e-10
-1.43344e-09
1.39091e-09
-1.8964e-09
2.0477e-09
-2.04174e-09
2.63114e-09
-1.92599e-09
3.06975e-09
-1.60562e-09
3.30823e-09
-1.13149e-09
3.30544e-09
-5.46784e-10
3.03224e-09
1.13236e-10
2.46938e-09
8.20655e-10
1.60546e-09
1.554e-09
4.35154e-10
2.29724e-09
-1.04231e-09
3.03882e-09
-2.8245e-09
3.77083e-09
-4.90683e-09
4.48823e-09
-7.2834e-09
5.18825e-09
-9.94772e-09
5.86979e-09
-1.28931e-08
6.53302e-09
-1.61132e-08
7.17895e-09
-1.9602e-08
7.80913e-09
-2.3354e-08
8.42541e-09
-2.73644e-08
9.0297e-09
-3.16289e-08
9.62382e-09
-3.61439e-08
1.02094e-08
-4.09059e-08
1.07876e-08
-4.59117e-08
1.13595e-08
-5.11584e-08
1.19255e-08
-5.66428e-08
1.24856e-08
-6.23614e-08
1.30394e-08
-6.83104e-08
1.3586e-08
-7.44852e-08
1.4124e-08
-8.08805e-08
1.46517e-08
-8.74898e-08
1.51669e-08
-9.43059e-08
1.56671e-08
-1.0132e-07
1.61493e-08
-1.08522e-07
1.66104e-08
-1.15901e-07
1.70469e-08
-1.23443e-07
1.74551e-08
-1.31133e-07
1.7831e-08
-1.38956e-07
1.81707e-08
-1.46892e-07
1.84698e-08
-1.54923e-07
1.87242e-08
-1.63026e-07
1.89296e-08
-1.71178e-07
1.90815e-08
-1.79354e-07
1.91757e-08
-1.87527e-07
1.9208e-08
-1.95668e-07
1.91743e-08
-2.03748e-07
1.90706e-08
-2.11734e-07
1.88934e-08
-2.19595e-07
1.86391e-08
-2.27297e-07
1.83047e-08
-2.34804e-07
1.78873e-08
-2.42081e-07
1.73847e-08
-2.49091e-07
1.67948e-08
-2.55799e-07
1.61164e-08
-2.62167e-07
1.53484e-08
-2.68158e-07
1.44907e-08
-2.73735e-07
1.35436e-08
-2.78864e-07
1.2508e-08
-2.83509e-07
1.13856e-08
-2.87636e-07
1.01788e-08
-2.91213e-07
8.89069e-09
-2.94209e-07
7.52507e-09
-2.96596e-07
6.08652e-09
-2.98347e-07
4.58038e-09
-2.99439e-07
3.0127e-09
-2.9985e-07
1.39031e-09
-2.99564e-07
-2.79154e-10
-2.98566e-07
-1.98774e-09
-2.96844e-07
-3.72664e-09
-2.94394e-07
-5.48645e-09
-2.91211e-07
-7.25728e-09
-2.87297e-07
-9.02876e-09
-2.82657e-07
-1.07902e-08
-2.77302e-07
-1.25305e-08
-2.71247e-07
-1.42384e-08
-2.64509e-07
-1.59026e-08
-2.57114e-07
-1.75118e-08
-2.49088e-07
-1.90545e-08
-2.40463e-07
-2.05199e-08
-2.31277e-07
-2.18971e-08
-2.2157e-07
-2.31757e-08
-2.11385e-07
-2.43462e-08
-2.00771e-07
-2.53992e-08
-1.89778e-07
-2.63267e-08
-1.7846e-07
-2.7121e-08
-1.66874e-07
-2.77758e-08
-1.55078e-07
-2.82857e-08
-1.43132e-07
-2.86464e-08
-1.31097e-07
-2.8855e-08
-1.19035e-07
-2.89098e-08
-1.07009e-07
-2.88102e-08
-9.50794e-08
-2.85572e-08
-8.33081e-08
-2.81531e-08
-7.17544e-08
-2.76014e-08
-6.04762e-08
-2.6907e-08
-4.95289e-08
-2.6076e-08
-3.89653e-08
-2.51157e-08
-2.88348e-08
-2.40345e-08
-1.91833e-08
-2.28417e-08
-1.00527e-08
-2.15476e-08
-1.48064e-09
-2.01632e-08
6.49981e-09
-1.87002e-08
1.38603e-08
-1.71705e-08
2.05774e-08
-1.55866e-08
2.66326e-08
-1.39612e-08
3.20127e-08
-1.23069e-08
3.67094e-08
-1.06363e-08
4.07193e-08
-8.96165e-09
4.40441e-08
-7.29512e-09
4.66903e-08
-5.64833e-09
4.8669e-08
-4.03245e-09
4.99958e-08
-2.45818e-09
5.06909e-08
-9.35792e-10
5.07782e-08
5.25018e-10
5.02861e-08
1.9149e-09
4.92468e-08
3.22479e-09
4.76962e-08
4.44572e-09
4.56746e-08
5.56861e-09
4.32259e-08
6.58409e-09
4.03983e-08
7.48223e-09
3.72447e-08
8.25218e-09
3.38225e-08
8.88189e-09
3.01947e-08
9.35773e-09
2.64297e-08
9.66431e-09
2.26022e-08
9.78433e-09
1.87933e-08
9.69869e-09
1.50904e-08
9.3871e-09
1.15866e-08
8.82943e-09
8.3789e-09
8.0085e-09
5.56585e-09
6.91515e-09
3.24242e-09
5.5569e-09
1.49427e-09
3.97261e-09
3.92641e-10
2.25965e-09
6.25263e-10
2.39525e-10
-8.46902e-10
7.40169e-10
-1.93408e-09
1.3384e-09
-2.49464e-09
1.91143e-09
-2.61478e-09
2.36289e-09
-2.37746e-09
2.61677e-09
-1.85951e-09
2.61421e-09
-1.12894e-09
2.31103e-09
-2.43609e-10
1.67547e-09
7.48796e-10
6.86063e-10
1.81006e-09
-6.70325e-10
2.91039e-09
-2.40027e-09
4.02719e-09
-4.50541e-09
5.14396e-09
-6.98375e-09
6.24917e-09
-9.83084e-09
7.33532e-09
-1.30407e-08
8.39806e-09
-1.66064e-08
9.43549e-09
-2.05208e-08
1.04474e-08
-2.47769e-08
1.14351e-08
-2.9368e-08
1.24002e-08
-3.42878e-08
1.33452e-08
-3.95307e-08
1.42726e-08
-4.50914e-08
1.51846e-08
-5.09653e-08
1.60832e-08
-5.71478e-08
1.69701e-08
-6.36345e-08
1.78463e-08
-7.04211e-08
1.87121e-08
-7.75029e-08
1.95674e-08
-8.48745e-08
2.04111e-08
-9.25303e-08
2.12418e-08
-1.00463e-07
2.20571e-08
-1.08666e-07
2.28543e-08
-1.17129e-07
2.36298e-08
-1.25841e-07
2.43797e-08
-1.34791e-07
2.50995e-08
-1.43965e-07
2.57842e-08
-1.53347e-07
2.64286e-08
-1.62919e-07
2.70271e-08
-1.72662e-07
2.75736e-08
-1.82553e-07
2.8062e-08
-1.92569e-07
2.84861e-08
-2.02684e-07
2.88394e-08
-2.1287e-07
2.91156e-08
-2.23097e-07
2.93082e-08
-2.33332e-07
2.94109e-08
-2.43542e-07
2.94176e-08
-2.5369e-07
2.93224e-08
-2.63739e-07
2.91195e-08
-2.73649e-07
2.88038e-08
-2.83381e-07
2.83705e-08
-2.92891e-07
2.78151e-08
-3.02138e-07
2.71339e-08
-3.11077e-07
2.63239e-08
-3.19665e-07
2.53825e-08
-3.27856e-07
2.43081e-08
-3.35608e-07
2.30998e-08
-3.42875e-07
2.17578e-08
-3.49614e-07
2.0283e-08
-3.55783e-07
1.86772e-08
-3.61341e-07
1.69436e-08
-3.66248e-07
1.50859e-08
-3.70467e-07
1.31094e-08
-3.73962e-07
1.10201e-08
-3.76701e-07
8.82514e-09
-3.78653e-07
6.53286e-09
-3.79793e-07
4.15254e-09
-3.80097e-07
1.69455e-09
-3.79547e-07
-8.29743e-10
-3.78126e-07
-3.40816e-09
-3.75825e-07
-6.02759e-09
-3.72638e-07
-8.6741e-09
-3.68562e-07
-1.1333e-08
-3.63601e-07
-1.39892e-08
-3.57765e-07
-1.66268e-08
-3.51066e-07
-1.92296e-08
-3.43523e-07
-2.17813e-08
-3.3516e-07
-2.42654e-08
-3.26006e-07
-2.66654e-08
-3.16096e-07
-2.89648e-08
-3.05468e-07
-3.11477e-08
-2.94167e-07
-3.31986e-08
-2.8224e-07
-3.51026e-08
-2.6974e-07
-3.68456e-08
-2.56725e-07
-3.84146e-08
-2.43254e-07
-3.97974e-08
-2.29392e-07
-4.09835e-08
-2.15204e-07
-4.19635e-08
-2.0076e-07
-4.27297e-08
-1.86131e-07
-4.32758e-08
-1.71388e-07
-4.35976e-08
-1.56605e-07
-4.36924e-08
-1.41856e-07
-4.35595e-08
-1.27213e-07
-4.32001e-08
-1.12749e-07
-4.26174e-08
-9.85339e-08
-4.18163e-08
-8.46371e-08
-4.08038e-08
-7.11247e-08
-3.95884e-08
-5.80598e-08
-3.81806e-08
-4.55019e-08
-3.65924e-08
-3.35066e-08
-3.48371e-08
-2.21247e-08
-3.29295e-08
-1.14024e-08
-3.08855e-08
-1.38064e-09
-2.87219e-08
7.90513e-09
-2.64563e-08
1.64251e-08
-2.41066e-08
2.41554e-08
-2.16915e-08
3.1078e-08
-1.92295e-08
3.71808e-08
-1.67391e-08
4.24579e-08
-1.42387e-08
4.6909e-08
-1.17462e-08
5.05398e-08
-9.27918e-09
5.33618e-08
-6.85444e-09
5.53919e-08
-4.48827e-09
5.66523e-08
-2.19621e-09
5.71706e-08
6.72258e-12
5.69794e-08
2.10605e-09
5.61164e-08
4.0878e-09
5.4624e-08
5.93811e-09
5.25497e-08
7.6429e-09
4.9946e-08
9.18783e-09
4.68704e-08
1.05579e-08
4.33857e-08
1.17369e-08
3.95605e-08
1.27071e-08
3.54691e-08
1.34491e-08
3.11922e-08
1.39412e-08
2.68169e-08
1.41596e-08
2.24368e-08
1.40788e-08
1.81517e-08
1.36722e-08
1.40671e-08
1.2914e-08
1.02926e-08
1.1783e-08
6.94005e-09
1.02677e-08
4.12143e-09
8.37551e-09
1.94734e-09
6.14671e-09
5.30045e-10
3.67694e-09
1.15531e-09
2.17043e-10
-1.06394e-09
6.50305e-10
-2.36734e-09
1.1317e-09
-2.97603e-09
1.53382e-09
-3.01691e-09
1.75758e-09
-2.60123e-09
1.72551e-09
-1.82744e-09
1.37792e-09
-7.81354e-10
6.69988e-10
4.64321e-10
-4.30684e-10
1.84947e-09
-1.94618e-09
3.32556e-09
-3.89022e-09
4.85443e-09
-6.26989e-09
6.40686e-09
-9.08721e-09
7.96128e-09
-1.23405e-08
9.50242e-09
-1.60253e-08
1.10202e-08
-2.01357e-08
1.25085e-08
-2.46647e-08
1.39645e-08
-2.96048e-08
1.53876e-08
-3.49487e-08
1.67789e-08
-4.06891e-08
1.81406e-08
-4.68193e-08
1.94754e-08
-5.33328e-08
2.07861e-08
-6.02237e-08
2.20754e-08
-6.74862e-08
2.33457e-08
-7.51146e-08
2.45986e-08
-8.31034e-08
2.58351e-08
-9.14466e-08
2.70553e-08
-1.00138e-07
2.82585e-08
-1.0917e-07
2.9443e-08
-1.18534e-07
3.06064e-08
-1.28222e-07
3.17452e-08
-1.38223e-07
3.2855e-08
-1.48524e-07
3.3931e-08
-1.59112e-07
3.49674e-08
-1.6997e-07
3.59576e-08
-1.81081e-07
3.68948e-08
-1.92423e-07
3.77714e-08
-2.03976e-07
3.85795e-08
-2.15713e-07
3.93108e-08
-2.27608e-07
3.99568e-08
-2.39631e-07
4.05088e-08
-2.51749e-07
4.09579e-08
-2.63929e-07
4.12955e-08
-2.76133e-07
4.15127e-08
-2.88323e-07
4.1601e-08
-3.00458e-07
4.15522e-08
-3.12494e-07
4.13584e-08
-3.24387e-07
4.10122e-08
-3.3609e-07
4.05066e-08
-3.47554e-07
3.98354e-08
-3.58733e-07
3.89931e-08
-3.69574e-07
3.79751e-08
-3.80027e-07
3.67775e-08
-3.90043e-07
3.53977e-08
-3.99568e-07
3.38339e-08
-4.08554e-07
3.20856e-08
-4.1695e-07
3.01535e-08
-4.24707e-07
2.80396e-08
-4.31777e-07
2.57472e-08
-4.38114e-07
2.32809e-08
-4.43675e-07
2.06468e-08
-4.48418e-07
1.78524e-08
-4.52304e-07
1.49066e-08
-4.55299e-07
1.18197e-08
-4.5737e-07
8.60361e-09
-4.58488e-07
5.2713e-09
-4.58631e-07
1.8373e-09
-4.57778e-07
-1.68265e-09
-4.55915e-07
-5.27167e-09
-4.53031e-07
-8.91171e-09
-4.49121e-07
-1.25837e-08
-4.44186e-07
-1.62678e-08
-4.38232e-07
-1.99432e-08
-4.3127e-07
-2.35886e-08
-4.23318e-07
-2.71823e-08
-4.14397e-07
-3.07021e-08
-4.04536e-07
-3.41259e-08
-3.9377e-07
-3.74316e-08
-3.82138e-07
-4.05972e-08
-3.69684e-07
-4.36015e-08
-3.56459e-07
-4.64236e-08
-3.42518e-07
-4.90437e-08
-3.2792e-07
-5.14432e-08
-3.1273e-07
-5.36044e-08
-2.97016e-07
-5.55115e-08
-2.8085e-07
-5.71501e-08
-2.64306e-07
-5.85077e-08
-2.47461e-07
-5.9574e-08
-2.30396e-07
-6.03407e-08
-2.13192e-07
-6.08019e-08
-1.95931e-07
-6.09538e-08
-1.78695e-07
-6.07954e-08
-1.61567e-07
-6.03282e-08
-1.44628e-07
-5.95559e-08
-1.27959e-07
-5.84852e-08
-1.11638e-07
-5.71249e-08
-9.57402e-08
-5.54864e-08
-8.03376e-08
-5.35833e-08
-6.54986e-08
-5.14313e-08
-5.12873e-08
-4.90484e-08
-3.7763e-08
-4.64539e-08
-2.49794e-08
-4.36691e-08
-1.2985e-08
-4.07164e-08
-1.82191e-09
-3.76193e-08
8.47373e-09
-3.44023e-08
1.78724e-08
-3.10902e-08
2.63512e-08
-2.77083e-08
3.3894e-08
-2.42818e-08
4.04912e-08
-2.0836e-08
4.61404e-08
-1.73954e-08
5.08454e-08
-1.39842e-08
5.4617e-08
-1.0626e-08
5.74722e-08
-7.34348e-09
5.94345e-08
-4.1585e-09
6.05335e-08
-1.09231e-09
6.08049e-08
1.83466e-09
6.02903e-08
4.60243e-09
5.9037e-08
7.19139e-09
5.70984e-08
9.58155e-09
5.45334e-08
1.17528e-08
5.14072e-08
1.36841e-08
4.77907e-08
1.53534e-08
4.37611e-08
1.67367e-08
3.94021e-08
1.78081e-08
3.48038e-08
1.85395e-08
3.00631e-08
1.89003e-08
2.52834e-08
1.88585e-08
2.05745e-08
1.8381e-08
1.60521e-08
1.74365e-08
1.18368e-08
1.59983e-08
8.05387e-09
1.40507e-08
4.83297e-09
1.15964e-08
2.31063e-09
8.66905e-09
6.37853e-10
5.34972e-09
1.79316e-09
1.75996e-10
-1.23992e-09
4.96393e-10
-2.68773e-09
7.97182e-10
-3.27682e-09
9.52364e-10
-3.1721e-09
8.64024e-10
-2.51289e-09
4.56169e-10
-1.41959e-09
-3.2939e-10
4.20219e-12
-1.53612e-09
1.67105e-09
-3.19534e-09
3.50869e-09
-5.32836e-09
5.45858e-09
-7.94837e-09
7.47444e-09
-1.10621e-08
9.52064e-09
-1.46715e-08
1.15707e-08
-1.87748e-08
1.36056e-08
-2.33674e-08
1.56128e-08
-2.84434e-08
1.75844e-08
-3.39956e-08
1.95167e-08
-4.00166e-08
2.14086e-08
-4.64987e-08
2.3261e-08
-5.34343e-08
2.50762e-08
-6.08161e-08
2.68573e-08
-6.86373e-08
2.86072e-08
-7.68909e-08
3.03291e-08
-8.55704e-08
3.20251e-08
-9.46689e-08
3.36971e-08
-1.04179e-07
3.53456e-08
-1.14094e-07
3.69703e-08
-1.24406e-07
3.85696e-08
-1.35104e-07
4.0141e-08
-1.46178e-07
4.16807e-08
-1.57616e-07
4.31836e-08
-1.69405e-07
4.4644e-08
-1.81529e-07
4.60548e-08
-1.9397e-07
4.74082e-08
-2.06708e-07
4.86955e-08
-2.1972e-07
4.99073e-08
-2.32982e-07
5.10336e-08
-2.46467e-07
5.20639e-08
-2.60143e-07
5.29872e-08
-2.73979e-07
5.37924e-08
-2.87938e-07
5.4468e-08
-3.01983e-07
5.50027e-08
-3.16072e-07
5.53851e-08
-3.30164e-07
5.5604e-08
-3.44211e-07
5.56484e-08
-3.58167e-07
5.55081e-08
-3.71982e-07
5.51729e-08
-3.85603e-07
5.46337e-08
-3.98979e-07
5.38821e-08
-4.12054e-07
5.29104e-08
-4.24773e-07
5.17121e-08
-4.37079e-07
5.02818e-08
-4.48917e-07
4.86153e-08
-4.60229e-07
4.67098e-08
-4.70959e-07
4.45638e-08
-4.81051e-07
4.21776e-08
-4.9045e-07
3.95528e-08
-4.99103e-07
3.66927e-08
-5.06959e-07
3.36024e-08
-5.13967e-07
3.02889e-08
-5.2008e-07
2.67606e-08
-5.25256e-07
2.30279e-08
-5.29452e-07
1.91032e-08
-5.32633e-07
1.50003e-08
-5.34764e-07
1.0735e-08
-5.35818e-07
6.32466e-09
-5.35769e-07
1.78841e-09
-5.34598e-07
-2.85318e-09
-5.32292e-07
-7.57804e-09
-5.28841e-07
-1.23628e-08
-5.24242e-07
-1.71829e-08
-5.18497e-07
-2.20126e-08
-5.11615e-07
-2.68254e-08
-5.03609e-07
-3.15941e-08
-4.94501e-07
-3.62908e-08
-4.84316e-07
-4.08874e-08
-4.73086e-07
-4.53558e-08
-4.60849e-07
-4.96679e-08
-4.47651e-07
-5.3796e-08
-4.33539e-07
-5.7713e-08
-4.1857e-07
-6.13927e-08
-4.02804e-07
-6.48101e-08
-3.86306e-07
-6.79413e-08
-3.69146e-07
-7.07644e-08
-3.51398e-07
-7.32591e-08
-3.33141e-07
-7.54072e-08
-3.14456e-07
-7.71929e-08
-2.95427e-07
-7.8603e-08
-2.76141e-07
-7.96267e-08
-2.56686e-07
-8.02563e-08
-2.37153e-07
-8.04871e-08
-2.17631e-07
-8.03173e-08
-1.98211e-07
-7.97485e-08
-1.78981e-07
-7.87853e-08
-1.60031e-07
-7.74354e-08
-1.41446e-07
-7.57099e-08
-1.2331e-07
-7.36227e-08
-1.05702e-07
-7.11908e-08
-8.86998e-08
-6.84339e-08
-7.23741e-08
-6.53741e-08
-5.67919e-08
-6.20361e-08
-4.20145e-08
-5.84465e-08
-2.8097e-08
-5.46338e-08
-1.50885e-08
-5.06278e-08
-3.03119e-09
-4.64596e-08
8.03977e-09
-4.21612e-08
1.80963e-08
-3.77648e-08
2.71176e-08
-3.33032e-08
3.50906e-08
-2.88089e-08
4.20092e-08
-2.4314e-08
4.78753e-08
-1.98503e-08
5.26977e-08
-1.54485e-08
5.64929e-08
-1.11387e-08
5.92844e-08
-6.94994e-09
6.11026e-08
-2.91051e-09
6.1985e-08
9.52186e-10
6.19762e-08
4.61128e-09
6.11271e-08
8.04054e-09
5.9495e-08
1.12136e-08
5.71442e-08
1.41035e-08
5.41454e-08
1.66829e-08
5.05761e-08
1.89227e-08
4.65202e-08
2.07926e-08
4.20688e-08
2.22596e-08
3.73196e-08
2.32887e-08
3.23771e-08
2.38428e-08
2.73529e-08
2.38827e-08
2.23651e-08
2.33689e-08
1.75382e-08
2.22634e-08
1.30034e-08
2.05331e-08
8.89888e-09
1.81551e-08
5.37201e-09
1.51233e-08
2.5835e-09
1.14576e-08
7.17325e-10
7.2159e-09
2.51049e-09
1.20554e-10
-1.36047e-09
2.90794e-10
-2.85797e-09
3.56792e-10
-3.34282e-09
1.98883e-10
-3.01419e-09
-2.76002e-10
-2.03801e-09
-1.13965e-09
-5.55946e-10
-2.44655e-09
1.31111e-09
-4.23705e-09
3.46155e-09
-6.53984e-09
5.81148e-09
-9.37416e-09
8.2929e-09
-1.27517e-08
1.08519e-08
-1.6678e-08
1.3447e-08
-2.11542e-08
1.60469e-08
-2.6178e-08
1.86294e-08
-3.17447e-08
2.11795e-08
-3.78481e-08
2.36878e-08
-4.44808e-08
2.61495e-08
-5.16353e-08
2.8563e-08
-5.93037e-08
3.09293e-08
-6.74781e-08
3.32507e-08
-7.61511e-08
3.55302e-08
-8.53149e-08
3.77711e-08
-9.49621e-08
3.99763e-08
-1.05085e-07
4.21481e-08
-1.15676e-07
4.42879e-08
-1.26726e-07
4.63957e-08
-1.38226e-07
4.84704e-08
-1.50166e-07
5.05095e-08
-1.62534e-07
5.2509e-08
-1.75317e-07
5.44635e-08
-1.885e-07
5.63664e-08
-2.02065e-07
5.82097e-08
-2.15995e-07
5.99841e-08
-2.30266e-07
6.16794e-08
-2.44854e-07
6.32843e-08
-2.59734e-07
6.47867e-08
-2.74874e-07
6.61739e-08
-2.90243e-07
6.74325e-08
-3.05804e-07
6.85485e-08
-3.2152e-07
6.95081e-08
-3.37349e-07
7.02968e-08
-3.53246e-07
7.09004e-08
-3.69166e-07
7.1305e-08
-3.85059e-07
7.14967e-08
-4.00873e-07
7.14624e-08
-4.16554e-07
7.11891e-08
-4.32046e-07
7.06652e-08
-4.47292e-07
6.98796e-08
-4.62233e-07
6.88224e-08
-4.76807e-07
6.74848e-08
-4.90954e-07
6.58595e-08
-5.04613e-07
6.39406e-08
-5.17722e-07
6.17237e-08
-5.30218e-07
5.92062e-08
-5.42042e-07
5.63874e-08
-5.53133e-07
5.32684e-08
-5.63432e-07
4.98522e-08
-5.72883e-07
4.61441e-08
-5.81432e-07
4.21513e-08
-5.89027e-07
3.78832e-08
-5.95618e-07
3.33514e-08
-6.01159e-07
2.85696e-08
-6.0561e-07
2.35538e-08
-6.08931e-07
1.83219e-08
-6.11091e-07
1.28941e-08
-6.12058e-07
7.29241e-09
-6.11811e-07
1.54093e-09
-6.10329e-07
-4.33455e-09
-6.07601e-07
-1.03065e-08
-6.03618e-07
-1.63459e-08
-5.98379e-07
-2.24222e-08
-5.91887e-07
-2.85038e-08
-5.84155e-07
-3.45581e-08
-5.75197e-07
-4.05516e-08
-5.65038e-07
-4.64503e-08
-5.53705e-07
-5.22198e-08
-5.41235e-07
-5.78257e-08
-5.27669e-07
-6.32338e-08
-5.13055e-07
-6.84104e-08
-4.97445e-07
-7.33226e-08
-4.809e-07
-7.79383e-08
-4.63483e-07
-8.22271e-08
-4.45264e-07
-8.61602e-08
-4.26318e-07
-8.97105e-08
-4.06723e-07
-9.28533e-08
-3.86564e-07
-9.55665e-08
-3.65926e-07
-9.78307e-08
-3.449e-07
-9.96293e-08
-3.23578e-07
-1.00949e-07
-3.02053e-07
-1.01781e-07
-2.80423e-07
-1.02118e-07
-2.58783e-07
-1.01957e-07
-2.3723e-07
-1.01301e-07
-2.15861e-07
-1.00155e-07
-1.9477e-07
-9.85264e-08
-1.7405e-07
-9.64294e-08
-1.53793e-07
-9.38802e-08
-1.34084e-07
-9.0899e-08
-1.15009e-07
-8.75093e-08
-9.66452e-08
-8.37379e-08
-7.90668e-08
-7.96145e-08
-6.23421e-08
-7.51713e-08
-4.65331e-08
-7.04429e-08
-3.16951e-08
-6.54658e-08
-1.78765e-08
-6.02781e-08
-5.11855e-09
-5.49191e-08
6.54549e-09
-4.94288e-08
1.709e-08
-4.38477e-08
2.64973e-08
-3.82162e-08
3.47579e-08
-3.25747e-08
4.18704e-08
-2.69628e-08
4.78415e-08
-2.14196e-08
5.2686e-08
-1.59831e-08
5.64264e-08
-1.06903e-08
5.90933e-08
-5.5774e-09
6.07248e-08
-6.79321e-10
6.13666e-08
3.9694e-09
6.10725e-08
8.33465e-09
5.99032e-08
1.2383e-08
5.79261e-08
1.60806e-08
5.52162e-08
1.93927e-08
5.18559e-08
2.2283e-08
4.79348e-08
2.47137e-08
4.35493e-08
2.6645e-08
3.88034e-08
2.80346e-08
3.3808e-08
2.88382e-08
2.86812e-08
2.90095e-08
2.35483e-08
2.85017e-08
1.85423e-08
2.72694e-08
1.3804e-08
2.52714e-08
9.48414e-09
2.2475e-08
5.7462e-09
1.88612e-08
2.77193e-09
1.44318e-08
7.71355e-10
9.21647e-09
3.28184e-09
5.37158e-11
-1.41418e-09
4.29919e-11
-2.84724e-09
-1.71911e-10
-3.12791e-09
-7.00408e-10
-2.4857e-09
-1.62748e-09
-1.11094e-09
-3.01818e-09
8.34755e-10
-4.92128e-09
3.21421e-09
-7.37227e-09
5.91254e-09
-1.03958e-08
8.83504e-09
-1.4008e-08
1.1905e-08
-1.82178e-08
1.50617e-08
-2.3029e-08
1.82582e-08
-2.84413e-08
2.14592e-08
-3.44515e-08
2.46396e-08
-4.10542e-08
2.77822e-08
-4.82427e-08
3.08763e-08
-5.60096e-08
3.39164e-08
-6.4347e-08
3.69004e-08
-7.32469e-08
3.98292e-08
-8.27012e-08
4.2705e-08
-9.27019e-08
4.55309e-08
-1.03241e-07
4.83101e-08
-1.1431e-07
5.10454e-08
-1.259e-07
5.37387e-08
-1.38003e-07
5.63907e-08
-1.50608e-07
5.90008e-08
-1.63705e-07
6.15668e-08
-1.7728e-07
6.40846e-08
-1.9132e-07
6.65487e-08
-2.05808e-07
6.89519e-08
-2.20727e-07
7.12854e-08
-2.36056e-07
7.35387e-08
-2.51772e-07
7.57001e-08
-2.67849e-07
7.77566e-08
-2.84259e-07
7.96941e-08
-3.0097e-07
8.14975e-08
-3.17947e-07
8.3151e-08
-3.35153e-07
8.46381e-08
-3.52546e-07
8.59418e-08
-3.70083e-07
8.7045e-08
-3.87716e-07
8.79305e-08
-4.05397e-07
8.85811e-08
-4.23072e-07
8.89801e-08
-4.40686e-07
8.9111e-08
-4.58182e-07
8.89583e-08
-4.755e-07
8.85071e-08
-4.92579e-07
8.77436e-08
-5.09354e-07
8.66552e-08
-5.25763e-07
8.52308e-08
-5.41739e-07
8.34607e-08
-5.57216e-07
8.1337e-08
-5.72129e-07
7.88534e-08
-5.86411e-07
7.6006e-08
-5.99998e-07
7.27925e-08
-6.12824e-07
6.92134e-08
-6.24826e-07
6.52709e-08
-6.35944e-07
6.09701e-08
-6.46118e-07
5.63182e-08
-6.55292e-07
5.13252e-08
-6.63412e-07
4.60033e-08
-6.70428e-07
4.03675e-08
-6.76294e-07
3.44353e-08
-6.80967e-07
2.82266e-08
-6.84408e-07
2.17638e-08
-6.86586e-07
1.50716e-08
-6.87471e-07
8.17723e-09
-6.8704e-07
1.1098e-09
-6.85275e-07
-6.09935e-09
-6.82164e-07
-1.3417e-08
-6.77702e-07
-2.08083e-08
-6.71888e-07
-2.82367e-08
-6.64727e-07
-3.56644e-08
-6.56233e-07
-4.30525e-08
-6.46423e-07
-5.03611e-08
-6.35323e-07
-5.75501e-08
-6.22965e-07
-6.45785e-08
-6.09385e-07
-7.14057e-08
-5.94627e-07
-7.79911e-08
-5.78743e-07
-8.4295e-08
-5.61787e-07
-9.02782e-08
-5.43822e-07
-9.59032e-08
-5.24916e-07
-1.01134e-07
-5.05141e-07
-1.05935e-07
-4.84575e-07
-1.10276e-07
-4.633e-07
-1.14128e-07
-4.41405e-07
-1.17462e-07
-4.18979e-07
-1.20257e-07
-3.96116e-07
-1.22492e-07
-3.72914e-07
-1.24151e-07
-3.49472e-07
-1.25223e-07
-3.2589e-07
-1.257e-07
-3.0227e-07
-1.25577e-07
-2.78716e-07
-1.24856e-07
-2.55327e-07
-1.23543e-07
-2.32207e-07
-1.21647e-07
-2.09454e-07
-1.19182e-07
-1.87165e-07
-1.16169e-07
-1.65434e-07
-1.1263e-07
-1.44352e-07
-1.08592e-07
-1.24003e-07
-1.04087e-07
-1.04468e-07
-9.91488e-08
-8.58235e-08