/*--------------------------------*- C++ -*----------------------------------*\
  =========                 |
  \\      /  F ield         | OpenFOAM: The Open Source CFD Toolbox
   \\    /   O peration     | Website:  https://openfoam.org
    \\  /    A nd           | Version:  12
     \\/     M anipulation  |
\*---------------------------------------------------------------------------*/
FoamFile
{
    format      ascii;
    class       volVectorField;
    location    "5";
    object      U;
}
// * * * * * * * * * * * * * * * * * * * * * * * * * * * * * * * * * * * * * //

dimensions      [0 1 -1 0 0 0 0];

internalField   nonuniform List<vector> 
18225
(
(2.68914e-07 -2.56742e-07 0)
(1.14984e-05 -3.588e-06 0)
(3.45483e-05 -6.0168e-06 0)
(6.48953e-05 -7.07305e-06 0)
(9.7355e-05 -7.21416e-06 0)
(0.00012832 -6.76322e-06 0)
(0.000155363 -5.94536e-06 0)
(0.000176868 -4.91863e-06 0)
(0.000191822 -3.78869e-06 0)
(0.000199644 -2.62379e-06 0)
(0.000200068 -1.46742e-06 0)
(0.00019304 -3.46032e-07 0)
(0.000178651 7.25497e-07 0)
(0.000157084 1.73978e-06 0)
(0.000128574 2.69539e-06 0)
(9.33798e-05 3.59475e-06 0)
(5.17626e-05 4.44143e-06 0)
(3.97209e-06 5.2413e-06 0)
(-4.97633e-05 6.00098e-06 0)
(-0.000109245 6.72859e-06 0)
(-0.000174305 7.43145e-06 0)
(-0.000244806 8.11623e-06 0)
(-0.000320638 8.78865e-06 0)
(-0.000401721 9.45414e-06 0)
(-0.000487996 1.01173e-05 0)
(-0.000579425 1.0782e-05 0)
(-0.000675982 1.14508e-05 0)
(-0.000777652 1.21259e-05 0)
(-0.000884422 1.28081e-05 0)
(-0.000996278 1.34977e-05 0)
(-0.0011132 1.4194e-05 0)
(-0.00123516 1.48959e-05 0)
(-0.0013621 1.56011e-05 0)
(-0.00149397 1.63072e-05 0)
(-0.00163066 1.70107e-05 0)
(-0.00177207 1.7708e-05 0)
(-0.00191805 1.83948e-05 0)
(-0.0020684 1.90663e-05 0)
(-0.00222293 1.97174e-05 0)
(-0.00238137 2.03425e-05 0)
(-0.00254343 2.09358e-05 0)
(-0.00270876 2.14911e-05 0)
(-0.00287701 2.2002e-05 0)
(-0.00304773 2.24619e-05 0)
(-0.00322047 2.28638e-05 0)
(-0.00339471 2.32008e-05 0)
(-0.00356989 2.34658e-05 0)
(-0.00374543 2.36518e-05 0)
(-0.00392067 2.37516e-05 0)
(-0.00409493 2.37584e-05 0)
(-0.0042675 2.36653e-05 0)
(-0.0044376 2.34659e-05 0)
(-0.00460446 2.31539e-05 0)
(-0.00476724 2.27236e-05 0)
(-0.0049251 2.21697e-05 0)
(-0.00507717 2.14878e-05 0)
(-0.00522256 2.06738e-05 0)
(-0.00536037 1.97248e-05 0)
(-0.0054897 1.86385e-05 0)
(-0.00560965 1.74139e-05 0)
(-0.00571933 1.60508e-05 0)
(-0.00581786 1.45506e-05 0)
(-0.00590439 1.29156e-05 0)
(-0.00597811 1.11497e-05 0)
(-0.00603823 9.25754e-06 0)
(-0.00608402 7.24242e-06 0)
(-0.00611483 5.11297e-06 0)
(-0.00612999 2.90224e-06 0)
(-0.0061291 5.77334e-07 0)
(-0.00611159 -1.81405e-06 0)
(-0.00607714 -4.27253e-06 0)
(-0.00602549 -6.78067e-06 0)
(-0.00595648 -9.32164e-06 0)
(-0.00587007 -1.1878e-05 0)
(-0.00576631 -1.44313e-05 0)
(-0.0056454 -1.6962e-05 0)
(-0.00550765 -1.94504e-05 0)
(-0.00535347 -2.1876e-05 0)
(-0.00518344 -2.42183e-05 0)
(-0.00499823 -2.64567e-05 0)
(-0.00479864 -2.85712e-05 0)
(-0.00458558 -3.0542e-05 0)
(-0.0043601 -3.23506e-05 0)
(-0.00412334 -3.39792e-05 0)
(-0.00387653 -3.54118e-05 0)
(-0.00362099 -3.66336e-05 0)
(-0.00335815 -3.76322e-05 0)
(-0.00308946 -3.83968e-05 0)
(-0.00281648 -3.89194e-05 0)
(-0.00254075 -3.91941e-05 0)
(-0.00226389 -3.92176e-05 0)
(-0.00198749 -3.89896e-05 0)
(-0.00171317 -3.85121e-05 0)
(-0.0014425 -3.77901e-05 0)
(-0.00117704 -3.68311e-05 0)
(-0.000918285 -3.56451e-05 0)
(-0.000667668 -3.42446e-05 0)
(-0.000426546 -3.26443e-05 0)
(-0.000196184 -3.08608e-05 0)
(2.22554e-05 -2.89125e-05 0)
(0.00022772 -2.68193e-05 0)
(0.000419279 -2.46022e-05 0)
(0.00059613 -2.22834e-05 0)
(0.000757594 -1.98807e-05 0)
(0.000903132 -1.74193e-05 0)
(0.00103235 -1.4923e-05 0)
(0.00114497 -1.24113e-05 0)
(0.00124086 -9.90445e-06 0)
(0.00132001 -7.4218e-06 0)
(0.00138254 -4.98137e-06 0)
(0.00142867 -2.59964e-06 0)
(0.00145876 -2.91627e-07 0)
(0.00147325 1.92926e-06 0)
(0.00147268 4.0504e-06 0)
(0.00145769 6.06272e-06 0)
(0.00142898 7.95882e-06 0)
(0.00138734 9.72823e-06 0)
(0.00133363 1.13637e-05 0)
(0.00126878 1.28578e-05 0)
(0.00119382 1.42019e-05 0)
(0.00110983 1.5386e-05 0)
(0.00101799 1.6397e-05 0)
(0.000919615 1.72174e-05 0)
(0.000816129 1.78236e-05 0)
(0.000709134 1.81832e-05 0)
(0.000600438 1.8252e-05 0)
(0.000492105 1.79707e-05 0)
(0.000386516 1.72594e-05 0)
(0.000286431 1.60134e-05 0)
(0.000195046 1.41004e-05 0)
(0.000116019 1.13668e-05 0)
(5.33964e-05 7.65751e-06 0)
(1.12156e-05 2.88736e-06 0)
(-7.88374e-06 -2.46405e-06 0)
(-5.57872e-06 -5.57988e-06 0)
(3.62269e-06 -1.14929e-05 0)
(3.61173e-05 -3.59732e-05 0)
(9.05431e-05 -5.31793e-05 0)
(0.000157916 -6.10733e-05 0)
(0.000227946 -6.12767e-05 0)
(0.000293036 -5.58152e-05 0)
(0.000347628 -4.6406e-05 0)
(0.000387734 -3.43841e-05 0)
(0.000410651 -2.07509e-05 0)
(0.00041468 -6.23632e-06 0)
(0.000398889 8.63809e-06 0)
(0.000362895 2.35164e-05 0)
(0.000306718 3.81553e-05 0)
(0.000230644 5.24047e-05 0)
(0.000135131 6.61819e-05 0)
(2.073e-05 7.94547e-05 0)
(-0.000111974 9.22311e-05 0)
(-0.0002624 0.000104541 0)
(-0.00043001 0.000116434 0)
(-0.000614301 0.000127961 0)
(-0.000814842 0.000139182 0)
(-0.00103126 0.000150155 0)
(-0.00126326 0.000160935 0)
(-0.0015106 0.000171572 0)
(-0.00177309 0.000182106 0)
(-0.00205057 0.000192569 0)
(-0.00234292 0.000202984 0)
(-0.00265004 0.00021336 0)
(-0.00297182 0.000223701 0)
(-0.00330814 0.000233997 0)
(-0.00365887 0.00024423 0)
(-0.00402382 0.000254373 0)
(-0.00440278 0.000264389 0)
(-0.00479546 0.000274234 0)
(-0.0052015 0.000283857 0)
(-0.00562048 0.000293199 0)
(-0.00605187 0.000302196 0)
(-0.00649506 0.000310778 0)
(-0.00694934 0.00031887 0)
(-0.00741387 0.000326394 0)
(-0.00788774 0.000333268 0)
(-0.00836988 0.000339407 0)
(-0.00885913 0.000344723 0)
(-0.00935422 0.000349129 0)
(-0.00985372 0.000352535 0)
(-0.0103561 0.000354852 0)
(-0.0108598 0.000355992 0)
(-0.0113629 0.000355869 0)
(-0.0118637 0.000354399 0)
(-0.0123601 0.000351502 0)
(-0.0128502 0.000347103 0)
(-0.0133316 0.000341133 0)
(-0.0138022 0.000333529 0)
(-0.0142597 0.000324234 0)
(-0.0147017 0.000313204 0)
(-0.0151257 0.000300401 0)
(-0.0155294 0.0002858 0)
(-0.0159102 0.000269387 0)
(-0.0162658 0.000251161 0)
(-0.0165937 0.000231136 0)
(-0.0168914 0.00020934 0)
(-0.0171567 0.000185814 0)
(-0.0173872 0.000160618 0)
(-0.0175809 0.000133827 0)
(-0.0177358 0.000105529 0)
(-0.0178499 7.58219e-05 0)
(-0.0179215 4.48134e-05 0)
(-0.0179491 1.28391e-05 0)
(-0.0179315 -2.02514e-05 0)
(-0.0178675 -5.41071e-05 0)
(-0.0177563 -8.8564e-05 0)
(-0.0175973 -0.000123423 0)
(-0.0173902 -0.000158472 0)
(-0.0171351 -0.000193484 0)
(-0.0168323 -0.000228227 0)
(-0.0164823 -0.000262458 0)
(-0.0160862 -0.000295933 0)
(-0.0156453 -0.000328403 0)
(-0.0151611 -0.000359621 0)
(-0.0146355 -0.000389342 0)
(-0.0140708 -0.000417326 0)
(-0.0134695 -0.000443343 0)
(-0.0128346 -0.000467174 0)
(-0.0121689 -0.000488613 0)
(-0.0114761 -0.000507474 0)
(-0.0107595 -0.000523589 0)
(-0.0100231 -0.00053681 0)
(-0.00927073 -0.000547018 0)
(-0.00850657 -0.000554117 0)
(-0.0077348 -0.00055804 0)
(-0.0069597 -0.00055875 0)
(-0.00618558 -0.00055624 0)
(-0.00541672 -0.000550534 0)
(-0.00465738 -0.000541685 0)
(-0.00391171 -0.000529779 0)
(-0.00318375 -0.00051493 0)
(-0.00247736 -0.000497278 0)
(-0.00179623 -0.000476993 0)
(-0.00114379 -0.000454265 0)
(-0.000523217 -0.000429308 0)
(6.25852e-05 -0.000402352 0)
(0.000611032 -0.000373642 0)
(0.00111986 -0.000343433 0)
(0.00158716 -0.000311996 0)
(0.00201135 -0.0002796 0)
(0.00239123 -0.000246511 0)
(0.00272594 -0.000212997 0)
(0.00301497 -0.000179321 0)
(0.00325817 -0.000145736 0)
(0.00345571 -0.000112485 0)
(0.00360811 -7.97977e-05 0)
(0.00371617 -4.78898e-05 0)
(0.003781 -1.69626e-05 0)
(0.00380396 1.27991e-05 0)
(0.00378672 4.12089e-05 0)
(0.00373115 6.81255e-05 0)
(0.00363935 9.33863e-05 0)
(0.00351368 0.000116834 0)
(0.00335671 0.000138315 0)
(0.00317125 0.000157668 0)
(0.00296036 0.000174712 0)
(0.00272736 0.000189239 0)
(0.0024759 0.000200998 0)
(0.00221 0.000209689 0)
(0.0019341 0.000214941 0)
(0.00165313 0.000216299 0)
(0.00137264 0.000213212 0)
(0.00109882 0.00020502 0)
(0.000838632 0.00019097 0)
(0.000599768 0.000170264 0)
(0.00039055 0.000142219 0)
(0.000219526 0.000106632 0)
(9.46206e-05 6.46523e-05 0)
(2.13228e-05 2.12893e-05 0)
(-2.46201e-06 -7.88684e-06 0)
(6.12314e-06 -3.47411e-05 0)
(5.36638e-05 -9.05374e-05 0)
(0.000126761 -0.000126185 0)
(0.000213227 -0.000141174 0)
(0.000299842 -0.000138863 0)
(0.000376892 -0.000123253 0)
(0.000436997 -9.79461e-05 0)
(0.000474633 -6.5914e-05 0)
(0.00048588 -2.94977e-05 0)
(0.00046814 9.51883e-06 0)
(0.000419862 4.98098e-05 0)
(0.000340292 9.0418e-05 0)
(0.000229263 0.000130681 0)
(8.70188e-05 0.000170163 0)
(-8.59267e-05 0.00020861 0)
(-0.000288891 0.000245897 0)
(-0.000521106 0.000281995 0)
(-0.000781784 0.000316948 0)
(-0.00107016 0.000350844 0)
(-0.00138553 0.000383801 0)
(-0.00172727 0.000415952 0)
(-0.00209483 0.000447432 0)
(-0.00248773 0.000478368 0)
(-0.00290559 0.000508872 0)
(-0.00334806 0.00053904 0)
(-0.00381487 0.00056894 0)
(-0.00430575 0.000598618 0)
(-0.00482047 0.000628093 0)
(-0.00535877 0.000657356 0)
(-0.00592038 0.000686375 0)
(-0.00650497 0.000715088 0)
(-0.00711214 0.000743412 0)
(-0.00774144 0.000771238 0)
(-0.00839227 0.000798439 0)
(-0.00906396 0.000824865 0)
(-0.00975568 0.00085035 0)
(-0.0104665 0.000874713 0)
(-0.0111953 0.000897756 0)
(-0.0119407 0.000919271 0)
(-0.0127014 0.000939039 0)
(-0.0134758 0.000956832 0)
(-0.014262 0.000972417 0)
(-0.0150581 0.000985556 0)
(-0.0158618 0.000996008 0)
(-0.016671 0.00100353 0)
(-0.0174829 0.00100789 0)
(-0.018295 0.00100885 0)
(-0.0191043 0.00100618 0)
(-0.0199079 0.000999663 0)
(-0.0207024 0.000989096 0)
(-0.0214846 0.000974286 0)
(-0.0222511 0.00095506 0)
(-0.0229983 0.000931263 0)
(-0.0237224 0.000902764 0)
(-0.0244198 0.000869459 0)
(-0.0250868 0.00083127 0)
(-0.0257194 0.00078815 0)
(-0.0263139 0.000740088 0)
(-0.0268665 0.000687106 0)
(-0.0273735 0.000629264 0)
(-0.0278312 0.000566662 0)
(-0.0282361 0.000499443 0)
(-0.0285849 0.000427788 0)
(-0.0288743 0.000351925 0)
(-0.0291013 0.000272123 0)
(-0.0292632 0.000188688 0)
(-0.0293576 0.000101977 0)
(-0.0293822 1.24483e-05 0)
(-0.0293351 -7.95189e-05 0)
(-0.029215 -0.000173442 0)
(-0.0290208 -0.000268795 0)
(-0.0287516 -0.000365025 0)
(-0.0284074 -0.000461552 0)
(-0.0279882 -0.000557772 0)
(-0.0274948 -0.000653059 0)
(-0.0269282 -0.000746773 0)
(-0.0262901 -0.00083826 0)
(-0.0255826 -0.000926869 0)
(-0.0248082 -0.00101194 0)
(-0.02397 -0.00109285 0)
(-0.0230715 -0.00116895 0)
(-0.0221167 -0.00123965 0)
(-0.02111 -0.00130439 0)
(-0.0200561 -0.00136261 0)
(-0.0189602 -0.00141385 0)
(-0.0178279 -0.00145766 0)
(-0.0166648 -0.00149367 0)
(-0.0154771 -0.00152156 0)
(-0.014271 -0.00154108 0)
(-0.0130529 -0.00155206 0)
(-0.0118292 -0.00155441 0)
(-0.0106066 -0.0015481 0)
(-0.00939147 -0.0015332 0)
(-0.00819041 -0.00150983 0)
(-0.00700971 -0.00147822 0)
(-0.00585553 -0.00143865 0)
(-0.0047338 -0.0013915 0)
(-0.00365015 -0.00133719 0)
(-0.00260991 -0.00127623 0)
(-0.00161798 -0.00120915 0)
(-0.0006789 -0.00113657 0)
(0.000203285 -0.00105913 0)
(0.00102499 -0.000977486 0)
(0.00178314 -0.000892354 0)
(0.00247519 -0.000804439 0)
(0.0030991 -0.000714458 0)
(0.0036534 -0.000623128 0)
(0.00413714 -0.000531154 0)
(0.00454989 -0.000439221 0)
(0.00489176 -0.000347995 0)
(0.00516334 -0.000258107 0)
(0.00536573 -0.000170162 0)
(0.00550047 -8.47267e-05 0)
(0.00556956 -2.33876e-06 0)
(0.00557541 7.64997e-05 0)
(0.00552084 0.000151317 0)
(0.00540906 0.000221648 0)
(0.00524366 0.000287036 0)
(0.00502863 0.000347022 0)
(0.0047683 0.000401124 0)
(0.00446747 0.000448817 0)
(0.00413135 0.000489513 0)
(0.00376562 0.000522532 0)
(0.00337654 0.000547078 0)
(0.00297096 0.000562211 0)
(0.00255645 0.000566821 0)
(0.00214133 0.000559626 0)
(0.00173475 0.000539174 0)
(0.00134671 0.000503924 0)
(0.000987979 0.000452412 0)
(0.000669799 0.000383654 0)
(0.00040329 0.000297928 0)
(0.000198693 0.000198368 0)
(6.48411e-05 9.4633e-05 0)
(2.90552e-06 1.12533e-05 0)
(7.27305e-06 -6.55049e-05 0)
(6.18865e-05 -0.000158319 0)
(0.000142084 -0.00021278 0)
(0.000233051 -0.000232408 0)
(0.000319567 -0.000223173 0)
(0.00039067 -0.000191379 0)
(0.000437965 -0.000142751 0)
(0.000455036 -8.21347e-05 0)
(0.000437207 -1.34494e-05 0)
(0.000381279 6.02301e-05 0)
(0.000285247 0.000136561 0)
(0.000148037 0.000213816 0)
(-3.07147e-05 0.000290763 0)
(-0.000250859 0.000366569 0)
(-0.000511887 0.000440713 0)
(-0.000813067 0.000512917 0)
(-0.00115355 0.000583086 0)
(-0.00153242 0.000651255 0)
(-0.0019488 0.000717551 0)
(-0.00240184 0.000782157 0)
(-0.00289076 0.000845284 0)
(-0.00341487 0.000907152 0)
(-0.00397356 0.000967968 0)
(-0.0045663 0.00102792 0)
(-0.0051926 0.00108715 0)
(-0.00585204 0.00114577 0)
(-0.00654419 0.00120384 0)
(-0.00726865 0.00126138 0)
(-0.00802498 0.00131836 0)
(-0.00881269 0.00137469 0)
(-0.00963122 0.00143024 0)
(-0.0104799 0.00148483 0)
(-0.0113579 0.00153826 0)
(-0.0122644 0.00159025 0)
(-0.0131983 0.00164053 0)
(-0.0141583 0.00168875 0)
(-0.0151429 0.00173457 0)
(-0.0161505 0.00177759 0)
(-0.0171792 0.00181743 0)
(-0.0182269 0.00185366 0)
(-0.0192913 0.00188583 0)
(-0.0203698 0.00191352 0)
(-0.0214596 0.00193626 0)
(-0.0225577 0.0019536 0)
(-0.0236607 0.00196509 0)
(-0.0247651 0.00197028 0)
(-0.0258673 0.00196875 0)
(-0.0269632 0.00196007 0)
(-0.0280488 0.00194385 0)
(-0.0291196 0.00191972 0)
(-0.0301712 0.00188734 0)
(-0.031199 0.0018464 0)
(-0.0321981 0.00179664 0)
(-0.0331638 0.00173785 0)
(-0.034091 0.00166985 0)
(-0.0349748 0.00159254 0)
(-0.0358102 0.00150586 0)
(-0.0365923 0.00140983 0)
(-0.0373162 0.00130453 0)
(-0.0379771 0.00119011 0)
(-0.0385703 0.0010668 0)
(-0.0390914 0.000934899 0)
(-0.039536 0.000794791 0)
(-0.0399003 0.000646935 0)
(-0.0401804 0.000491871 0)
(-0.040373 0.000330218 0)
(-0.0404751 0.000162678 0)
(-0.0404841 -9.94613e-06 0)
(-0.0403978 -0.00018684 0)
(-0.0402145 -0.000367092 0)
(-0.0399331 -0.000549716 0)
(-0.0395528 -0.000733671 0)
(-0.0390736 -0.000917871 0)
(-0.038496 -0.00110118 0)
(-0.0378209 -0.00128245 0)
(-0.0370502 -0.00146047 0)
(-0.0361859 -0.00163405 0)
(-0.0352311 -0.00180197 0)
(-0.0341891 -0.00196305 0)
(-0.0330641 -0.00211611 0)
(-0.0318606 -0.00225999 0)
(-0.0305838 -0.00239361 0)
(-0.0292396 -0.00251591 0)
(-0.027834 -0.00262594 0)
(-0.0263738 -0.00272279 0)
(-0.024866 -0.00280569 0)
(-0.0233181 -0.00287394 0)
(-0.0217378 -0.00292697 0)
(-0.0201332 -0.00296433 0)
(-0.0185124 -0.0029857 0)
(-0.0168838 -0.0029909 0)
(-0.0152558 -0.00297989 0)
(-0.0136367 -0.00295277 0)
(-0.0120349 -0.00290978 0)
(-0.0104585 -0.00285131 0)
(-0.00891547 -0.00277789 0)
(-0.00741345 -0.00269017 0)
(-0.00595976 -0.00258893 0)
(-0.00456131 -0.00247508 0)
(-0.00322456 -0.00234961 0)
(-0.00195543 -0.00221362 0)
(-0.000759316 -0.00206828 0)
(0.000359012 -0.00191483 0)
(0.0013954 -0.00175454 0)
(0.00234634 -0.00158874 0)
(0.00320902 -0.00141876 0)
(0.00398128 -0.00124593 0)
(0.00466166 -0.00107157 0)
(0.00524938 -0.000896977 0)
(0.00574435 -0.000723407 0)
(0.00614711 -0.000552074 0)
(0.00645885 -0.000384135 0)
(0.00668139 -0.000220689 0)
(0.00681714 -6.27912e-05 0)
(0.00686907 8.85622e-05 0)
(0.00684075 0.000232424 0)
(0.00673624 0.000367872 0)
(0.00656016 0.000493994 0)
(0.00631763 0.000609865 0)
(0.00601434 0.000714528 0)
(0.0056565 0.000806958 0)
(0.00525093 0.000886025 0)
(0.00480505 0.000950458 0)
(0.00432698 0.000998802 0)
(0.00382558 0.00102939 0)
(0.00331048 0.00104031 0)
(0.00279222 0.00102943 0)
(0.00228216 0.000994443 0)
(0.00179252 0.000933011 0)
(0.00133623 0.000843091 0)
(0.000926565 0.00072355 0)
(0.000576607 0.000575271 0)
(0.000298967 0.000403122 0)
(0.000107131 0.00021984 0)
(7.71152e-06 5.35978e-05 0)
(7.49804e-06 -9.85445e-05 0)
(6.20857e-05 -0.000228715 0)
(0.000139046 -0.000299142 0)
(0.000221807 -0.000318654 0)
(0.00029396 -0.00029658 0)
(0.00034383 -0.00024186 0)
(0.000362503 -0.000162486 0)
(0.000343127 -6.52661e-05 0)
(0.000280647 4.42105e-05 0)
(0.000171535 0.000161488 0)
(1.3519e-05 0.000283114 0)
(-0.000194674 0.000406489 0)
(-0.00045355 0.00052973 0)
(-0.000763043 0.000651532 0)
(-0.00112268 0.000771057 0)
(-0.00153174 0.000887832 0)
(-0.00198932 0.00100166 0)
(-0.00249447 0.00111254 0)
(-0.00304621 0.00122063 0)
(-0.00364361 0.00132616 0)
(-0.0042858 0.00142942 0)
(-0.00497196 0.00153071 0)
(-0.00570137 0.00163029 0)
(-0.00647336 0.00172844 0)
(-0.00728731 0.00182534 0)
(-0.00814264 0.00192112 0)
(-0.00903874 0.00201586 0)
(-0.00997502 0.00210954 0)
(-0.0109508 0.00220209 0)
(-0.0119654 0.00229333 0)
(-0.0130179 0.00238304 0)
(-0.0141073 0.00247093 0)
(-0.0152326 0.0025566 0)
(-0.0163923 0.00263965 0)
(-0.017585 0.00271957 0)
(-0.0188089 0.00279584 0)
(-0.0200619 0.00286787 0)
(-0.0213419 0.00293505 0)
(-0.0226464 0.00299671 0)
(-0.0239724 0.0030522 0)
(-0.025317 0.0031008 0)
(-0.0266768 0.00314181 0)
(-0.0280481 0.00317451 0)
(-0.0294271 0.00319819 0)
(-0.0308094 0.00321214 0)
(-0.0321906 0.00321568 0)
(-0.033566 0.00320812 0)
(-0.0349306 0.00318883 0)
(-0.0362792 0.00315722 0)
(-0.0376064 0.00311271 0)
(-0.0389066 0.00305482 0)
(-0.0401742 0.00298309 0)
(-0.0414032 0.00289716 0)
(-0.0425877 0.00279672 0)
(-0.0437218 0.00268157 0)
(-0.0447994 0.00255157 0)
(-0.0458147 0.00240671 0)
(-0.0467615 0.00224706 0)
(-0.0476343 0.0020728 0)
(-0.0484272 0.00188423 0)
(-0.0491349 0.00168176 0)
(-0.0497521 0.00146592 0)
(-0.0502739 0.00123738 0)
(-0.0506957 0.000996895 0)
(-0.0510133 0.000745373 0)
(-0.0512228 0.00048383 0)
(-0.051321 0.000213404 0)
(-0.0513049 -6.4646e-05 0)
(-0.0511723 -0.000348979 0)
(-0.0509214 -0.000638139 0)
(-0.050551 -0.000930573 0)
(-0.0500607 -0.00122465 0)
(-0.0494505 -0.00151865 0)
(-0.0487214 -0.00181082 0)
(-0.0478747 -0.00209935 0)
(-0.0469126 -0.00238238 0)
(-0.0458381 -0.00265805 0)
(-0.0446546 -0.0029245 0)
(-0.0433666 -0.00317989 0)
(-0.0419789 -0.0034224 0)
(-0.0404971 -0.00365028 0)
(-0.0389275 -0.00386185 0)
(-0.0372769 -0.00405551 0)
(-0.0355527 -0.00422977 0)
(-0.0337628 -0.00438328 0)
(-0.0319156 -0.00451483 0)
(-0.0300199 -0.00462336 0)
(-0.028085 -0.004708 0)
(-0.0261201 -0.00476805 0)
(-0.0241351 -0.00480302 0)
(-0.0221397 -0.00481263 0)
(-0.0201438 -0.0047968 0)
(-0.0181574 -0.00475567 0)
(-0.0161903 -0.00468962 0)
(-0.0142521 -0.0045992 0)
(-0.0123523 -0.00448522 0)
(-0.0105 -0.00434867 0)
(-0.00870402 -0.00419073 0)
(-0.00697256 -0.00401276 0)
(-0.00531343 -0.00381629 0)
(-0.00373384 -0.00360299 0)
(-0.00224034 -0.00337466 0)
(-0.00083883 -0.0031332 0)
(0.00046553 -0.00288059 0)
(0.00166833 -0.00261887 0)
(0.00276594 -0.0023501 0)
(0.00375552 -0.00207638 0)
(0.00463505 -0.00179977 0)
(0.0054033 -0.00152232 0)
(0.00605987 -0.00124603 0)
(0.00660513 -0.000972823 0)
(0.00704023 -0.000704563 0)
(0.00736709 -0.000443044 0)
(0.00758838 -0.000189975 0)
(0.00770744 5.30244e-05 0)
(0.00772835 0.000284365 0)
(0.00765586 0.000502528 0)
(0.00749537 0.000706005 0)
(0.00725295 0.000893266 0)
(0.00693534 0.00106274 0)
(0.00654997 0.00121277 0)
(0.00610494 0.00134156 0)
(0.00560913 0.00144712 0)
(0.00507216 0.00152723 0)
(0.00450449 0.00157942 0)
(0.00391744 0.00160092 0)
(0.00332321 0.00158871 0)
(0.00273486 0.00153964 0)
(0.00216629 0.00145061 0)
(0.00163208 0.00131906 0)
(0.00114721 0.00114364 0)
(0.000726646 0.000925528 0)
(0.000385722 0.000670343 0)
(0.00014315 0.0003916 0)
(1.14681e-05 0.000116583 0)
(7.08547e-06 -0.000130006 0)
(5.59423e-05 -0.000293381 0)
(0.000120785 -0.000374305 0)
(0.000184242 -0.000387206 0)
(0.000229552 -0.000345181 0)
(0.000244791 -0.000260044 0)
(0.000220902 -0.000142164 0)
(0.000150941 -3.55425e-07 0)
(2.97681e-05 0.000158103 0)
(-0.000146228 0.000327353 0)
(-0.000379403 0.000502801 0)
(-0.000671104 0.000680949 0)
(-0.0010219 0.000859226 0)
(-0.00143176 0.00103582 0)
(-0.00190026 0.00120955 0)
(-0.00242666 0.00137972 0)
(-0.00301006 0.001546 0)
(-0.00364947 0.00170835 0)
(-0.00434389 0.00186692 0)
(-0.00509231 0.00202199 0)
(-0.0058938 0.0021739 0)
(-0.00674746 0.00232301 0)
(-0.00765245 0.00246967 0)
(-0.00860799 0.00261418 0)
(-0.00961332 0.00275676 0)
(-0.0106677 0.00289756 0)
(-0.0117703 0.00303661 0)
(-0.0129203 0.00317386 0)
(-0.0141169 0.00330914 0)
(-0.015359 0.0034422 0)
(-0.0166454 0.00357264 0)
(-0.0179747 0.00370001 0)
(-0.0193456 0.00382374 0)
(-0.0207561 0.00394319 0)
(-0.0222043 0.00405763 0)
(-0.0236878 0.00416626 0)
(-0.0252041 0.00426824 0)
(-0.0267503 0.00436266 0)
(-0.0283233 0.00444856 0)
(-0.0299194 0.00452498 0)
(-0.0315349 0.0045909 0)
(-0.0331655 0.00464532 0)
(-0.0348069 0.0046872 0)
(-0.0364541 0.00471554 0)
(-0.0381021 0.00472934 0)
(-0.0397454 0.00472763 0)
(-0.0413784 0.00470949 0)
(-0.0429952 0.00467402 0)
(-0.0445894 0.00462042 0)
(-0.0461549 0.00454794 0)
(-0.047685 0.0044559 0)
(-0.049173 0.00434373 0)
(-0.0506121 0.00421096 0)
(-0.0519954 0.00405723 0)
(-0.0533162 0.00388232 0)
(-0.0545674 0.00368611 0)
(-0.0557423 0.00346864 0)
(-0.0568342 0.0032301 0)
(-0.0578366 0.00297084 0)
(-0.0587431 0.00269134 0)
(-0.0595476 0.00239227 0)
(-0.0602445 0.00207446 0)
(-0.0608282 0.0017389 0)
(-0.0612938 0.00138677 0)
(-0.0616367 0.0010194 0)
(-0.0618528 0.000638283 0)
(-0.0619387 0.000245076 0)
(-0.0618914 -0.000158406 0)
(-0.0617084 -0.000570219 0)
(-0.0613882 -0.000988278 0)
(-0.0609297 -0.00141037 0)
(-0.0603325 -0.00183419 0)
(-0.0595973 -0.00225731 0)
(-0.0587249 -0.00267726 0)
(-0.0577175 -0.00309148 0)
(-0.0565777 -0.00349739 0)
(-0.0553089 -0.0038924 0)
(-0.0539154 -0.00427391 0)
(-0.052402 -0.00463935 0)
(-0.0507746 -0.00498621 0)
(-0.0490396 -0.00531206 0)
(-0.0472039 -0.00561457 0)
(-0.0452755 -0.00589152 0)
(-0.0432626 -0.00614087 0)
(-0.0411743 -0.00636074 0)
(-0.0390199 -0.00654945 0)
(-0.0368094 -0.00670554 0)
(-0.034553 -0.00682778 0)
(-0.0322614 -0.00691522 0)
(-0.0299455 -0.00696716 0)
(-0.0276163 -0.00698319 0)
(-0.025285 -0.00696319 0)
(-0.0229627 -0.00690734 0)
(-0.0206605 -0.00681612 0)
(-0.0183894 -0.0066903 0)
(-0.01616 -0.00653094 0)
(-0.0139827 -0.00633941 0)
(-0.0118676 -0.00611732 0)
(-0.00982402 -0.00586653 0)
(-0.00786106 -0.00558914 0)
(-0.00598701 -0.00528746 0)
(-0.0042095 -0.00496398 0)
(-0.00253546 -0.00462132 0)
(-0.000971004 -0.00426227 0)
(0.000478567 -0.00388965 0)
(0.00180882 -0.00350639 0)
(0.00301622 -0.00311541 0)
(0.00409812 -0.00271966 0)
(0.00505279 -0.00232204 0)
(0.00587941 -0.00192541 0)
(0.00657808 -0.00153255 0)
(0.0071498 -0.00114616 0)
(0.00759645 -0.00076883 0)
(0.00792074 -0.000403067 0)
(0.0081263 -5.12975e-05 0)
(0.00821751 0.000284168 0)
(0.00819961 0.000601065 0)
(0.00807859 0.000897159 0)
(0.00786125 0.00117019 0)
(0.00755518 0.00141784 0)
(0.00716875 0.00163772 0)
(0.00671113 0.00182726 0)
(0.00619231 0.00198367 0)
(0.00562316 0.0021039 0)
(0.0050154 0.00218459 0)
(0.00438165 0.00222209 0)
(0.00373543 0.00221251 0)
(0.00309116 0.00215185 0)
(0.00246407 0.00203626 0)
(0.00187014 0.00186256 0)
(0.00132594 0.00162898 0)
(0.000848389 0.00133639 0)
(0.000455712 0.000990009 0)
(0.000171685 0.000602121 0)
(1.42494e-05 0.00019622 0)
(6.2288e-06 -0.000157042 0)
(4.48522e-05 -0.000345588 0)
(9.01026e-05 -0.000429042 0)
(0.000124649 -0.000427184 0)
(0.000132162 -0.000356972 0)
(0.00010092 -0.000233189 0)
(2.20576e-05 -6.86316e-05 0)
(-0.000111174 0.000125882 0)
(-0.000303749 0.0003414 0)
(-0.000559151 0.000570683 0)
(-0.000879649 0.000808017 0)
(-0.00126654 0.00104901 0)
(-0.00172035 0.00129042 0)
(-0.00224106 0.00152993 0)
(-0.00282821 0.00176598 0)
(-0.00348106 0.00199766 0)
(-0.00419871 0.0022245 0)
(-0.00498016 0.0024464 0)
(-0.00582437 0.0026635 0)
(-0.00673031 0.0028761 0)
(-0.00769698 0.00308459 0)
(-0.00872341 0.00328938 0)
(-0.00980869 0.00349085 0)
(-0.0109519 0.00368933 0)
(-0.0121521 0.00388504 0)
(-0.0134085 0.00407812 0)
(-0.01472 0.00426854 0)
(-0.0160856 0.00445618 0)
(-0.017504 0.00464074 0)
(-0.018974 0.00482182 0)
(-0.0204941 0.00499885 0)
(-0.0220624 0.00517118 0)
(-0.0236771 0.00533798 0)
(-0.0253358 0.00549836 0)
(-0.0270361 0.00565132 0)
(-0.0287751 0.00579574 0)
(-0.0305495 0.00593047 0)
(-0.0323559 0.00605426 0)
(-0.0341903 0.00616583 0)
(-0.0360485 0.00626386 0)
(-0.0379259 0.00634699 0)
(-0.0398175 0.00641388 0)
(-0.041718 0.00646315 0)
(-0.0436217 0.00649348 0)
(-0.0455227 0.00650355 0)
(-0.0474145 0.00649211 0)
(-0.0492907 0.00645795 0)
(-0.0511444 0.00639995 0)
(-0.0529686 0.00631706 0)
(-0.0547558 0.00620834 0)
(-0.0564988 0.00607299 0)
(-0.0581899 0.00591031 0)
(-0.0598216 0.00571976 0)
(-0.0613861 0.00550095 0)
(-0.0628758 0.00525366 0)
(-0.0642832 0.00497786 0)
(-0.0656007 0.00467368 0)
(-0.0668209 0.00434148 0)
(-0.067937 0.00398181 0)
(-0.0689418 0.00359543 0)
(-0.0698291 0.00318332 0)
(-0.0705925 0.00274666 0)
(-0.0712264 0.00228687 0)
(-0.0717256 0.00180558 0)
(-0.0720851 0.00130462 0)
(-0.072301 0.000786042 0)
(-0.0723695 0.000252093 0)
(-0.0722878 -0.000294786 0)
(-0.0720534 -0.000851979 0)
(-0.071665 -0.0014167 0)
(-0.0711216 -0.00198603 0)
(-0.0704232 -0.00255689 0)
(-0.0695705 -0.0031261 0)
(-0.068565 -0.00369039 0)
(-0.067409 -0.00424644 0)
(-0.0661057 -0.00479086 0)
(-0.064659 -0.00532026 0)
(-0.0630736 -0.00583126 0)
(-0.0613552 -0.00632053 0)
(-0.05951 -0.0067848 0)
(-0.0575451 -0.00722092 0)
(-0.0554684 -0.00762585 0)
(-0.0532882 -0.00799675 0)
(-0.0510139 -0.00833094 0)
(-0.0486551 -0.008626 0)
(-0.0462221 -0.00887973 0)
(-0.0437257 -0.00909024 0)
(-0.0411771 -0.00925593 0)
(-0.038588 -0.00937554 0)
(-0.03597 -0.00944814 0)
(-0.0333353 -0.00947318 0)
(-0.0306961 -0.00945047 0)
(-0.0280645 -0.00938022 0)
(-0.0254526 -0.009263 0)
(-0.0228726 -0.00909979 0)
(-0.0203361 -0.00889192 0)
(-0.0178547 -0.00864112 0)
(-0.0154394 -0.00834944 0)
(-0.0131007 -0.00801928 0)
(-0.0108487 -0.00765334 0)
(-0.00869278 -0.00725458 0)
(-0.00664154 -0.00682623 0)
(-0.00470288 -0.00637171 0)
(-0.00288384 -0.00589463 0)
(-0.00119058 -0.0053987 0)
(0.000371652 -0.00488776 0)
(0.00179859 -0.00436567 0)
(0.00308693 -0.00383633 0)
(0.00423438 -0.00330361 0)
(0.00523965 -0.00277132 0)
(0.00610245 -0.0022432 0)
(0.00682351 -0.00172291 0)
(0.00740455 -0.00121398 0)
(0.00784825 -0.000719811 0)
(0.00815827 -0.000243724 0)
(0.0083392 0.000211075 0)
(0.00839657 0.000641465 0)
(0.00833684 0.00104438 0)
(0.00816732 0.00141668 0)
(0.00789621 0.00175525 0)
(0.00753263 0.00205684 0)
(0.00708657 0.00231801 0)
(0.00656892 0.00253511 0)
(0.00599151 0.00270418 0)
(0.00536706 0.00282098 0)
(0.00470923 0.00288093 0)
(0.00403262 0.00287924 0)
(0.00335271 0.00281104 0)
(0.0026859 0.00267167 0)
(0.00204946 0.00245717 0)
(0.00146147 0.00216498 0)
(0.000940828 0.00179505 0)
(0.000508557 0.00135117 0)
(0.000192883 0.000842932 0)
(1.62004e-05 0.000288473 0)
(5.05974e-06 -0.000177466 0)
(2.98757e-05 -0.000379814 0)
(4.92821e-05 -0.000455455 0)
(4.66465e-05 -0.000429057 0)
(6.7576e-06 -0.000321294 0)
(-8.14756e-05 -0.000149896 0)
(-0.000226407 6.99567e-05 0)
(-0.00043433 0.000325482 0)
(-0.000709827 0.000606112 0)
(-0.00105607 0.000903286 0)
(-0.00147508 0.00121022 0)
(-0.00196798 0.00152169 0)
(-0.00253517 0.00183378 0)
(-0.00317655 0.0021437 0)
(-0.00389159 0.00244958 0)
(-0.00467955 0.00275025 0)
(-0.00553948 0.00304512 0)
(-0.00647038 0.00333403 0)
(-0.00747119 0.00361708 0)
(-0.00854084 0.00389461 0)
(-0.00967829 0.00416701 0)
(-0.0108825 0.00443473 0)
(-0.0121525 0.00469817 0)
(-0.0134873 0.00495765 0)
(-0.0148857 0.00521337 0)
(-0.0163468 0.00546541 0)
(-0.0178693 0.00571366 0)
(-0.0194518 0.00595788 0)
(-0.021093 0.00619761 0)
(-0.0227912 0.00643226 0)
(-0.0245444 0.00666105 0)
(-0.0263506 0.00688305 0)
(-0.0282072 0.00709718 0)
(-0.0301115 0.00730224 0)
(-0.0320604 0.00749688 0)
(-0.0340504 0.00767966 0)
(-0.0360778 0.00784906 0)
(-0.0381383 0.00800346 0)
(-0.0402274 0.00814122 0)
(-0.0423399 0.00826061 0)
(-0.0444706 0.00835993 0)
(-0.0466137 0.00843744 0)
(-0.048763 0.00849143 0)
(-0.0509121 0.00852023 0)
(-0.0530541 0.00852219 0)
(-0.0551818 0.00849575 0)
(-0.057288 0.00843944 0)
(-0.0593648 0.0083519 0)
(-0.0614043 0.00823187 0)
(-0.0633986 0.00807824 0)
(-0.0653394 0.00789007 0)
(-0.0672184 0.00766659 0)
(-0.0690273 0.00740722 0)
(-0.0707577 0.00711156 0)
(-0.0724013 0.00677948 0)
(-0.07395 0.00641102 0)
(-0.0753958 0.00600652 0)
(-0.0767309 0.00556652 0)
(-0.0779477 0.00509185 0)
(-0.079039 0.00458359 0)
(-0.0799981 0.00404308 0)
(-0.0808185 0.00347196 0)
(-0.0814943 0.00287209 0)
(-0.0820202 0.00224563 0)
(-0.0823911 0.00159499 0)
(-0.0826031 0.000922813 0)
(-0.0826524 0.000232004 0)
(-0.0825362 -0.000474314 0)
(-0.0822524 -0.0011928 0)
(-0.0817995 -0.00191994 0)
(-0.0811769 -0.002652 0)
(-0.0803849 -0.00338514 0)
(-0.0794243 -0.00411536 0)
(-0.078297 -0.00483858 0)
(-0.0770057 -0.00555061 0)
(-0.0755539 -0.00624727 0)
(-0.073946 -0.00692432 0)
(-0.072187 -0.00757756 0)
(-0.0702832 -0.00820287 0)
(-0.0682412 -0.00879618 0)
(-0.0660686 -0.00935359 0)
(-0.0637739 -0.00987135 0)
(-0.061366 -0.0103459 0)
(-0.0588548 -0.010774 0)
(-0.0562506 -0.0111525 0)
(-0.0535644 -0.0114788 0)
(-0.0508077 -0.0117504 0)
(-0.0479923 -0.0119655 0)
(-0.0451306 -0.0121223 0)
(-0.0422353 -0.0122198 0)
(-0.0393191 -0.0122571 0)
(-0.0363951 -0.012234 0)
(-0.0334764 -0.0121508 0)
(-0.0305759 -0.012008 0)
(-0.0277067 -0.0118068 0)
(-0.0248814 -0.0115488 0)
(-0.0221125 -0.0112362 0)
(-0.0194119 -0.0108713 0)
(-0.0167913 -0.0104572 0)
(-0.0142616 -0.00999705 0)
(-0.0118331 -0.00949462 0)
(-0.00951545 -0.00895386 0)
(-0.00731744 -0.00837901 0)
(-0.00524701 -0.00777454 0)
(-0.00331118 -0.00714512 0)
(-0.001516 -0.00649554 0)
(0.000133496 -0.00583067 0)
(0.00163331 -0.00515543 0)
(0.00298053 -0.00447474 0)
(0.00417332 -0.00379346 0)
(0.00521093 -0.0031164 0)
(0.00609373 -0.00244824 0)
(0.00682316 -0.00179355 0)
(0.00740176 -0.00115679 0)
(0.00783311 -0.00054225 0)
(0.00812186 4.58673e-05 0)
(0.00827366 0.000603434 0)
(0.00829519 0.00112641 0)
(0.00819426 0.00161083 0)
(0.0079795 0.00205251 0)
(0.00766047 0.00244735 0)
(0.00724785 0.00279096 0)
(0.00675322 0.00307872 0)
(0.00618915 0.00330575 0)
(0.00556916 0.00346685 0)
(0.00490776 0.00355652 0)
(0.0042204 0.00356902 0)
(0.00352351 0.00349854 0)
(0.00283452 0.00333948 0)
(0.00217188 0.0030869 0)
(0.00155514 0.0027371 0)
(0.00100506 0.00228852 0)
(0.000545196 0.00174272 0)
(0.000207393 0.00110575 0)
(1.74678e-05 0.000389666 0)
(3.66351e-06 -0.000189561 0)
(1.17936e-05 -0.000391509 0)