/*--------------------------------*- C++ -*----------------------------------*\
  =========                 |
  \\      /  F ield         | OpenFOAM: The Open Source CFD Toolbox
   \\    /   O peration     | Website:  https://openfoam.org
    \\  /    A nd           | Version:  12
     \\/     M anipulation  |
\*---------------------------------------------------------------------------*/
FoamFile
{
    format      ascii;
    class       volScalarField;
    location    "5";
    object      epsilon;
}
// * * * * * * * * * * * * * * * * * * * * * * * * * * * * * * * * * * * * * //

dimensions      [0 2 -3 0 0 0 0];

internalField   nonuniform List<scalar> 
5625
(
2.44141e-10
1.21887e-09
2.65988e-09
4.37593e-09
6.27636e-09
8.30368e-09
1.04147e-08
1.25746e-08
1.4754e-08
1.69285e-08
1.90773e-08
2.11832e-08
2.32328e-08
2.52155e-08
2.7124e-08
2.89537e-08
3.07027e-08
3.23711e-08
3.39606e-08
3.54744e-08
3.69161e-08
3.829e-08
3.95998e-08
4.08489e-08
4.20399e-08
4.31742e-08
4.42519e-08
4.52719e-08
4.62317e-08
4.71275e-08
4.79543e-08
4.8706e-08
4.93755e-08
4.99551e-08
5.04364e-08
5.08106e-08
5.10688e-08
5.12003e-08
5.12049e-08
5.10713e-08
5.07926e-08
5.03634e-08
4.97801e-08
4.90408e-08
4.81454e-08
4.70959e-08
4.58963e-08
4.45527e-08
4.30734e-08
4.14685e-08
3.97501e-08
3.79318e-08
3.60286e-08
3.40564e-08
3.20318e-08
2.99716e-08
2.78924e-08
2.58104e-08
2.37409e-08
2.1698e-08
1.96945e-08
1.77416e-08
1.58488e-08
1.40239e-08
1.22734e-08
1.06022e-08
9.01443e-09
7.51322e-09
6.10192e-09
4.78477e-09
3.56805e-09
2.46221e-09
1.48608e-09
6.78269e-10
1.35727e-10
1.22035e-09
9.9426e-10
1.49162e-09
2.22567e-09
3.08333e-09
4.01711e-09
4.99917e-09
6.00975e-09
7.03339e-09
8.05751e-09
9.07173e-09
1.00676e-08
1.10382e-08
1.19785e-08
1.28848e-08
1.37546e-08
1.45869e-08
1.53815e-08
1.61391e-08
1.68609e-08
1.75486e-08
1.82039e-08
1.88286e-08
1.94242e-08
1.99916e-08
2.05315e-08
2.10439e-08
2.15281e-08
2.1983e-08
2.24067e-08
2.27968e-08
2.31504e-08
2.34643e-08
2.37347e-08
2.39577e-08
2.41294e-08
2.42456e-08
2.43015e-08
2.42969e-08
2.42267e-08
2.40879e-08
2.38781e-08
2.35957e-08
2.324e-08
2.28111e-08
2.23101e-08
2.1739e-08
2.11007e-08
2.03992e-08
1.96393e-08
1.88266e-08
1.79676e-08
1.70691e-08
1.61386e-08
1.51836e-08
1.42121e-08
1.32317e-08
1.22498e-08
1.12736e-08
1.03097e-08
9.36401e-09
8.44177e-09
7.54751e-09
6.68504e-09
5.8575e-09
5.06746e-09
4.31717e-09
3.60854e-09
2.94384e-09
2.32619e-09
1.76065e-09
1.25667e-09
8.34855e-10
5.53025e-10
6.77836e-10
2.67636e-09
1.50207e-09
1.53715e-09
1.89929e-09
2.41215e-09
3.0102e-09
3.6603e-09
4.34206e-09
5.04115e-09
5.7467e-09
6.45011e-09
7.14449e-09
7.82439e-09
8.4856e-09
9.12504e-09
9.74064e-09
1.03312e-08
1.08963e-08
1.14361e-08
1.19511e-08
1.24423e-08
1.29106e-08
1.3357e-08
1.37822e-08
1.4187e-08
1.45715e-08
1.49356e-08
1.52787e-08
1.55999e-08
1.58978e-08
1.61708e-08
1.64166e-08
1.66332e-08
1.68179e-08
1.69681e-08
1.70811e-08
1.71538e-08
1.71838e-08
1.71705e-08
1.71108e-08
1.70027e-08
1.68449e-08
1.66367e-08
1.63775e-08
1.60679e-08
1.57088e-08
1.53016e-08
1.48487e-08
1.43527e-08
1.38172e-08
1.32461e-08
1.26436e-08
1.20145e-08
1.13639e-08
1.0697e-08
1.00189e-08
9.33485e-09
8.64995e-09
7.96898e-09
7.29643e-09
6.63637e-09
5.9925e-09
5.36803e-09
4.7658e-09
4.18824e-09
3.63758e-09
3.11596e-09
2.62566e-09
2.16968e-09
1.7525e-09
1.38179e-09
1.07232e-09
8.57154e-10
8.31257e-10
1.4811e-09
4.44077e-09
2.26367e-09
1.92291e-09
2.03034e-09
2.3336e-09
2.7447e-09
3.22163e-09
3.74008e-09
4.28397e-09
4.84171e-09
5.40447e-09
5.96532e-09
6.51877e-09
7.06059e-09
7.58757e-09
8.0974e-09
8.58859e-09
9.0603e-09
9.51223e-09
9.94448e-09
1.03574e-08
1.07516e-08
1.11274e-08
1.14853e-08
1.18257e-08
1.21484e-08
1.24532e-08
1.27395e-08
1.30065e-08
1.32529e-08
1.34773e-08
1.3678e-08
1.38531e-08
1.40007e-08
1.41187e-08
1.4205e-08
1.42566e-08
1.42728e-08
1.42527e-08
1.41939e-08
1.40952e-08
1.39557e-08
1.37749e-08
1.35528e-08
1.32899e-08
1.29871e-08
1.26458e-08
1.22679e-08
1.18558e-08
1.14122e-08
1.09405e-08
1.0444e-08
9.92676e-09
9.39263e-09
8.84579e-09
8.29042e-09
7.73067e-09
7.17057e-09
6.61396e-09
6.06447e-09
5.52544e-09
4.99992e-09
4.4907e-09
4.0003e-09
3.53108e-09
3.08538e-09
2.66573e-09
2.27517e-09
1.91793e-09
1.60052e-09
1.33398e-09
1.13931e-09
1.06323e-09
1.24331e-09
2.44166e-09
6.44706e-09
3.17631e-09
2.47881e-09
2.37237e-09
2.51462e-09
2.79252e-09
3.15384e-09
3.56935e-09
4.02035e-09
4.49369e-09
4.97949e-09
5.47008e-09
5.95941e-09
6.44271e-09
6.91629e-09
7.3774e-09
7.82406e-09
8.25498e-09
8.66941e-09
9.06702e-09
9.44775e-09
9.81171e-09
1.01591e-08
1.049e-08
1.08045e-08
1.11023e-08
1.13831e-08
1.16462e-08
1.18907e-08
1.21156e-08
1.23194e-08
1.25007e-08
1.26578e-08
1.27891e-08
1.28927e-08
1.29668e-08
1.30085e-08
1.30183e-08
1.29948e-08
1.29362e-08
1.28413e-08
1.27095e-08
1.25406e-08
1.23345e-08
1.20918e-08
1.18134e-08
1.15005e-08
1.1155e-08
1.07791e-08
1.03752e-08
9.94626e-09
9.49552e-09
9.02643e-09
8.54261e-09
8.04782e-09
7.54584e-09
7.04043e-09
6.53525e-09
6.03381e-09
5.53943e-09
5.0552e-09
4.584e-09
4.12851e-09
3.69127e-09
3.2748e-09
2.88177e-09
2.51525e-09
2.17922e-09
1.87926e-09
1.62392e-09
1.42771e-09
1.31804e-09
1.35595e-09
1.72759e-09
3.51196e-09
8.66379e-09
4.20407e-09
3.14619e-09
2.84232e-09
2.84668e-09
3.01732e-09
3.2912e-09
3.63383e-09
4.02324e-09
4.44403e-09
4.88508e-09
5.33764e-09
5.79474e-09
6.25084e-09
6.70156e-09
7.1435e-09
7.57415e-09
7.99168e-09
8.39489e-09
8.78303e-09
9.15566e-09
9.51259e-09
9.8537e-09
1.01789e-08
1.0488e-08
1.07806e-08
1.10564e-08
1.13145e-08
1.15542e-08
1.17742e-08
1.19734e-08
1.21502e-08
1.23033e-08
1.24309e-08
1.25315e-08
1.26034e-08
1.26436e-08
1.26529e-08
1.26304e-08
1.25738e-08
1.24821e-08
1.23547e-08
1.21913e-08
1.19919e-08
1.17569e-08
1.14871e-08
1.11837e-08
1.08485e-08
1.04834e-08
1.00911e-08
9.67423e-09
9.23611e-09
8.78012e-09
8.3099e-09
7.82922e-09
7.34188e-09
6.85167e-09
6.3623e-09
5.87732e-09
5.40011e-09
4.93383e-09
4.48146e-09
4.04582e-09
3.62966e-09
3.23579e-09
2.8673e-09
2.5279e-09
2.22244e-09
1.95782e-09
1.74472e-09
1.60104e-09
1.56056e-09
1.69986e-09
2.25923e-09
4.66326e-09
1.10743e-08
5.33105e-09
3.89937e-09
3.40313e-09
3.28169e-09
3.36026e-09
3.56344e-09
3.85058e-09
4.19656e-09
4.5841e-09
5.00021e-09
5.43466e-09
5.87934e-09
6.32771e-09
6.77454e-09
7.21573e-09
7.64809e-09
8.06927e-09
8.47759e-09
8.87189e-09
9.25142e-09
9.61571e-09
9.96443e-09
1.02973e-08
1.0614e-08
1.09142e-08
1.11972e-08
1.14625e-08
1.17089e-08
1.19356e-08
1.21412e-08
1.23243e-08
1.24836e-08
1.26173e-08
1.2724e-08
1.2802e-08
1.28482e-08
1.28627e-08
1.28455e-08
1.27938e-08
1.27066e-08
1.25831e-08
1.24227e-08
1.22252e-08
1.1991e-08
1.17207e-08
1.14154e-08
1.10768e-08
1.07068e-08
1.0308e-08
9.8833e-09
9.43611e-09
8.97006e-09
8.48904e-09
7.9971e-09
7.4984e-09
6.99706e-09
6.49713e-09
6.00249e-09
5.51686e-09
5.0437e-09
4.5863e-09
4.14778e-09
3.73123e-09
3.33984e-09
2.97718e-09
2.64761e-09
2.35688e-09
2.11317e-09
1.92916e-09
1.82614e-09
1.84458e-09
2.07788e-09
2.8245e-09
5.87512e-09
1.36692e-08
6.54924e-09
4.72551e-09
4.0359e-09
3.79458e-09
3.79029e-09
3.93385e-09
4.17812e-09
4.49411e-09
4.86189e-09
5.26649e-09
5.69632e-09
6.14203e-09
6.59599e-09
7.052e-09
7.50514e-09
7.95152e-09
8.38821e-09
8.81304e-09
9.22449e-09
9.62149e-09
1.00034e-08
1.03696e-08
1.07198e-08
1.10536e-08
1.13705e-08
1.16699e-08
1.19513e-08
1.22135e-08
1.24557e-08
1.26765e-08
1.28746e-08
1.30484e-08
1.31965e-08
1.3317e-08
1.34082e-08
1.34675e-08
1.34925e-08
1.34855e-08
1.34426e-08
1.33625e-08
1.3244e-08
1.30862e-08
1.28888e-08
1.26517e-08
1.23754e-08
1.20608e-08
1.17095e-08
1.13235e-08
1.09055e-08
1.04586e-08
9.98644e-09
9.49313e-09
8.98299e-09
8.46062e-09
7.93074e-09
7.39807e-09
6.86724e-09
6.34273e-09
5.8288e-09
5.32945e-09
4.84843e-09
4.38934e-09
3.9557e-09
3.55118e-09
3.17989e-09
2.84681e-09
2.55857e-09
2.32464e-09
2.15962e-09
2.08824e-09
2.15801e-09
2.48019e-09
3.41434e-09
7.13207e-09
1.64433e-08
7.85421e-09
5.61754e-09
4.73009e-09
4.3709e-09
4.28972e-09
4.38135e-09
4.59169e-09
4.8875e-09
5.24598e-09
5.65012e-09
6.08654e-09
6.54441e-09
7.01486e-09
7.49063e-09
7.96587e-09
8.43599e-09
8.89743e-09
9.34757e-09
9.78454e-09
1.0207e-08
1.06141e-08
1.10053e-08
1.13801e-08
1.1738e-08
1.20787e-08
1.24016e-08
1.2706e-08
1.29911e-08
1.32558e-08
1.34988e-08
1.37188e-08
1.39142e-08
1.40832e-08
1.4224e-08
1.43346e-08
1.44128e-08
1.44543e-08
1.44613e-08
1.44312e-08
1.43611e-08
1.42494e-08
1.4095e-08
1.38969e-08
1.36549e-08
1.3369e-08
1.30401e-08
1.26695e-08
1.22595e-08
1.18128e-08
1.13327e-08
1.08235e-08
1.02895e-08
9.73592e-09
9.16791e-09
8.59097e-09
8.01062e-09
7.43232e-09
6.86133e-09
6.30266e-09
5.76103e-09
5.24084e-09
4.74629e-09
4.28147e-09
3.8506e-09
3.45836e-09
3.11043e-09
2.81427e-09
2.58059e-09
2.426e-09
2.37872e-09
2.49361e-09
2.90053e-09
4.02233e-09
8.42224e-09
1.93932e-08
9.2433e-09
6.57127e-09
5.47927e-09
5.00202e-09
4.84755e-09
4.89287e-09
5.0763e-09
5.35986e-09
5.71757e-09
6.13004e-09
6.58196e-09
7.06085e-09
7.55645e-09
8.06033e-09
8.56569e-09
9.06715e-09
9.56057e-09
1.00429e-08
1.05119e-08
1.0966e-08
1.14044e-08
1.18264e-08
1.22315e-08
1.26193e-08
1.29896e-08
1.33417e-08
1.36751e-08
1.3989e-08
1.42823e-08
1.45538e-08
1.48019e-08
1.50251e-08
1.52212e-08
1.53883e-08
1.55241e-08
1.56261e-08
1.56903e-08
1.57148e-08
1.57011e-08
1.5644e-08
1.55414e-08
1.53915e-08
1.51929e-08
1.49449e-08
1.46473e-08
1.43007e-08
1.39063e-08
1.34664e-08
1.29839e-08
1.24625e-08
1.19067e-08
1.13217e-08
1.07131e-08
1.00871e-08
9.45008e-09
8.80845e-09
8.16868e-09
7.537e-09
6.91937e-09
6.32138e-09
5.7483e-09
5.20504e-09
4.69641e-09
4.22727e-09
3.80294e-09
3.4298e-09
3.11623e-09
2.87416e-09
2.72228e-09
2.6923e-09
2.84678e-09
3.33473e-09
4.64384e-09
9.7367e-09
2.25165e-08
1.07146e-08
7.58391e-09
6.27928e-09
5.68233e-09
5.45661e-09
5.45991e-09
5.62215e-09
5.90015e-09
6.26439e-09
6.69281e-09
7.16791e-09
7.67542e-09
8.20354e-09
8.74259e-09
9.28476e-09
9.82386e-09
1.03551e-08
1.08751e-08
1.13814e-08
1.18723e-08
1.23467e-08
1.28041e-08
1.32442e-08
1.36666e-08
1.4071e-08
1.44572e-08
1.48246e-08
1.51723e-08
1.54994e-08
1.58045e-08
1.60861e-08
1.63423e-08
1.65709e-08
1.67695e-08
1.69353e-08
1.70656e-08
1.71573e-08
1.72036e-08
1.72089e-08
1.71677e-08
1.70764e-08
1.69324e-08
1.6734e-08
1.64799e-08
1.61696e-08
1.58034e-08
1.53825e-08
1.49089e-08
1.43857e-08
1.3817e-08
1.32077e-08
1.25636e-08
1.18911e-08
1.11972e-08
1.04893e-08
9.77499e-09
9.06175e-09
8.357e-09
7.66779e-09
7.0008e-09
6.36229e-09
5.7581e-09
5.19387e-09
4.67522e-09
4.20824e-09
3.80007e-09
3.46001e-09
3.2013e-09
3.04483e-09
3.02577e-09
3.21464e-09
3.78004e-09
5.27564e-09
1.10691e-08
2.58105e-08
1.22665e-08
8.65337e-09
7.12721e-09
6.40803e-09
6.11178e-09
6.07668e-09
6.22252e-09
6.50078e-09
6.87801e-09
7.32912e-09
7.83422e-09
8.37703e-09
8.9441e-09
9.5244e-09
1.0109e-08
1.0691e-08
1.1265e-08
1.18272e-08
1.23749e-08
1.29064e-08
1.34207e-08
1.39173e-08
1.4396e-08
1.48566e-08
1.52991e-08
1.57232e-08
1.61284e-08
1.65141e-08
1.68792e-08
1.72223e-08
1.75416e-08
1.78352e-08
1.81005e-08
1.83347e-08
1.85347e-08
1.86972e-08
1.88188e-08
1.88926e-08
1.89179e-08
1.88954e-08
1.88175e-08
1.86812e-08
1.84843e-08
1.82249e-08
1.79021e-08
1.75158e-08
1.70671e-08
1.65579e-08
1.59913e-08
1.53717e-08
1.47043e-08
1.39955e-08
1.32525e-08
1.24832e-08
1.16959e-08
1.08994e-08
1.01025e-08
9.31384e-09
8.54174e-09
7.79416e-09
7.07853e-09
6.40183e-09
5.77068e-09
5.19166e-09
4.67169e-09
4.21883e-09
3.84337e-09
3.55992e-09
3.39168e-09
3.3773e-09
3.59549e-09
4.23478e-09
5.91573e-09
1.24155e-08
2.92721e-08
1.38971e-08
9.77775e-09
8.02072e-09
7.17612e-09
6.80964e-09
6.73893e-09
6.87256e-09
7.15629e-09
7.55229e-09
8.03218e-09
8.57339e-09
9.15745e-09
9.7691e-09
1.03959e-08
1.10278e-08
1.1657e-08
1.22777e-08
1.28857e-08
1.34781e-08
1.40533e-08
1.46104e-08
1.51489e-08
1.5669e-08
1.61706e-08
1.6654e-08
1.71189e-08
1.7565e-08
1.79917e-08
1.83979e-08
1.87821e-08
1.91425e-08
1.94766e-08
1.97817e-08
2.00546e-08
2.02917e-08
2.04891e-08
2.0643e-08
2.07476e-08
2.0795e-08
2.0793e-08
2.07306e-08
2.06041e-08
2.04105e-08
2.01474e-08
1.98134e-08
1.94082e-08
1.89323e-08
1.83877e-08
1.77773e-08
1.71055e-08
1.6378e-08
1.56014e-08
1.47838e-08
1.39337e-08
1.30607e-08
1.21746e-08
1.12855e-08
1.04035e-08
9.53835e-09
8.69948e-09
7.89572e-09
7.13534e-09
6.42623e-09
5.77605e-09
5.19279e-09
4.68552e-09
4.26567e-09
3.94929e-09
3.76206e-09
3.74614e-09
3.9886e-09
4.69824e-09
6.56326e-09
1.37742e-08
3.28968e-08
1.56041e-08
1.09551e-08
8.95768e-09
7.98418e-09
7.54744e-09
7.44339e-09
7.56852e-09
7.86241e-09
8.28248e-09
8.79667e-09
9.37949e-09
1.00101e-08
1.06712e-08
1.1349e-08
1.20322e-08
1.27122e-08
1.33827e-08
1.40392e-08
1.46788e-08
1.52998e-08
1.59016e-08
1.64841e-08
1.70474e-08
1.75919e-08
1.81179e-08
1.86256e-08
1.91145e-08
1.95842e-08
2.00335e-08
2.04608e-08
2.08641e-08
2.12406e-08
2.15873e-08
2.19006e-08
2.21764e-08
2.24105e-08
2.25983e-08
2.27346e-08
2.28089e-08
2.28266e-08
2.27822e-08
2.26678e-08
2.24798e-08
2.22156e-08
2.18732e-08
2.14517e-08
2.09512e-08
2.03734e-08
1.97211e-08
1.89985e-08
1.82114e-08
1.73667e-08
1.64729e-08
1.55394e-08
1.45765e-08
1.35954e-08
1.26074e-08
1.16242e-08
1.0657e-08
9.71704e-09
8.81469e-09
7.95982e-09
7.16179e-09
6.42965e-09
5.77263e-09
5.20101e-09
4.72753e-09
4.36982e-09
4.15617e-09
4.13237e-09
4.394e-09
5.17042e-09
7.21828e-09
1.51454e-08
3.66788e-08
1.73847e-08
1.21831e-08
9.93599e-09
8.83e-09
8.32277e-09
8.18733e-09
8.3073e-09
8.61564e-09
9.06457e-09
9.61805e-09
1.02474e-08
1.09292e-08
1.16441e-08
1.23766e-08
1.31144e-08
1.38479e-08
1.45705e-08
1.52773e-08
1.59656e-08
1.66339e-08
1.72815e-08
1.79088e-08
1.85163e-08
1.91045e-08
1.96741e-08
2.02252e-08
2.07577e-08
2.12711e-08
2.17641e-08
2.22351e-08
2.26817e-08
2.31011e-08
2.34898e-08
2.38439e-08
2.41589e-08
2.44301e-08
2.46525e-08
2.48207e-08
2.49244e-08
2.49623e-08
2.4938e-08
2.48382e-08
2.4659e-08
2.43971e-08
2.40502e-08
2.36167e-08
2.30963e-08
2.249e-08
2.18001e-08
2.10307e-08
2.01874e-08
1.9277e-08
1.83084e-08
1.72914e-08
1.62371e-08
1.51579e-08
1.40663e-08
1.29755e-08
1.18987e-08
1.08487e-08
9.83791e-09
8.87804e-09
7.98021e-09
7.15514e-09
6.41361e-09
5.76738e-09
5.23066e-09
4.82287e-09
4.57504e-09
4.53681e-09
4.81236e-09
5.65202e-09
7.88169e-09
1.6531e-08
4.06104e-08
1.92351e-08
1.34592e-08
1.09534e-08
9.7114e-09
9.13335e-09
8.96823e-09
9.08609e-09
9.41276e-09
9.89489e-09
1.04921e-08
1.11724e-08
1.19093e-08
1.26816e-08
1.34719e-08
1.42666e-08
1.50557e-08
1.58318e-08
1.65901e-08
1.73277e-08
1.80435e-08
1.87372e-08
1.94093e-08
2.00608e-08
2.06925e-08
2.13052e-08
2.18994e-08
2.24749e-08
2.30313e-08
2.35673e-08
2.4081e-08
2.45701e-08
2.50312e-08
2.54608e-08
2.58545e-08
2.62077e-08
2.65154e-08
2.6772e-08
2.69718e-08
2.71063e-08
2.71656e-08
2.71626e-08
2.70802e-08
2.69134e-08
2.66584e-08
2.63123e-08
2.58727e-08
2.53388e-08
2.47107e-08
2.39903e-08
2.31809e-08
2.22876e-08
2.13171e-08
2.02779e-08
1.91803e-08
1.8036e-08
1.6858e-08
1.56604e-08
1.44577e-08
1.32651e-08
1.20973e-08
1.0969e-08
9.89396e-09
8.88552e-09
7.95642e-09
7.11931e-09
6.38774e-09
5.7777e-09
5.3106e-09
5.02043e-09
4.96094e-09
5.245e-09
6.14433e-09
8.5552e-09
1.79345e-08
4.46819e-08
2.11508e-08
1.47802e-08
1.20073e-08
1.06261e-08
9.97689e-09
9.78365e-09
9.90212e-09
1.02506e-08
1.07698e-08
1.14148e-08
1.21496e-08
1.29451e-08
1.37775e-08
1.46279e-08
1.54814e-08
1.63271e-08
1.71573e-08
1.79671e-08
1.87539e-08
1.95167e-08
2.02556e-08
2.09715e-08
2.16657e-08
2.23395e-08
2.29938e-08
2.36292e-08
2.42459e-08
2.48432e-08
2.54198e-08
2.59739e-08
2.65027e-08
2.7003e-08
2.74709e-08
2.79018e-08
2.8291e-08
2.86331e-08
2.89223e-08
2.91525e-08
2.93175e-08
2.94025e-08
2.94195e-08
2.93578e-08
2.92076e-08
2.89648e-08
2.86257e-08
2.81875e-08
2.76483e-08
2.70075e-08
2.62659e-08
2.54259e-08
2.44918e-08
2.34696e-08
2.23675e-08
2.11954e-08
1.99654e-08
1.86911e-08
1.73875e-08
1.60709e-08
1.47581e-08
1.34662e-08
1.22121e-08
1.10124e-08
9.88269e-09
8.83831e-09
7.89422e-09
7.06611e-09
6.37211e-09
5.83593e-09
5.49472e-09
5.40678e-09
5.6937e-09
6.64921e-09
9.24117e-09
1.9361e-08
4.88817e-08
2.31265e-08
1.61425e-08
1.30949e-08
1.15715e-08
1.0851e-08
1.0631e-08
1.07525e-08
1.1126e-08
1.16856e-08
1.23816e-08
1.31741e-08
1.40307e-08
1.49254e-08
1.58373e-08
1.67504e-08
1.7653e-08
1.85371e-08
1.93978e-08
2.02326e-08
2.10408e-08
2.1823e-08
2.25807e-08
2.33152e-08
2.40284e-08
2.47214e-08
2.53951e-08
2.60495e-08
2.66841e-08
2.72976e-08
2.78881e-08
2.84527e-08
2.89881e-08
2.94902e-08
2.99546e-08
3.03762e-08
3.07498e-08
3.10693e-08
3.13288e-08
3.15222e-08
3.16355e-08
3.16727e-08
3.16348e-08
3.15056e-08
3.12808e-08
3.0956e-08
3.05277e-08
2.9993e-08
2.93501e-08
2.85987e-08
2.77401e-08
2.67771e-08
2.57148e-08
2.45603e-08
2.33232e-08
2.20152e-08
2.06501e-08
1.92438e-08
1.78138e-08
1.63788e-08
1.49582e-08
1.35716e-08
1.22383e-08
1.09772e-08
9.80635e-09
8.74357e-09
7.80725e-09
7.01806e-09
6.40241e-09
6.00087e-09
5.87686e-09
6.16072e-09
7.1689e-09
9.94251e-09
2.08163e-08
5.31958e-08
2.51555e-08
1.75417e-08
1.42129e-08
1.25449e-08
1.17528e-08
1.15074e-08
1.16342e-08
1.20352e-08
1.26381e-08
1.33878e-08
1.42403e-08
1.51601e-08
1.61184e-08
1.70925e-08
1.80652e-08
1.90242e-08
1.9961e-08
2.08708e-08
2.17514e-08
2.26025e-08
2.34253e-08
2.42213e-08
2.49928e-08
2.57415e-08
2.64691e-08
2.71765e-08
2.7864e-08
2.8531e-08
2.91762e-08
2.97978e-08
3.03928e-08
3.09578e-08
3.1489e-08
3.19819e-08
3.24316e-08
3.28327e-08
3.31794e-08
3.34659e-08
3.36862e-08
3.38291e-08
3.38878e-08
3.38759e-08
3.37722e-08
3.35714e-08
3.32685e-08
3.28592e-08
3.23396e-08
3.17066e-08
3.09586e-08
3.00951e-08
2.91175e-08
2.80294e-08
2.68365e-08
2.55471e-08
2.41721e-08
2.27253e-08
2.12229e-08
1.96832e-08
1.81268e-08
1.65753e-08
1.50511e-08
1.35769e-08
1.21747e-08
1.08664e-08
9.67314e-09
8.61651e-09
7.72033e-09
7.01417e-09
6.54233e-09
6.37414e-09
6.64868e-09
7.70605e-09
1.06625e-08
2.23073e-08
5.76082e-08
2.72306e-08
1.8973e-08
1.53576e-08
1.3543e-08
1.26796e-08
1.24099e-08
1.25438e-08
1.29745e-08
1.36228e-08
1.44281e-08
1.53424e-08
1.63263e-08
1.73487e-08
1.83849e-08
1.94164e-08
2.04302e-08
2.14177e-08
2.23741e-08
2.32974e-08
2.4188e-08
2.50472e-08
2.58775e-08
2.66811e-08
2.74604e-08
2.82173e-08
2.89528e-08
2.96674e-08
3.03606e-08
3.10312e-08
3.16773e-08
3.22962e-08
3.28846e-08
3.34387e-08
3.39543e-08
3.44268e-08
3.48509e-08
3.52211e-08
3.55318e-08
3.5777e-08
3.59497e-08
3.60343e-08
3.60475e-08
3.59738e-08
3.58029e-08
3.55296e-08
3.51486e-08
3.4655e-08
3.40444e-08
3.33137e-08
3.24605e-08
3.14844e-08
3.0387e-08
2.91721e-08
2.78462e-08
2.6419e-08
2.49032e-08
2.33149e-08
2.1673e-08
1.99992e-08
1.83174e-08
1.6653e-08
1.5032e-08
1.34806e-08
1.20244e-08
1.06889e-08
9.49963e-09
8.48413e-09
7.67576e-09
7.12296e-09
6.90194e-09
7.16051e-09
8.26353e-09
1.14049e-08
2.38415e-08
6.21006e-08
2.93433e-08
2.0431e-08
1.65248e-08
1.45626e-08
1.3628e-08
1.3335e-08
1.34774e-08
1.39394e-08
1.46346e-08
1.5497e-08
1.64736e-08
1.75221e-08
1.86081e-08
1.97054e-08
2.0794e-08
2.18603e-08
2.28955e-08
2.3895e-08
2.48571e-08
2.57826e-08
2.66735e-08
2.75325e-08
2.83627e-08
2.91665e-08
2.99463e-08
3.07032e-08
3.14379e-08
3.21501e-08
3.28387e-08
3.35021e-08
3.41376e-08
3.47423e-08
3.53127e-08
3.58449e-08
3.63346e-08
3.67768e-08
3.71666e-08
3.74987e-08
3.77674e-08
3.7967e-08
3.80827e-08
3.81203e-08
3.80805e-08
3.79449e-08
3.77081e-08
3.73641e-08
3.69071e-08
3.63313e-08
3.56318e-08
3.48045e-08
3.38469e-08
3.27581e-08
3.15397e-08
3.01958e-08
2.87341e-08
2.71658e-08
2.55057e-08
2.37728e-08
2.19896e-08
2.01818e-08
1.83775e-08
1.66065e-08
1.48991e-08
1.32858e-08
1.17969e-08
1.04625e-08
9.31496e-09
8.39209e-09
7.74692e-09
7.46386e-09
7.69936e-09
8.8444e-09
1.21733e-08
2.54263e-08
6.66528e-08
3.14843e-08
2.19095e-08
1.77101e-08
1.55996e-08
1.45943e-08
1.4279e-08
1.44309e-08
1.49252e-08
1.56682e-08
1.65879e-08
1.7627e-08
1.87393e-08
1.98878e-08
2.10441e-08
2.21874e-08
2.3303e-08
2.43821e-08
2.54203e-08
2.64163e-08
2.73714e-08
2.82881e-08
2.91698e-08
3.00198e-08
3.08413e-08
3.16366e-08
3.24074e-08
3.31545e-08
3.38779e-08
3.45767e-08
3.52495e-08
3.58941e-08
3.65079e-08
3.70877e-08
3.76303e-08
3.81316e-08
3.85874e-08
3.89929e-08
3.93435e-08
3.96339e-08
3.98589e-08
4.00079e-08
4.00718e-08
4.00677e-08
3.99719e-08
3.97776e-08
3.94782e-08
3.9067e-08
3.85371e-08
3.78819e-08
3.70956e-08
3.61732e-08
3.51114e-08
3.3909e-08
3.25675e-08
3.10916e-08
2.94902e-08
2.77764e-08
2.5968e-08
2.40876e-08
2.21621e-08
2.0222e-08
1.83007e-08
1.64331e-08
1.46551e-08
1.30024e-08
1.15109e-08
1.02184e-08
9.16824e-09
8.41863e-09
8.06374e-09
8.26853e-09
9.45179e-09
1.29715e-08
2.70694e-08
7.12425e-08
3.36434e-08
2.34019e-08
1.89084e-08
1.665e-08
1.55747e-08
1.52377e-08
1.53998e-08
1.59268e-08
1.67174e-08
1.76941e-08
1.87947e-08
1.99693e-08
2.11781e-08
2.23909e-08
2.35853e-08
2.47462e-08
2.58647e-08
2.69364e-08
2.79606e-08
2.89391e-08
2.98752e-08
3.07725e-08
3.16352e-08
3.24667e-08
3.32697e-08
3.40464e-08
3.47978e-08
3.55242e-08
3.62252e-08
3.68997e-08
3.7546e-08
3.81618e-08
3.87447e-08
3.92919e-08
3.97999e-08
4.02649e-08
4.06828e-08
4.10494e-08
4.13598e-08
4.16089e-08
4.17906e-08
4.18899e-08
4.19169e-08
4.18649e-08
4.17178e-08
4.14691e-08
4.11112e-08
4.06364e-08
4.00367e-08
3.93045e-08
3.84327e-08
3.74154e-08
3.62484e-08
3.49301e-08
3.3462e-08
3.18496e-08
3.01033e-08
2.82388e-08
2.62778e-08
2.42474e-08
2.21799e-08
2.0112e-08
1.80833e-08
1.61353e-08
1.43099e-08
1.265e-08
1.11998e-08
1.00092e-08
9.14266e-09
8.7055e-09
8.87138e-09
1.00888e-08
1.38033e-08
2.87781e-08
7.58459e-08
3.58097e-08
2.49012e-08
2.01145e-08
1.77093e-08
1.65649e-08
1.62067e-08
1.6379e-08
1.69383e-08
1.77759e-08
1.88083e-08
1.99685e-08
2.1203e-08
2.24692e-08
2.37347e-08
2.4976e-08
2.61775e-08
2.733e-08
2.84294e-08
2.94756e-08
3.04708e-08
3.1419e-08
3.23246e-08
3.31922e-08
3.40256e-08
3.48283e-08
3.56027e-08
3.63502e-08
3.70718e-08
3.77673e-08
3.84361e-08
3.90772e-08
3.96888e-08
4.02693e-08
4.08163e-08
4.13269e-08
4.17979e-08
4.22258e-08
4.26068e-08
4.29364e-08
4.32099e-08
4.34218e-08
4.35615e-08
4.36208e-08
4.36136e-08
4.35169e-08
4.33229e-08
4.30237e-08
4.26106e-08
4.20748e-08
4.1407e-08
4.05984e-08
3.96408e-08
3.8527e-08
3.7252e-08
3.58137e-08
3.42136e-08
3.24585e-08
3.05608e-08
2.854e-08
2.64222e-08
2.42405e-08
2.20343e-08
1.98474e-08
1.77272e-08
1.57227e-08
1.38843e-08
1.22642e-08
1.09198e-08
9.92369e-09
9.39313e-09
9.51125e-09
1.07585e-08
1.4672e-08
3.0559e-08
8.04377e-08
3.79717e-08
2.63997e-08
2.13226e-08
1.87727e-08
1.75603e-08
1.71812e-08
1.73635e-08
1.79541e-08
1.88369e-08
1.99226e-08
2.11398e-08
2.24308e-08
2.37505e-08
2.50644e-08
2.63477e-08
2.75843e-08
2.87649e-08
2.98857e-08
3.0947e-08
3.19518e-08
3.29047e-08
3.38108e-08
3.46753e-08
3.55027e-08
3.6297e-08
3.70611e-08
3.77971e-08
3.85062e-08
3.91892e-08
3.9846e-08
4.04761e-08
4.10787e-08
4.16525e-08
4.21958e-08
4.27064e-08
4.31816e-08
4.36184e-08
4.40133e-08
4.43622e-08
4.46604e-08
4.49024e-08
4.50821e-08
4.51849e-08
4.52162e-08
4.51723e-08
4.50354e-08
4.47977e-08
4.44502e-08
4.39832e-08
4.33867e-08
4.26503e-08
4.17638e-08
4.07176e-08
3.95035e-08
3.81154e-08
3.65506e-08
3.48112e-08
3.29056e-08
3.08492e-08
2.8666e-08
2.63884e-08
2.4057e-08
2.17195e-08
1.9429e-08
1.72419e-08
1.52171e-08
1.34158e-08
1.19048e-08
1.07659e-08
1.01304e-08
1.01913e-08
1.14637e-08
1.55807e-08
3.24182e-08
8.49914e-08
4.01171e-08
2.78895e-08
2.25268e-08
1.9835e-08
1.85561e-08
1.81563e-08
1.83475e-08
1.89676e-08
1.98932e-08
2.10292e-08
2.22995e-08
2.3643e-08
2.50115e-08
2.63686e-08
2.76884e-08
2.89541e-08
3.01564e-08
3.12917e-08
3.2361e-08
3.3368e-08
3.4318e-08
3.52169e-08
3.60705e-08
3.68841e-08
3.76624e-08
3.84088e-08
3.91263e-08
3.98167e-08
4.04813e-08
4.1121e-08
4.17359e-08
4.23258e-08
4.28903e-08
4.34283e-08
4.3938e-08
4.44174e-08
4.48637e-08
4.52736e-08
4.56432e-08
4.59679e-08
4.62422e-08
4.646e-08
4.66127e-08
4.6685e-08
4.66917e-08
4.66129e-08
4.64375e-08
4.61565e-08
4.57599e-08
4.52373e-08
4.45775e-08
4.37689e-08
4.28e-08
4.16599e-08
4.03389e-08
3.883e-08
3.71302e-08
3.52423e-08
3.3177e-08
3.0954e-08
2.86033e-08
2.61652e-08
2.369e-08
2.12356e-08
1.88662e-08
1.66498e-08
1.46579e-08
1.29682e-08
1.16734e-08
1.09206e-08
1.09146e-08
1.2207e-08
1.65322e-08
3.43608e-08
8.94798e-08
4.22336e-08
2.93626e-08
2.3721e-08
2.08912e-08
1.95473e-08
1.91268e-08
1.93256e-08
1.99726e-08
2.09376e-08
2.21199e-08
2.34388e-08
2.48297e-08
2.62416e-08
2.76362e-08
2.89864e-08
3.02747e-08
3.14919e-08
3.26348e-08
3.3705e-08
3.47067e-08
3.56463e-08
3.65304e-08
3.73658e-08
3.81584e-08
3.89137e-08
3.96361e-08
4.03291e-08
4.09955e-08
4.16375e-08
4.22565e-08
4.28536e-08
4.34293e-08
4.39839e-08
4.45168e-08
4.50268e-08
4.55121e-08
4.59704e-08
4.63983e-08
4.67919e-08
4.71464e-08
4.7456e-08
4.77144e-08
4.79145e-08
4.80423e-08
4.80925e-08
4.80719e-08
4.79584e-08
4.77426e-08
4.7415e-08
4.69649e-08
4.63812e-08
4.56517e-08
4.47641e-08
4.37053e-08
4.24629e-08
4.10258e-08
3.93859e-08
3.75402e-08
3.54929e-08
3.3258e-08
3.08608e-08
2.83394e-08
2.57446e-08
2.31383e-08
2.05915e-08
1.81819e-08
1.59925e-08
1.41133e-08
1.26502e-08
1.17663e-08
1.1684e-08
1.29907e-08
1.75287e-08
3.63906e-08
9.38753e-08
4.43083e-08
3.08105e-08
2.48987e-08
2.19357e-08
2.05288e-08
2.00873e-08
2.02917e-08
2.09626e-08
2.19627e-08
2.31864e-08
2.45486e-08
2.59811e-08
2.74303e-08
2.88561e-08
3.02301e-08
3.15344e-08
3.27596e-08
3.39031e-08
3.49669e-08
3.59563e-08
3.68784e-08
3.77408e-08
3.85511e-08
3.93164e-08
4.00429e-08
4.0736e-08
4.14e-08
4.20388e-08
4.26552e-08
4.32518e-08
4.38304e-08
4.43923e-08
4.49383e-08
4.54684e-08
4.59818e-08
4.64771e-08
4.69519e-08
4.74028e-08
4.78256e-08
4.8215e-08
4.85648e-08
4.88681e-08
4.91171e-08
4.93032e-08
4.94082e-08
4.94376e-08
4.93856e-08
4.92329e-08
4.89705e-08
4.85884e-08
4.80759e-08
4.74213e-08
4.66123e-08
4.56351e-08
4.44757e-08
4.31197e-08
4.15547e-08
3.97713e-08
3.7767e-08
3.55481e-08
3.31334e-08
3.05562e-08
2.78652e-08
2.51242e-08
2.24102e-08
1.98102e-08
1.74194e-08
1.53419e-08
1.36988e-08
1.26708e-08
1.25018e-08
1.38167e-08
1.85719e-08
3.85105e-08
9.81505e-08
4.63288e-08
3.22249e-08
2.60536e-08
2.2963e-08
2.14953e-08
2.10324e-08
2.12402e-08
2.1931e-08
2.29614e-08
2.42208e-08
2.562e-08
2.70877e-08
2.85677e-08
3.0018e-08
3.1409e-08
3.27223e-08
3.39487e-08
3.50859e-08
3.61365e-08
3.71069e-08
3.80049e-08
3.88394e-08
3.96189e-08
4.03515e-08
4.10445e-08
4.17043e-08
4.23363e-08
4.29453e-08
4.35353e-08
4.41095e-08
4.46707e-08
4.52209e-08
4.57615e-08
4.6293e-08
4.68151e-08
4.73262e-08
4.7824e-08
4.83049e-08
4.87641e-08
4.91959e-08
4.95931e-08
4.99479e-08
5.02518e-08
5.04955e-08
5.06664e-08
5.07461e-08
5.07521e-08
5.06609e-08
5.04594e-08
5.01388e-08
4.96893e-08
4.91007e-08
4.83615e-08
4.74589e-08
4.63786e-08
4.51048e-08
4.36214e-08
4.19141e-08
3.99728e-08
3.77955e-08
3.53924e-08
3.27892e-08
3.00297e-08
2.71769e-08
2.43114e-08
2.15288e-08
1.89367e-08
1.66546e-08
1.4821e-08
1.36364e-08
1.33702e-08
1.46865e-08
1.9663e-08
4.07222e-08
1.02278e-07
4.82824e-08
3.35975e-08
2.71792e-08
2.39677e-08
2.24417e-08
2.1957e-08
2.21653e-08
2.28715e-08
2.39266e-08
2.52153e-08
2.66449e-08
2.81407e-08
2.96444e-08
3.1112e-08
3.25131e-08
3.38287e-08
3.50495e-08
3.61738e-08
3.7205e-08
3.81502e-08
3.90185e-08
3.98197e-08
4.05636e-08
4.12595e-08
4.19157e-08
4.25397e-08
4.31382e-08
4.3717e-08
4.42809e-08
4.48344e-08
4.5381e-08
4.59234e-08
4.64635e-08
4.70023e-08
4.75396e-08
4.80741e-08
4.86031e-08
4.91227e-08
4.96277e-08
5.01112e-08
5.05655e-08
5.09814e-08
5.1349e-08
5.16576e-08
5.18959e-08
5.20442e-08
5.20986e-08
5.20669e-08
5.19231e-08
5.16573e-08
5.12611e-08
5.0726e-08
5.0043e-08
4.92012e-08
4.8188e-08
4.69879e-08
4.55834e-08
4.39565e-08
4.20906e-08
3.99752e-08
3.76101e-08
3.5011e-08
3.22135e-08
2.92762e-08
2.62805e-08
2.33284e-08
2.05398e-08
1.80504e-08
1.60177e-08
1.46648e-08
1.42908e-08
1.56014e-08
2.08024e-08
4.30261e-08
1.06232e-07
5.01571e-08
3.49201e-08
2.82693e-08
2.49443e-08
2.33627e-08
2.28556e-08
2.30615e-08
2.37782e-08
2.48517e-08
2.61628e-08
2.76153e-08
2.91318e-08
3.06517e-08
3.21295e-08
3.35336e-08
3.48448e-08
3.60537e-08
3.7159e-08
3.8165e-08
3.90799e-08
3.99136e-08
4.06774e-08
4.13822e-08
4.20384e-08
4.26559e-08
4.32431e-08
4.3808e-08
4.43575e-08
4.48975e-08
4.54333e-08
4.59693e-08
4.65089e-08
4.70546e-08
4.76076e-08
4.8168e-08
4.87343e-08
4.93038e-08
4.98721e-08
5.04333e-08
5.09797e-08
5.15025e-08
5.19911e-08
5.2434e-08
5.28185e-08
5.31316e-08
5.33594e-08
5.34741e-08
5.34963e-08
5.34083e-08
5.31915e-08
5.28392e-08
5.23443e-08
5.17006e-08
5.09007e-08
4.99351e-08
4.87911e-08
4.74524e-08
4.58993e-08
4.4111e-08
4.20689e-08
3.97623e-08
3.71948e-08
3.43904e-08
3.13993e-08
2.82996e-08
2.5197e-08
2.22218e-08
1.95261e-08
1.72886e-08
1.57568e-08
1.52646e-08
1.65619e-08
2.19903e-08
4.54213e-08
1.09988e-07
5.19412e-08
3.61848e-08
2.93175e-08
2.58874e-08
2.42535e-08
2.37234e-08
2.39235e-08
2.46454e-08
2.57307e-08
2.70566e-08
2.85242e-08
3.00536e-08
3.15821e-08
3.30628e-08
3.44631e-08
3.57634e-08
3.69545e-08
3.80355e-08
3.90115e-08
3.98915e-08
4.0687e-08
4.14103e-08
4.20736e-08
4.26887e-08
4.32667e-08
4.38174e-08
4.43499e-08
4.48722e-08
4.53914e-08
4.59136e-08
4.6444e-08
4.69866e-08
4.75445e-08
4.81191e-08
4.87107e-08
4.93178e-08
4.99374e-08
5.05646e-08
5.1193e-08
5.1814e-08
5.24175e-08
5.29915e-08
5.35226e-08
5.39963e-08
5.43973e-08
5.47108e-08
5.49098e-08
5.4986e-08
5.49571e-08
5.47894e-08
5.44747e-08
5.40087e-08
5.33875e-08
5.26079e-08
5.16653e-08
5.0552e-08
4.92555e-08
4.77581e-08
4.60373e-08
4.40688e-08
4.18322e-08
3.93176e-08
3.65351e-08
3.35219e-08
3.03483e-08
2.71193e-08
2.39729e-08
2.10767e-08
1.86318e-08
1.69122e-08
1.62923e-08
1.75682e-08
2.3226e-08
4.79058e-08
1.13523e-07
5.36241e-08
3.73844e-08
3.03181e-08
2.6792e-08
2.51091e-08
2.45556e-08
2.47466e-08
2.5468e-08
2.6558e-08
2.7891e-08
2.93655e-08
3.08998e-08
3.24292e-08
3.39055e-08
3.52955e-08
3.6579e-08
3.77469e-08
3.87988e-08
3.97407e-08
4.05827e-08
4.13373e-08
4.20181e-08
4.26388e-08
4.32125e-08
4.37515e-08
4.42671e-08
4.47694e-08
4.52676e-08
4.57698e-08
4.6283e-08
4.68131e-08
4.73647e-08
4.79413e-08
4.85447e-08
4.91752e-08
4.98315e-08
5.05102e-08
5.12063e-08
5.19124e-08
5.26194e-08
5.33161e-08
5.3989e-08
5.46229e-08
5.5201e-08
5.57055e-08
5.6118e-08
5.64197e-08
5.65725e-08
5.66031e-08
5.64914e-08
5.62157e-08
5.57725e-08
5.51605e-08
5.43808e-08
5.34346e-08
5.23212e-08
5.10351e-08
4.95639e-08
4.78876e-08
4.59798e-08
4.38123e-08
4.13628e-08
3.8625e-08
3.56199e-08
3.24044e-08
2.90776e-08