/*--------------------------------*- C++ -*----------------------------------*\
  =========                 |
  \\      /  F ield         | OpenFOAM: The Open Source CFD Toolbox
   \\    /   O peration     | Website:  https://openfoam.org
    \\  /    A nd           | Version:  12
     \\/     M anipulation  |
\*---------------------------------------------------------------------------*/
FoamFile
{
    format      ascii;
    class       volScalarField;
    location    "5";
    object      k;
}
// * * * * * * * * * * * * * * * * * * * * * * * * * * * * * * * * * * * * * //

dimensions      [0 2 -2 0 0 0 0];

internalField   nonuniform List<scalar> 
5625
(
1.0723e-13
5.35339e-13
1.16825e-12
1.92195e-12
2.75665e-12
3.64707e-12
4.57426e-12
5.52289e-12
6.48013e-12
7.43518e-12
8.37894e-12
9.30391e-12
1.02041e-11
1.10749e-11
1.19131e-11
1.27168e-11
1.3485e-11
1.42177e-11
1.49159e-11
1.55807e-11
1.6214e-11
1.68174e-11
1.73927e-11
1.79413e-11
1.84644e-11
1.89626e-11
1.94359e-11
1.98839e-11
2.03055e-11
2.06989e-11
2.1062e-11
2.13922e-11
2.16863e-11
2.19408e-11
2.21522e-11
2.23166e-11
2.243e-11
2.24877e-11
2.24898e-11
2.24311e-11
2.23086e-11
2.21201e-11
2.1864e-11
2.15393e-11
2.1146e-11
2.0685e-11
2.01582e-11
1.9568e-11
1.89183e-11
1.82134e-11
1.74587e-11
1.66601e-11
1.58242e-11
1.4958e-11
1.40687e-11
1.31638e-11
1.22506e-11
1.13362e-11
1.04272e-11
9.53e-12
8.65005e-12
7.7923e-12
6.96095e-12
6.15946e-12
5.39061e-12
4.65659e-12
3.95923e-12
3.29989e-12
2.68003e-12
2.10152e-12
1.56713e-12
1.08143e-12
6.52701e-13
2.97903e-13
5.96127e-14
5.3599e-13
4.60837e-12
1.03829e-11
1.71998e-11
2.47303e-11
3.27553e-11
4.11071e-11
4.96491e-11
5.82666e-11
6.68625e-11
7.53552e-11
8.36775e-11
9.17755e-11
9.96082e-11
1.07147e-10
1.14373e-10
1.2128e-10
1.27867e-10
1.34143e-10
1.40119e-10
1.4581e-10
1.51234e-10
1.56405e-10
1.61336e-10
1.66039e-10
1.70518e-10
1.74774e-10
1.78804e-10
1.82596e-10
1.86136e-10
1.89404e-10
1.92376e-10
1.95024e-10
1.97317e-10
1.99222e-10
2.00705e-10
2.0173e-10
2.02249e-10
2.02263e-10
2.0173e-10
2.00623e-10
1.98922e-10
1.96612e-10
1.93685e-10
1.90142e-10
1.85991e-10
1.81246e-10
1.75934e-10
1.70086e-10
1.63743e-10
1.56952e-10
1.49767e-10
1.42247e-10
1.34456e-10
1.26458e-10
1.1832e-10
1.10108e-10
1.01885e-10
9.37126e-11
8.56454e-11
7.7734e-11
7.00224e-11
6.25484e-11
5.53428e-11
4.84306e-11
4.18312e-11
3.55598e-11
2.963e-11
2.4055e-11
1.88509e-11
1.40415e-11
9.66633e-12
5.79466e-12
2.56204e-12
2.97713e-13
1.17548e-12
1.04334e-11
2.37077e-11
3.94399e-11
5.68396e-11
7.53874e-11
9.46907e-11
1.14431e-10
1.34344e-10
1.54202e-10
1.73818e-10
1.93036e-10
2.11731e-10
2.29808e-10
2.472e-10
2.63868e-10
2.79793e-10
2.94978e-10
3.09441e-10
3.23211e-10
3.36324e-10
3.48817e-10
3.60727e-10
3.72086e-10
3.82916e-10
3.93231e-10
4.03032e-10
4.12309e-10
4.21038e-10
4.29184e-10
4.36701e-10
4.43533e-10
4.49615e-10
4.54876e-10
4.5924e-10
4.62627e-10
4.64958e-10
4.66112e-10
4.66121e-10
4.64865e-10
4.62284e-10
4.58331e-10
4.52974e-10
4.46196e-10
4.37997e-10
4.28395e-10
4.17429e-10
4.05155e-10
3.91648e-10
3.77002e-10
3.61327e-10
3.44748e-10
3.27401e-10
3.09431e-10
2.90989e-10
2.7223e-10
2.53303e-10
2.34357e-10
2.15529e-10
1.96948e-10
1.7873e-10
1.60976e-10
1.43772e-10
1.27188e-10
1.11281e-10
9.60958e-11
8.16671e-11
6.80242e-11
5.51964e-11
4.32204e-11
3.21519e-11
2.20838e-11
1.31832e-11
5.77947e-12
6.50515e-13
1.95044e-12
1.74304e-11
3.97732e-11
6.63535e-11
9.58057e-11
1.27227e-10
1.5994e-10
1.93396e-10
2.27141e-10
2.60789e-10
2.94019e-10
3.26563e-10
3.5821e-10
3.88798e-10
4.18215e-10
4.46392e-10
4.73302e-10
4.9895e-10
5.23368e-10
5.46608e-10
5.68732e-10
5.89806e-10
6.09894e-10
6.29048e-10
6.47309e-10
6.64699e-10
6.81219e-10
6.96852e-10
7.11557e-10
7.25275e-10
7.37926e-10
7.49416e-10
7.59635e-10
7.68462e-10
7.75769e-10
7.81423e-10
7.85284e-10
7.87145e-10
7.8709e-10
7.84893e-10
7.80454e-10
7.73696e-10
7.64565e-10
7.53034e-10
7.39103e-10
7.22804e-10
7.04203e-10
6.83395e-10
6.60509e-10
6.35705e-10
6.09168e-10
5.81112e-10
5.51767e-10
5.21381e-10
4.90209e-10
4.5851e-10
4.26542e-10
3.94552e-10
3.62775e-10
3.31427e-10
3.00702e-10
2.7077e-10
2.41775e-10
2.13834e-10
1.87041e-10
1.6147e-10
1.37177e-10
1.14211e-10
9.26193e-11
7.24641e-11
5.38413e-11
3.69138e-11
2.19745e-11
9.59318e-12
1.0724e-12
2.83162e-12
2.53665e-11
5.80134e-11
9.6963e-11
1.40199e-10
1.86373e-10
2.34472e-10
2.83676e-10
3.33306e-10
3.82789e-10
4.31644e-10
4.79473e-10
5.25962e-10
5.70871e-10
6.14034e-10
6.55351e-10
6.94784e-10
7.32343e-10
7.68079e-10
8.02072e-10
8.34417e-10
8.65214e-10
8.94557e-10
9.22527e-10
9.49184e-10
9.74561e-10
9.9866e-10
1.02145e-09
1.04288e-09
1.06286e-09
1.08127e-09
1.09797e-09
1.1128e-09
1.12559e-09
1.13615e-09
1.14428e-09
1.14977e-09
1.15233e-09
1.1521e-09
1.14873e-09
1.14208e-09
1.13203e-09
1.1185e-09
1.10147e-09
1.08092e-09
1.0569e-09
1.02952e-09
9.98916e-10
9.65273e-10
9.28828e-10
8.89857e-10
8.48673e-10
8.05617e-10
7.61052e-10
7.15356e-10
6.68911e-10
6.22094e-10
5.75269e-10
5.2878e-10
4.82943e-10
4.38041e-10
3.94319e-10
3.51987e-10
3.11213e-10
2.72132e-10
2.34846e-10
1.99437e-10
1.6597e-10
1.34516e-10
1.05165e-10
7.80592e-11
5.34442e-11
3.17566e-11
1.38321e-11
1.54249e-12
3.80523e-12
3.41261e-11
7.815e-11
1.3078e-10
1.89291e-10
2.51845e-10
3.17047e-10
3.83773e-10
4.51085e-10
5.18192e-10
5.84429e-10
6.49249e-10
7.12216e-10
7.73001e-10
8.31376e-10
8.87207e-10
9.40443e-10
9.91104e-10
1.03926e-09
1.08504e-09
1.12856e-09
1.16996e-09
1.20939e-09
1.24695e-09
1.28272e-09
1.31676e-09
1.34906e-09
1.37959e-09
1.40827e-09
1.43497e-09
1.45955e-09
1.48182e-09
1.50156e-09
1.51854e-09
1.5325e-09
1.5432e-09
1.5503e-09
1.55347e-09
1.55291e-09
1.54811e-09
1.53888e-09
1.52508e-09
1.5066e-09
1.48338e-09
1.45544e-09
1.42284e-09
1.3857e-09
1.34422e-09
1.29865e-09
1.24932e-09
1.1966e-09
1.14091e-09
1.08272e-09
1.02251e-09
9.60811e-10
8.98131e-10
8.34984e-10
7.71864e-10
7.09234e-10
6.47522e-10
5.87106e-10
5.28316e-10
4.7143e-10
4.1667e-10
3.64213e-10
3.14192e-10
2.6671e-10
2.21854e-10
1.79712e-10
1.40408e-10
1.04134e-10
7.12246e-11
4.22705e-11
1.83873e-11
2.04815e-12
4.86394e-12
4.36467e-11
1.00035e-10
1.67545e-10
2.42692e-10
3.23109e-10
4.06988e-10
4.92863e-10
5.79506e-10
6.65879e-10
7.51109e-10
8.34472e-10
9.15397e-10
9.93448e-10
1.06833e-09
1.13987e-09
1.208e-09
1.27276e-09
1.33425e-09
1.39263e-09
1.44807e-09
1.50076e-09
1.55089e-09
1.5986e-09
1.64399e-09
1.68714e-09
1.72805e-09
1.76668e-09
1.80292e-09
1.83663e-09
1.86761e-09
1.89562e-09
1.92039e-09
1.94162e-09
1.95901e-09
1.97222e-09
1.98081e-09
1.98442e-09
1.9833e-09
1.97677e-09
1.9646e-09
1.94659e-09
1.92262e-09
1.89262e-09
1.8566e-09
1.81463e-09
1.76689e-09
1.71362e-09
1.65514e-09
1.59187e-09
1.52428e-09
1.45293e-09
1.3784e-09
1.30134e-09
1.2224e-09
1.14225e-09
1.06155e-09
9.8093e-10
9.00986e-10
8.22264e-10
7.45248e-10
6.70357e-10
5.97939e-10
5.28276e-10
4.61586e-10
3.98033e-10
3.37741e-10
2.80814e-10
2.27362e-10
1.77537e-10
1.31586e-10
8.99346e-11
5.33309e-11
2.31797e-11
2.58041e-12
6.00366e-12
5.38929e-11
1.23586e-10
2.07115e-10
3.00189e-10
3.99874e-10
5.0392e-10
6.10486e-10
7.18025e-10
8.25219e-10
9.30955e-10
1.03432e-09
1.13456e-09
1.23115e-09
1.3237e-09
1.41199e-09
1.49596e-09
1.57565e-09
1.6512e-09
1.72281e-09
1.79072e-09
1.85518e-09
1.91642e-09
1.97462e-09
2.02994e-09
2.08245e-09
2.13218e-09
2.17906e-09
2.22299e-09
2.26378e-09
2.30118e-09
2.33493e-09
2.36468e-09
2.39009e-09
2.41077e-09
2.42632e-09
2.43615e-09
2.43998e-09
2.438e-09
2.42939e-09
2.41386e-09
2.39119e-09
2.36122e-09
2.32387e-09
2.27915e-09
2.22715e-09
2.16808e-09
2.10224e-09
2.03003e-09
1.95195e-09
1.8686e-09
1.78064e-09
1.68882e-09
1.59391e-09
1.49674e-09
1.39812e-09
1.29888e-09
1.19978e-09
1.10157e-09
1.00492e-09
9.10427e-10
8.18599e-10
7.29866e-10
6.44568e-10
5.62966e-10
4.85255e-10
4.1158e-10
3.42062e-10
2.76828e-10
2.1606e-10
1.60056e-10
1.09333e-10
6.47974e-11
2.81489e-11
3.13248e-12
7.22206e-12
6.48447e-11
1.48757e-10
2.49412e-10
3.61663e-10
4.8198e-10
6.07637e-10
7.36389e-10
8.66335e-10
9.95847e-10
1.12354e-09
1.24827e-09
1.36912e-09
1.4854e-09
1.59665e-09
1.7026e-09
1.80319e-09
1.89846e-09
1.98862e-09
2.07392e-09
2.15466e-09
2.23117e-09
2.30373e-09
2.37258e-09
2.43792e-09
2.49984e-09
2.55838e-09
2.61349e-09
2.66502e-09
2.71277e-09
2.75646e-09
2.79577e-09
2.8303e-09
2.85963e-09
2.88333e-09
2.90093e-09
2.91162e-09
2.91537e-09
2.91215e-09
2.90104e-09
2.88172e-09
2.85392e-09
2.81745e-09
2.77223e-09
2.71826e-09
2.65566e-09
2.58466e-09
2.50563e-09
2.41905e-09
2.3255e-09
2.22569e-09
2.12043e-09
2.01059e-09
1.8971e-09
1.78094e-09
1.6631e-09
1.54455e-09
1.42623e-09
1.30902e-09
1.19372e-09
1.08105e-09
9.71623e-10
8.65948e-10
7.6443e-10
6.67377e-10
5.75016e-10
4.87512e-10
4.05002e-10
3.2763e-10
2.55604e-10
1.89271e-10
1.29235e-10
7.65622e-11
3.32482e-11
3.69914e-12
8.51771e-12
7.64893e-11
1.7552e-10
2.94389e-10
4.27047e-10
5.69334e-10
7.18021e-10
8.70426e-10
1.02426e-09
1.17754e-09
1.32858e-09
1.47598e-09
1.61862e-09
1.75565e-09
1.88651e-09
2.0109e-09
2.12872e-09
2.24008e-09
2.34522e-09
2.44447e-09
2.53821e-09
2.62685e-09
2.71073e-09
2.79019e-09
2.86543e-09
2.93661e-09
3.00378e-09
3.06687e-09
3.12574e-09
3.18016e-09
3.22981e-09
3.27432e-09
3.31325e-09
3.34613e-09
3.37243e-09
3.39165e-09
3.40271e-09
3.40598e-09
3.40106e-09
3.38699e-09
3.36341e-09
3.33e-09
3.28657e-09
3.23301e-09
3.16934e-09
3.09568e-09
3.01231e-09
2.91965e-09
2.81825e-09
2.70878e-09
2.59208e-09
2.46906e-09
2.34073e-09
2.20818e-09
2.07255e-09
1.93498e-09
1.7966e-09
1.65852e-09
1.52176e-09
1.38728e-09
1.2559e-09
1.12836e-09
1.00525e-09
8.87043e-10
7.74107e-10
6.66701e-10
5.65015e-10
4.692e-10
3.79417e-10
2.95895e-10
2.19029e-10
1.49505e-10
8.85444e-11
3.84426e-11
4.27646e-12
9.88948e-12
8.88174e-11
2.03854e-10
3.4201e-10
4.96291e-10
6.61872e-10
8.34989e-10
1.01249e-09
1.19166e-09
1.37012e-09
1.54586e-09
1.71716e-09
1.88268e-09
2.0414e-09
2.19267e-09
2.33611e-09
2.47164e-09
2.5994e-09
2.7197e-09
2.83297e-09
2.93969e-09
3.04033e-09
3.13536e-09
3.22516e-09
3.31001e-09
3.3901e-09
3.4655e-09
3.53616e-09
3.60192e-09
3.66253e-09
3.71765e-09
3.76685e-09
3.80966e-09
3.84553e-09
3.87389e-09
3.89415e-09
3.90498e-09
3.90732e-09
3.90017e-09
3.88263e-09
3.85428e-09
3.81481e-09
3.76399e-09
3.70171e-09
3.62798e-09
3.54295e-09
3.44694e-09
3.34041e-09
3.22397e-09
3.09841e-09
2.96462e-09
2.82366e-09
2.67665e-09
2.52484e-09
2.3695e-09
2.21193e-09
2.05344e-09
1.89527e-09
1.73862e-09
1.58457e-09
1.4341e-09
1.28805e-09
1.14711e-09
1.01185e-09
8.82672e-10
7.59896e-10
6.43736e-10
5.34361e-10
4.31946e-10
3.36745e-10
2.49189e-10
1.70045e-10
1.00687e-10
4.37073e-11
4.86167e-12
1.13363e-11
1.01819e-10
2.33737e-10
3.92241e-10
5.69344e-10
7.59528e-10
9.58458e-10
1.16248e-09
1.3684e-09
1.57341e-09
1.77511e-09
1.97147e-09
2.16087e-09
2.34212e-09
2.51443e-09
2.67739e-09
2.83092e-09
2.97523e-09
3.1107e-09
3.23787e-09
3.35733e-09
3.46968e-09
3.57547e-09
3.67517e-09
3.76914e-09
3.8576e-09
3.94066e-09
4.01828e-09
4.09031e-09
4.15647e-09
4.21639e-09
4.26961e-09
4.31561e-09
4.35379e-09
4.38354e-09
4.40411e-09
4.41406e-09
4.41495e-09
4.40497e-09
4.38342e-09
4.34983e-09
4.30388e-09
4.24532e-09
4.17403e-09
4.09003e-09
3.9935e-09
3.88478e-09
3.76437e-09
3.63295e-09
3.49135e-09
3.34058e-09
3.18177e-09
3.01618e-09
2.84517e-09
2.67015e-09
2.49257e-09
2.31388e-09
2.13551e-09
1.95878e-09
1.78494e-09
1.6151e-09
1.45025e-09
1.29117e-09
1.13852e-09
9.92805e-10
8.54372e-10
7.23479e-10
6.00318e-10
4.85081e-10
3.78041e-10
2.79666e-10
1.90797e-10
1.12955e-10
4.90265e-11
5.45303e-12
1.28566e-11
1.15481e-10
2.6514e-10
4.45035e-10
6.46143e-10
8.62215e-10
1.08832e-09
1.32025e-09
1.55429e-09
1.78718e-09
2.01606e-09
2.23853e-09
2.4527e-09
2.65716e-09
2.85101e-09
3.0338e-09
3.20547e-09
3.36628e-09
3.51674e-09
3.6575e-09
3.78929e-09
3.91284e-09
4.02881e-09
4.13778e-09
4.24018e-09
4.3363e-09
4.42628e-09
4.51009e-09
4.58759e-09
4.65849e-09
4.7224e-09
4.77882e-09
4.82719e-09
4.86689e-09
4.89726e-09
4.91721e-09
4.92579e-09
4.92451e-09
4.9111e-09
4.885e-09
4.84574e-09
4.79295e-09
4.7264e-09
4.64596e-09
4.55167e-09
4.4437e-09
4.32243e-09
4.18838e-09
4.04228e-09
3.88501e-09
3.71764e-09
3.54138e-09
3.35758e-09
3.1677e-09
2.97327e-09
2.77589e-09
2.57715e-09
2.37861e-09
2.18177e-09
1.98804e-09
1.79867e-09
1.61477e-09
1.4373e-09
1.26699e-09
1.10444e-09
9.50072e-10
8.04192e-10
6.67022e-10
5.38775e-10
4.19743e-10
3.10427e-10
2.11737e-10
1.25331e-10
5.43928e-11
6.04978e-12
1.44487e-11
1.29787e-10
2.98024e-10
5.00328e-10
7.26594e-10
9.69812e-10
1.22441e-09
1.48559e-09
1.74909e-09
2.01109e-09
2.26827e-09
2.51782e-09
2.75753e-09
2.98577e-09
3.20151e-09
3.40426e-09
3.59401e-09
3.7711e-09
3.93617e-09
4.09003e-09
4.23355e-09
4.36761e-09
4.49302e-09
4.61046e-09
4.72044e-09
4.82333e-09
4.91931e-09
5.00839e-09
5.09042e-09
5.1651e-09
5.23204e-09
5.29071e-09
5.34052e-09
5.38082e-09
5.41091e-09
5.42931e-09
5.43607e-09
5.43181e-09
5.41437e-09
5.38324e-09
5.33793e-09
5.27808e-09
5.20343e-09
5.11388e-09
5.00945e-09
4.89034e-09
4.75692e-09
4.60975e-09
4.44955e-09
4.27725e-09
4.09394e-09
3.9009e-09
3.69953e-09
3.49137e-09
3.27806e-09
3.06131e-09
2.84283e-09
2.62434e-09
2.40749e-09
2.19384e-09
1.98484e-09
1.78173e-09
1.58561e-09
1.39736e-09
1.21769e-09
1.0471e-09
8.85956e-10
7.34533e-10
5.93069e-10
4.61876e-10
3.41487e-10
2.3287e-10
1.3782e-10
5.98071e-11
6.65203e-12
1.61097e-11
1.44714e-10
3.32338e-10
5.58033e-10
8.10572e-10
1.08215e-09
1.36652e-09
1.65825e-09
1.95245e-09
2.24473e-09
2.53123e-09
2.80871e-09
3.07458e-09
3.32701e-09
3.56483e-09
3.78752e-09
3.99511e-09
4.18808e-09
4.36722e-09
4.53349e-09
4.68797e-09
4.83169e-09
4.96561e-09
5.09054e-09
5.2071e-09
5.31573e-09
5.41665e-09
5.50992e-09
5.59539e-09
5.67279e-09
5.74169e-09
5.80156e-09
5.85178e-09
5.89168e-09
5.92054e-09
5.9365e-09
5.94089e-09
5.93291e-09
5.91089e-09
5.87432e-09
5.82273e-09
5.75571e-09
5.67303e-09
5.57458e-09
5.4604e-09
5.33067e-09
5.18577e-09
5.02623e-09
4.85278e-09
4.66636e-09
4.46806e-09
4.25916e-09
4.04112e-09
3.81552e-09
3.58406e-09
3.34855e-09
3.11083e-09
2.87273e-09
2.63608e-09
2.40261e-09
2.17391e-09
1.95143e-09
1.73644e-09
1.52996e-09
1.33284e-09
1.14569e-09
9.68971e-10
8.0301e-10
6.48082e-10
5.04525e-10
3.729e-10
2.54231e-10
1.50439e-10
6.52773e-11
7.26059e-12
1.78365e-11
1.6023e-10
3.68011e-10
6.18035e-10
8.9791e-10
1.199e-09
1.51435e-09
1.83784e-09
2.16392e-09
2.48754e-09
2.80428e-09
3.11038e-09
3.40292e-09
3.67979e-09
3.9397e-09
4.18213e-09
4.40718e-09
4.61545e-09
4.80793e-09
4.98578e-09
5.15027e-09
5.30263e-09
5.44399e-09
5.57529e-09
5.69728e-09
5.81047e-09
5.91515e-09
6.01142e-09
6.09915e-09
6.17808e-09
6.24778e-09
6.30772e-09
6.3573e-09
6.39582e-09
6.42237e-09
6.43512e-09
6.43655e-09
6.42423e-09
6.39718e-09
6.35489e-09
6.29689e-09
6.22278e-09
6.13232e-09
6.02541e-09
5.90207e-09
5.76247e-09
5.60697e-09
5.43607e-09
5.25048e-09
5.05108e-09
4.83896e-09
4.61538e-09
4.38179e-09
4.13979e-09
3.89112e-09
3.63766e-09
3.38133e-09
3.12411e-09
2.86796e-09
2.61479e-09
2.36639e-09
2.1244e-09
1.89028e-09
1.66525e-09
1.4503e-09
1.24622e-09
1.05354e-09
8.72696e-10
7.04001e-10
5.47826e-10
4.04762e-10
2.75882e-10
1.63223e-10
7.08179e-11
7.87704e-12
1.96248e-11
1.763e-10
4.04958e-10
6.8019e-10
9.88398e-10
1.32009e-09
1.66754e-09
2.02391e-09
2.38292e-09
2.73883e-09
3.08657e-09
3.42188e-09
3.74141e-09
4.04282e-09
4.32469e-09
4.5865e-09
4.82843e-09
5.05128e-09
5.25621e-09
5.44464e-09
5.61805e-09
5.77789e-09
5.92548e-09
6.06191e-09
6.18805e-09
6.30452e-09
6.41167e-09
6.50965e-09
6.59838e-09
6.67759e-09
6.74689e-09
6.80577e-09
6.85362e-09
6.88979e-09
6.91282e-09
6.92218e-09
6.91976e-09
6.90264e-09
6.87025e-09
6.82211e-09
6.75777e-09
6.67682e-09
6.57902e-09
6.46427e-09
6.33256e-09
6.18406e-09
6.01904e-09
5.83799e-09
5.64154e-09
5.43052e-09
5.20596e-09
4.96906e-09
4.72123e-09
4.46405e-09
4.19928e-09
3.92881e-09
3.65466e-09
3.37891e-09
3.10366e-09
2.831e-09
2.56292e-09
2.30129e-09
2.04777e-09
1.80382e-09
1.57063e-09
1.34915e-09
1.14007e-09
9.43912e-10
7.61073e-10
5.91963e-10
4.372e-10
2.97903e-10
1.76219e-10
7.64483e-11
8.50354e-12
2.14694e-11
1.92875e-10
4.43074e-10
7.44319e-10
1.08178e-09
1.44505e-09
1.82563e-09
2.21588e-09
2.60876e-09
2.99776e-09
3.37713e-09
3.74206e-09
4.08877e-09
4.41466e-09
4.71818e-09
4.99884e-09
5.25694e-09
5.49346e-09
5.70982e-09
5.90769e-09
6.08881e-09
6.25485e-09
6.40734e-09
6.54755e-09
6.67648e-09
6.79486e-09
6.90314e-09
7.00149e-09
7.0899e-09
7.16814e-09
7.23585e-09
7.29252e-09
7.3376e-09
7.37043e-09
7.3891e-09
7.39492e-09
7.38784e-09
7.3656e-09
7.32775e-09
7.27382e-09
7.20337e-09
7.11603e-09
7.01152e-09
6.88972e-09
6.75062e-09
6.5943e-09
6.42102e-09
6.23116e-09
6.02529e-09
5.80414e-09
5.56864e-09
5.31991e-09
5.05929e-09
4.78831e-09
4.50868e-09
4.22231e-09
3.93125e-09
3.63767e-09
3.34381e-09
3.05193e-09
2.76424e-09
2.48284e-09
2.20964e-09
1.94637e-09
1.69444e-09
1.45503e-09
1.22901e-09
1.01703e-09
8.19593e-10
6.37154e-10
4.70368e-10
3.20395e-10
1.89483e-10
8.21923e-11
9.14273e-12
2.33642e-11
2.09902e-10
4.82232e-10
8.10213e-10
1.17774e-09
1.57347e-09
1.98807e-09
2.41308e-09
2.84061e-09
3.26334e-09
3.67482e-09
4.06961e-09
4.44352e-09
4.79365e-09
5.11837e-09
5.4172e-09
5.6906e-09
5.93978e-09
6.16643e-09
6.37248e-09
6.55998e-09
6.73085e-09
6.88683e-09
7.02939e-09
7.15969e-09
7.27858e-09
7.38658e-09
7.48396e-09
7.57076e-09
7.6468e-09
7.71177e-09
7.76522e-09
7.80661e-09
7.83515e-09
7.84897e-09
7.85094e-09
7.83878e-09
7.8113e-09
7.76805e-09
7.70857e-09
7.63247e-09
7.53935e-09
7.42892e-09
7.30102e-09
7.15559e-09
6.99269e-09
6.81246e-09
6.61521e-09
6.40141e-09
6.17167e-09
5.9268e-09
5.66782e-09
5.39594e-09
5.11261e-09
4.81947e-09
4.51839e-09
4.21145e-09
3.90086e-09
3.58898e-09
3.27824e-09
2.97106e-09
2.66978e-09
2.37663e-09
2.0936e-09
1.8224e-09
1.56445e-09
1.32087e-09
1.09248e-09
8.7989e-10
6.83646e-10
5.0444e-10
3.43471e-10
2.03078e-10
8.80772e-11
9.79761e-12
2.53021e-11
2.27318e-10
5.22288e-10
8.77627e-10
1.27592e-09
1.70487e-09
2.15424e-09
2.61472e-09
3.07751e-09
3.53446e-09
3.97833e-09
4.40307e-09
4.80402e-09
5.178e-09
5.52331e-09
5.8395e-09
6.12721e-09
6.38791e-09
6.62358e-09
6.83648e-09
7.02895e-09
7.2032e-09
7.36121e-09
7.50467e-09
7.6349e-09
7.75286e-09
7.85922e-09
7.95433e-09
8.03829e-09
8.11101e-09
8.17222e-09
8.22155e-09
8.25855e-09
8.2818e-09
8.29106e-09
8.28858e-09
8.27128e-09
8.23868e-09
8.19032e-09
8.12578e-09
8.04463e-09
7.94652e-09
7.83109e-09
7.69813e-09
7.54754e-09
7.37928e-09
7.19345e-09
6.99022e-09
6.76995e-09
6.53314e-09
6.28045e-09
6.01277e-09
5.73117e-09
5.43698e-09
5.13173e-09
4.81723e-09
4.49552e-09
4.16884e-09
3.83964e-09
3.51048e-09
3.184e-09
2.86282e-09
2.54945e-09
2.24622e-09
1.95516e-09
1.67803e-09
1.41619e-09
1.17069e-09
9.42317e-10
7.31704e-10
5.39603e-10
3.67253e-10
2.17075e-10
9.4132e-11
1.04714e-11
2.72753e-11
2.4505e-10
5.63077e-10
9.46284e-10
1.37592e-09
1.83868e-09
2.32342e-09
2.8199e-09
3.31839e-09
3.80984e-09
4.28621e-09
4.74079e-09
5.16846e-09
5.56576e-09
5.9309e-09
6.26351e-09
6.56444e-09
6.83542e-09
7.07878e-09
7.29712e-09
7.49311e-09
7.66927e-09
7.82784e-09
7.97073e-09
8.09946e-09
8.21514e-09
8.31856e-09
8.41018e-09
8.4902e-09
8.5586e-09
8.61521e-09
8.6597e-09
8.69168e-09
8.70931e-09
8.71448e-09
8.70704e-09
8.68484e-09
8.6475e-09
8.59459e-09
8.52566e-09
8.4403e-09
8.33811e-09
8.21871e-09
8.0818e-09
7.9272e-09
7.75483e-09
7.56464e-09
7.35675e-09
7.13138e-09
6.88888e-09
6.6298e-09
6.35487e-09
6.06501e-09
5.76138e-09
5.44542e-09
5.11881e-09
4.78351e-09
4.44175e-09
4.09603e-09
3.74902e-09
3.40355e-09
3.06251e-09
2.72872e-09
2.40487e-09
2.09338e-09
1.79634e-09
1.51548e-09
1.25212e-09
1.00723e-09
7.81601e-10
5.7605e-10
3.91866e-10
2.31545e-10
1.00387e-10
1.11675e-11
2.92746e-11
2.63019e-10
6.04415e-10
1.01587e-09
1.47727e-09
1.97428e-09
2.4948e-09
3.02762e-09
3.56205e-09
4.08809e-09
4.59687e-09
5.08101e-09
5.53491e-09
5.95485e-09
6.33894e-09
6.68693e-09
6.99989e-09
7.27986e-09
7.52952e-09
7.75187e-09
7.94991e-09
8.1265e-09
8.28418e-09
8.42509e-09
8.55095e-09
8.66308e-09
8.76238e-09
8.84945e-09
8.9246e-09
8.98792e-09
9.03933e-09
9.07863e-09
9.10508e-09
9.11733e-09
9.11861e-09
9.10642e-09
9.07983e-09
9.03842e-09
8.98174e-09
8.90934e-09
8.82076e-09
8.71555e-09
8.59328e-09
8.45355e-09
8.2961e-09
8.12073e-09
7.92735e-09
7.71593e-09
7.4866e-09
7.2396e-09
6.97534e-09
6.69439e-09
6.39754e-09
6.08579e-09
5.76042e-09
5.42295e-09
5.07526e-09
4.7195e-09
4.35816e-09
3.99398e-09
3.62996e-09
3.26921e-09
2.91489e-09
2.57007e-09
2.23758e-09
1.91994e-09
1.61925e-09
1.33718e-09
1.07498e-09
8.33607e-10
6.13976e-10
4.17437e-10
2.46559e-10
1.06872e-10
1.18892e-11
3.12905e-11
2.81136e-10
6.46102e-10
1.08606e-09
1.57949e-09
2.11101e-09
2.66752e-09
3.23682e-09
3.80719e-09
4.36769e-09
4.9086e-09
5.42184e-09
5.90132e-09
6.34307e-09
6.74514e-09
7.10739e-09
7.43112e-09
7.71874e-09
7.97331e-09
8.19821e-09
8.39686e-09
8.57246e-09
8.72785e-09
8.86546e-09
8.98722e-09
9.09465e-09
9.18883e-09
9.2705e-09
9.3401e-09
9.39783e-09
9.44373e-09
9.47771e-09
9.49849e-09
9.50644e-09
9.50375e-09
9.48753e-09
9.45738e-09
9.41287e-09
9.35351e-09
9.27878e-09
9.18816e-09
9.08111e-09
8.95714e-09
8.81573e-09
8.6565e-09
8.47918e-09
8.28355e-09
8.06953e-09
7.83712e-09
7.5865e-09
7.31794e-09
7.03191e-09
6.72906e-09
6.41024e-09
6.07656e-09
5.72939e-09
5.37044e-09
5.00176e-09
4.62577e-09
4.24522e-09
3.86321e-09
3.48306e-09
3.10824e-09
2.74218e-09
2.38819e-09
2.04925e-09
1.72793e-09
1.42629e-09
1.14591e-09
8.87979e-10
6.53565e-10
4.44087e-10
2.62186e-10
1.13616e-10
1.26396e-11
3.33124e-11
2.99309e-10
6.87922e-10
1.15647e-09
1.68203e-09
2.24813e-09
2.84063e-09
3.44631e-09
4.05242e-09
4.64705e-09
5.21959e-09
5.76128e-09
6.26556e-09
6.72818e-09
7.14715e-09
7.52246e-09
7.85569e-09
8.14961e-09
8.40769e-09
8.63376e-09
8.83162e-09
9.00488e-09
9.1567e-09
9.28981e-09
9.40641e-09
9.5082e-09
9.59648e-09
9.67214e-09
9.73577e-09
9.78772e-09
9.82812e-09
9.85694e-09
9.87267e-09
9.87731e-09
9.87109e-09
9.85191e-09
9.8194e-09
9.77307e-09
9.71237e-09
9.63669e-09
9.5454e-09
9.43784e-09
9.3134e-09
9.17147e-09
9.0115e-09
8.83311e-09
8.63601e-09
8.42003e-09
8.18513e-09
7.93139e-09
7.65904e-09
7.36847e-09
7.06021e-09
6.73501e-09
6.39381e-09
6.03784e-09
5.66861e-09
5.28802e-09
4.89835e-09
4.50231e-09
4.10301e-09
3.70392e-09
3.30877e-09
2.92138e-09
2.5455e-09
2.18463e-09
1.84187e-09
1.51976e-09
1.22029e-09
9.44954e-10
6.94989e-10
4.71928e-10
2.7849e-10
1.20646e-10
1.34219e-11
3.53291e-11
3.17437e-10
7.29644e-10
1.22672e-09
1.78433e-09
2.38486e-09
3.01314e-09
3.65488e-09
4.29629e-09
4.92448e-09
5.52797e-09
6.0973e-09
6.62543e-09
7.10787e-09
7.54259e-09
7.92973e-09
8.27118e-09
8.57007e-09
8.83032e-09
9.05622e-09
9.25201e-09
9.4217e-09
9.56882e-09
9.69642e-09
9.80696e-09
9.90241e-09
9.98427e-09
1.00536e-08
1.01112e-08
1.01575e-08
1.01928e-08
1.0217e-08
1.02288e-08
1.02311e-08
1.02225e-08
1.02017e-08
1.01684e-08
1.01218e-08
1.00615e-08
9.98646e-09
9.89607e-09
9.78949e-09
9.66592e-09
9.52463e-09
9.36494e-09
9.18629e-09
8.98832e-09
8.77079e-09
8.53362e-09
8.2769e-09
8.00082e-09
7.70575e-09
7.39219e-09
7.06081e-09
6.71246e-09
6.34821e-09
5.9694e-09
5.57771e-09
5.17526e-09
4.76461e-09
4.34881e-09
3.93139e-09
3.51627e-09
3.10759e-09
2.70958e-09
2.32627e-09
1.96134e-09
1.61789e-09
1.2984e-09
1.00474e-09
7.38402e-10
5.01063e-10
2.95528e-10
1.27985e-10
1.42384e-11
3.73291e-11
3.35417e-10
7.7103e-10
1.29641e-09
1.88578e-09
2.5204e-09
3.184e-09
3.86124e-09
4.53729e-09
5.19825e-09
5.8318e-09
6.42779e-09
6.97872e-09
7.47984e-09
7.92912e-09
8.32685e-09
8.67523e-09
8.97782e-09
9.23898e-09
9.46349e-09
9.65605e-09
9.82109e-09
9.96257e-09
1.00838e-08
1.01877e-08
1.02764e-08
1.03516e-08
1.04146e-08
1.04664e-08
1.05076e-08
1.05386e-08
1.05591e-08
1.05684e-08
1.05695e-08
1.05602e-08
1.05397e-08
1.05073e-08
1.04625e-08
1.04044e-08
1.03319e-08
1.02443e-08
1.01403e-08
1.00191e-08
9.87974e-09
9.72135e-09
9.54321e-09
9.34485e-09
9.12597e-09
8.8865e-09
8.62654e-09
8.34634e-09
8.04631e-09
7.72699e-09
7.38907e-09
7.03336e-09
6.66083e-09
6.27268e-09
5.87039e-09
5.45584e-09
5.03137e-09
4.59987e-09
4.16484e-09
3.73026e-09
3.30054e-09
2.88033e-09
2.4742e-09
2.08646e-09
1.72084e-09
1.38041e-09
1.0675e-09
7.83935e-10
5.31577e-10
3.13348e-10
1.35653e-10
1.50916e-11
3.93005e-11
3.5314e-10
8.11834e-10
1.36512e-09
1.98579e-09
2.65392e-09
3.35217e-09
4.06412e-09
4.77389e-09
5.46662e-09
6.12915e-09
6.75067e-09
7.32321e-09
7.84182e-09
8.30443e-09
8.71152e-09
9.06562e-09
9.37069e-09
9.63162e-09
9.85364e-09
1.0042e-08
1.02015e-08
1.03366e-08
1.0451e-08
1.05478e-08
1.06295e-08
1.06981e-08
1.07552e-08
1.08017e-08
1.08387e-08
1.08664e-08
1.0885e-08
1.08936e-08
1.08947e-08
1.08868e-08
1.08686e-08
1.08395e-08
1.07986e-08
1.07449e-08
1.06773e-08
1.05943e-08
1.04949e-08
1.03778e-08
1.02418e-08
1.00858e-08
9.90899e-09
9.71071e-09
9.49059e-09
9.24857e-09
8.98481e-09
8.69968e-09
8.39371e-09
8.06758e-09
7.72209e-09
7.35813e-09
6.97668e-09
6.57885e-09
6.16594e-09
5.73958e-09
5.30185e-09
4.85538e-09
4.40346e-09
3.95006e-09
3.49974e-09
3.05745e-09
2.62831e-09
2.21725e-09
1.82872e-09
1.46646e-09
1.13337e-09
8.31689e-10
5.63541e-10
3.3199e-10
1.43666e-10
1.59831e-11
4.12311e-11
3.70498e-10
8.51804e-10
1.43242e-09
2.08372e-09
2.78458e-09
3.51657e-09
4.26219e-09
5.00454e-09
5.72784e-09
6.41809e-09
7.06387e-09
7.65675e-09
8.19158e-09
8.66629e-09
9.08155e-09
9.44021e-09
9.74669e-09
1.00064e-08
1.0225e-08
1.04083e-08
1.05616e-08
1.06898e-08
1.0797e-08
1.08866e-08
1.09615e-08
1.1024e-08
1.10757e-08
1.1118e-08
1.11518e-08
1.11777e-08
1.11961e-08
1.12062e-08
1.12092e-08
1.12049e-08
1.11914e-08
1.11681e-08
1.11337e-08
1.1087e-08
1.10266e-08
1.09508e-08
1.08581e-08
1.07469e-08
1.06158e-08
1.04636e-08
1.02891e-08
1.00915e-08
9.87031e-09
9.62543e-09
9.35713e-09
9.06593e-09
8.75259e-09
8.41801e-09
8.06326e-09
7.68944e-09
7.29765e-09
6.88904e-09
6.46481e-09
6.0264e-09
5.57554e-09
5.11455e-09
4.64641e-09
4.17487e-09
3.70449e-09
3.24044e-09
2.78828e-09
2.35357e-09
1.94151e-09
1.5566e-09
1.20242e-09
8.81737e-10
5.97004e-10
3.51481e-10
1.52036e-10
1.69142e-11
4.31088e-11
3.87383e-10
8.90691e-10
1.49791e-09
2.17896e-09
2.91156e-09
3.67614e-09
4.45417e-09
5.22775e-09
5.9802e-09
6.69676e-09
7.36539e-09
7.97727e-09
8.52703e-09
9.01262e-09
9.4349e-09
9.79707e-09
1.0104e-08
1.03615e-08
1.0576e-08
1.07537e-08
1.09004e-08
1.10214e-08
1.11214e-08
1.1204e-08
1.12725e-08
1.13295e-08
1.13768e-08
1.1416e-08
1.14482e-08
1.14741e-08
1.1494e-08
1.15081e-08
1.15155e-08
1.1517e-08
1.1511e-08
1.14962e-08
1.14711e-08
1.14342e-08
1.13837e-08
1.13176e-08
1.12341e-08
1.11312e-08
1.10071e-08
1.08602e-08
1.06892e-08
1.0493e-08
1.02711e-08
1.00232e-08
9.74964e-09
9.4511e-09
9.12863e-09
8.78351e-09
8.41718e-09
8.03111e-09
7.62672e-09
7.20536e-09
6.76828e-09
6.31678e-09
5.85234e-09
5.37686e-09
4.89288e-09
4.40381e-09
3.914e-09
3.42866e-09
2.95366e-09
2.49516e-09
2.0591e-09
1.65082e-09
1.27469e-09
9.3412e-10
6.31998e-10
3.71839e-10
1.60767e-10
1.78856e-11
4.49217e-11
4.03688e-10
9.2825e-10
1.56115e-09
2.27091e-09
3.03403e-09
3.82986e-09
4.63881e-09
5.44206e-09
6.22207e-09
6.96336e-09
7.65333e-09
8.28279e-09
8.84618e-09
9.34147e-09
9.76971e-09
1.01345e-08
1.0441e-08
1.06958e-08
1.09056e-08
1.10772e-08
1.12171e-08
1.1331e-08
1.14239e-08
1.15e-08
1.15628e-08
1.16151e-08
1.16592e-08
1.16968e-08
1.17291e-08
1.1757e-08
1.17807e-08
1.18004e-08
1.18158e-08
1.18259e-08
1.18296e-08
1.18263e-08
1.18134e-08
1.17893e-08
1.17518e-08
1.16985e-08
1.1627e-08
1.15351e-08
1.14204e-08
1.1281e-08
1.11151e-08
1.09215e-08
1.06994e-08
1.04484e-08
1.0169e-08
9.86183e-09
9.52838e-09
9.1703e-09
8.78955e-09
8.38816e-09
7.96808e-09
7.53107e-09
7.07863e-09
6.61211e-09
6.13278e-09
5.64217e-09
5.14232e-09
4.63609e-09
4.12742e-09
3.62135e-09
3.12388e-09
2.64162e-09
2.18126e-09
1.74901e-09
1.35015e-09
9.88844e-10
6.68534e-10
3.93069e-10
1.69863e-10
1.88975e-11
4.66584e-11
4.1931e-10
9.64242e-10
1.62176e-09
2.35897e-09
3.15122e-09
3.97673e-09
4.81493e-09
5.6461e-09
6.4519e-09
7.21621e-09
7.92593e-09
8.5715e-09
9.14722e-09
9.65107e-09
1.00843e-08
1.04508e-08
1.07563e-08
1.10078e-08
1.12126e-08
1.13781e-08
1.15112e-08
1.16182e-08
1.17045e-08
1.17747e-08
1.18327e-08
1.18816e-08
1.19239e-08
1.19615e-08
1.19958e-08
1.20276e-08
1.20574e-08
1.20852e-08
1.21105e-08
1.21325e-08
1.21499e-08
1.21602e-08
1.21626e-08
1.21543e-08
1.21329e-08
1.20955e-08
1.20393e-08
1.19614e-08
1.18591e-08
1.17298e-08
1.15715e-08
1.13822e-08
1.1161e-08
1.09075e-08
1.06219e-08
1.03051e-08
9.95888e-09
9.58534e-09
9.18705e-09
8.76675e-09
8.32714e-09
7.87064e-09
7.39931e-09
6.91474e-09
6.41824e-09
5.91101e-09
5.39456e-09
4.8711e-09
4.34394e-09
3.81769e-09
3.29823e-09
2.79245e-09
2.30768e-09
1.85101e-09
1.42873e-09
1.04588e-09
7.06603e-10
4.15166e-10
1.7932e-10
1.99495e-11
4.8308e-11
4.34151e-10
9.98443e-10
1.67934e-09
2.44261e-09
3.26239e-09
4.11585e-09
4.98143e-09
5.83858e-09
6.66827e-09
7.45379e-09
8.18157e-09
8.84177e-09
9.42853e-09
9.93987e-09
1.03772e-08
1.07448e-08
1.10489e-08
1.12968e-08
1.14965e-08
1.16559e-08
1.17825e-08
1.1883e-08
1.19633e-08
1.20285e-08
1.20828e-08
1.21296e-08
1.21716e-08
1.2211e-08
1.22491e-08
1.2287e-08
1.23252e-08
1.23634e-08
1.24012e-08
1.24376e-08
1.2471e-08
1.24993e-08
1.25203e-08
1.25298e-08
1.2528e-08
1.25097e-08
1.2472e-08
1.24114e-08
1.23246e-08
1.22085e-08
1.20604e-08
1.18781e-08
1.166e-08
1.14053e-08
1.11141e-08
1.07874e-08
1.04271e-08
1.00359e-08
9.61691e-09
9.17385e-09
8.71032e-09
8.22972e-09
7.73494e-09
7.2282e-09
6.71107e-09
6.18467e-09
5.65002e-09
5.10862e-09
4.56296e-09
4.01691e-09
3.47598e-09
2.94704e-09
2.43792e-09
1.95657e-09
1.51029e-09
1.10518e-09
7.46175e-10
4.38115e-10
1.8913e-10
2.10407e-11
4.98603e-11
4.48119e-10
1.03064e-09
1.73356e-09
2.52131e-09
3.36687e-09
4.24635e-09
5.13729e-09
6.01836e-09
6.86991e-09
7.67473e-09
8.41884e-09
9.09216e-09
9.6887e-09
1.02065e-08
1.06473e-08
1.10155e-08
1.13177e-08
1.1562e-08
1.17567e-08
1.19103e-08
1.20308e-08
1.21254e-08
1.22007e-08
1.22619e-08
1.23137e-08
1.23597e-08
1.2403e-08
1.24459e-08
1.24898e-08
1.25358e-08
1.25844e-08
1.26354e-08
1.26882e-08
1.27414e-08
1.27934e-08
1.28419e-08
1.28843e-08
1.29175e-08
1.29363e-08
1.29401e-08
1.29242e-08
1.28844e-08
1.28167e-08
1.27173e-08
1.25829e-08
1.24107e-08
1.21985e-08
1.1945e-08
1.16499e-08
1.13139e-08
1.09392e-08
1.05287e-08
1.00864e-08
9.61686e-09
9.12481e-09
8.61491e-09
8.09128e-09
7.55715e-09
7.01475e-09
6.46539e-09
5.90986e-09
5.34893e-09
4.78413e-09
4.21837e-09
3.65637e-09
3.10474e-09