/*--------------------------------*- C++ -*----------------------------------*\
  =========                 |
  \\      /  F ield         | OpenFOAM: The Open Source CFD Toolbox
   \\    /   O peration     | Website:  https://openfoam.org
    \\  /    A nd           | Version:  12
     \\/     M anipulation  |
\*---------------------------------------------------------------------------*/
FoamFile
{
    format      ascii;
    class       volScalarField;
    location    "5";
    object      nut;
}
// * * * * * * * * * * * * * * * * * * * * * * * * * * * * * * * * * * * * * //

dimensions      [0 2 -1 0 0 0 0];

internalField   nonuniform List<scalar> 
5625
(
4.23868e-18
2.11614e-17
4.61796e-17
7.59729e-17
1.08967e-16
1.44165e-16
1.80816e-16
2.18314e-16
2.56153e-16
2.93905e-16
3.31211e-16
3.67774e-16
4.03357e-16
4.3778e-16
4.70914e-16
5.02682e-16
5.33047e-16
5.62012e-16
5.89609e-16
6.1589e-16
6.40922e-16
6.64774e-16
6.87514e-16
7.09201e-16
7.29878e-16
7.49571e-16
7.68281e-16
7.8599e-16
8.02654e-16
8.18207e-16
8.32561e-16
8.45612e-16
8.57236e-16
8.67299e-16
8.75655e-16
8.82152e-16
8.86635e-16
8.88917e-16
8.88997e-16
8.86678e-16
8.81838e-16
8.74387e-16
8.64261e-16
8.51425e-16
8.3588e-16
8.17659e-16
7.96832e-16
7.73505e-16
7.47821e-16
7.19958e-16
6.90124e-16
6.58556e-16
6.25513e-16
5.91273e-16
5.56122e-16
5.20353e-16
4.84255e-16
4.48108e-16
4.12178e-16
3.76711e-16
3.41927e-16
3.08022e-16
2.75159e-16
2.43477e-16
2.13085e-16
1.8407e-16
1.56504e-16
1.30441e-16
1.05939e-16
8.3071e-17
6.19469e-17
4.27477e-17
2.58006e-17
1.17758e-17
2.35643e-18
2.11872e-17
1.92237e-15
6.50462e-15
1.19627e-14
1.78518e-14
2.40376e-14
3.04214e-14
3.69156e-14
4.34427e-14
4.99352e-14
5.63351e-14
6.25944e-14
6.86747e-14
7.45467e-14
8.01903e-14
8.55934e-14
9.07516e-14
9.56666e-14
1.00345e-13
1.04798e-13
1.09038e-13
1.13077e-13
1.16929e-13
1.20605e-13
1.24112e-13
1.27457e-13
1.30639e-13
1.33656e-13
1.36501e-13
1.39163e-13
1.41627e-13
1.43875e-13
1.45885e-13
1.47634e-13
1.49098e-13
1.50249e-13
1.5106e-13
1.51489e-13
1.51539e-13
1.51178e-13
1.50385e-13
1.49145e-13
1.47444e-13
1.45278e-13
1.42644e-13
1.39548e-13
1.36001e-13
1.32022e-13
1.27634e-13
1.22868e-13
1.17761e-13
1.12353e-13
1.06689e-13
1.00818e-13
9.47893e-14
8.86547e-14
8.24644e-14
7.62671e-14
7.01091e-14
6.40329e-14
5.80767e-14
5.22737e-14
4.6652e-14
4.12344e-14
3.60387e-14
3.10779e-14
2.6361e-14
2.18965e-14
1.76904e-14
1.37486e-14
1.00785e-14
6.69184e-15
3.61983e-15
1.06824e-15
1.17683e-17
4.64657e-17
6.52237e-15
3.29084e-14
7.37094e-14
1.20542e-13
1.6992e-13
2.20466e-13
2.71418e-13
3.22215e-13
3.72395e-13
4.21566e-13
4.69405e-13
5.15655e-13
5.6013e-13
6.02706e-13
6.43321e-13
6.8197e-13
7.18693e-13
7.53567e-13
7.86695e-13
8.18195e-13
8.48187e-13
8.76783e-13
9.04083e-13
9.30162e-13
9.55066e-13
9.78812e-13
1.00138e-12
1.02273e-12
1.04278e-12
1.0614e-12
1.07847e-12
1.09383e-12
1.10728e-12
1.11864e-12
1.12769e-12
1.13425e-12
1.1379e-12
1.13882e-12
1.13665e-12
1.13121e-12
1.12236e-12
1.11e-12
1.09407e-12
1.07454e-12
1.05145e-12
1.02487e-12
9.9494e-13
9.61832e-13
9.25782e-13
8.87068e-13
8.4601e-13
8.02961e-13
7.583e-13
7.12421e-13
6.65725e-13
6.18609e-13
5.71456e-13
5.24627e-13
4.78451e-13
4.3322e-13
3.89187e-13
3.46556e-13
3.0549e-13
2.66104e-13
2.28475e-13
1.92639e-13
1.5861e-13
1.26377e-13
9.59321e-14
6.73309e-14
4.09321e-14
1.82483e-14
3.61646e-15
2.57142e-17
7.70988e-17
1.20793e-14
7.40396e-14
1.95165e-13
3.53997e-13
5.30774e-13
7.14628e-13
9.00033e-13
1.0839e-12
1.26422e-12
1.43959e-12
1.60895e-12
1.77154e-12
1.92685e-12
2.07462e-12
2.21477e-12
2.34745e-12
2.47294e-12
2.59164e-12
2.70403e-12
2.81065e-12
2.91199e-12
3.00855e-12
3.10075e-12
3.18889e-12
3.27321e-12
3.35378e-12
3.4306e-12
3.50349e-12
3.5722e-12
3.63635e-12
3.69543e-12
3.7489e-12
3.79609e-12
3.83631e-12
3.86879e-12
3.89296e-12
3.907e-12
3.91196e-12
3.90627e-12
3.88926e-12
3.86041e-12
3.8193e-12
3.76566e-12
3.69938e-12
3.62053e-12
3.52933e-12
3.42623e-12
3.31185e-12
3.18701e-12
3.05268e-12
2.91e-12
2.76024e-12
2.60475e-12
2.44494e-12
2.28225e-12
2.11811e-12
1.95388e-12
1.79084e-12
1.63014e-12
1.47282e-12
1.31972e-12
1.17152e-12
1.02873e-12
8.9168e-13
7.60533e-13
6.3532e-13
5.15995e-13
4.02542e-13
2.95276e-13
1.9558e-13
1.07641e-13
4.08748e-14
6.66176e-15
4.23909e-17
1.11931e-16
1.82322e-14
1.22196e-13
3.56675e-13
7.0349e-13
1.11947e-12
1.56886e-12
2.02908e-12
2.48695e-12
2.93467e-12
3.36751e-12
3.78249e-12
4.17781e-12
4.5525e-12
4.90629e-12
5.23947e-12
5.55277e-12
5.8473e-12
6.12442e-12
6.38565e-12
6.63255e-12
6.86664e-12
7.0893e-12
7.30172e-12
7.50482e-12
7.69924e-12
7.8853e-12
8.063e-12
8.23201e-12
8.39173e-12
8.54124e-12
8.67939e-12
8.8048e-12
8.91589e-12
9.01094e-12
9.08811e-12
9.14612e-12
9.17994e-12
9.19291e-12
9.1807e-12
9.14171e-12
9.07464e-12
8.97845e-12
8.85245e-12
8.69633e-12
8.5102e-12
8.29462e-12
8.05061e-12
7.77966e-12
7.48372e-12
7.16512e-12
6.8266e-12
6.47118e-12
6.10212e-12
5.72281e-12
5.33669e-12
4.94715e-12
4.55746e-12
4.17062e-12
3.78939e-12
3.41612e-12
3.05277e-12
2.70086e-12
2.36147e-12
2.03524e-12
1.72247e-12
1.42322e-12
1.13763e-12
8.66571e-13
6.12938e-13
3.84106e-13
1.95036e-13
6.69368e-14
9.96729e-15
6.09731e-17
1.50417e-16
2.49314e-14
1.74709e-13
5.41568e-13
1.13283e-12
1.89185e-12
2.74876e-12
3.64777e-12
4.5518e-12
5.43808e-12
6.29265e-12
7.10749e-12
7.87829e-12
8.60328e-12
9.28242e-12
9.91701e-12
1.05093e-11
1.10622e-11
1.15792e-11
1.20639e-11
1.25199e-11
1.29506e-11
1.33591e-11
1.3748e-11
1.41194e-11
1.44747e-11
1.48146e-11
1.51392e-11
1.5448e-11
1.57398e-11
1.60128e-11
1.62649e-11
1.64934e-11
1.66952e-11
1.68672e-11
1.70058e-11
1.71082e-11
1.71655e-11
1.71837e-11
1.71546e-11
1.70752e-11
1.69431e-11
1.67566e-11
1.65143e-11
1.62158e-11
1.58615e-11
1.54523e-11
1.49904e-11
1.44786e-11
1.39205e-11
1.33206e-11
1.2684e-11
1.20163e-11
1.13236e-11
1.06121e-11
9.88815e-12
9.15804e-12
8.42771e-12
7.70269e-12
6.98793e-12
6.28769e-12
5.60545e-12
4.9439e-12
4.30488e-12
3.68954e-12
3.09856e-12
2.53257e-12
1.99318e-12
1.48465e-12
1.01695e-12
6.0957e-13
2.92565e-13
9.46027e-14
1.34684e-14
8.09613e-17
1.92266e-16
3.21611e-14
2.30967e-13
7.42381e-13
1.61532e-12
2.7962e-12
4.18347e-12
5.67765e-12
7.20221e-12
8.70522e-12
1.01545e-11
1.15317e-11
1.28272e-11
1.40374e-11
1.51626e-11
1.62058e-11
1.71722e-11
1.80677e-11
1.88994e-11
1.96742e-11
2.03992e-11
2.10807e-11
2.17246e-11
2.23355e-11
2.29172e-11
2.34722e-11
2.40019e-11
2.45065e-11
2.4985e-11
2.54357e-11
2.58555e-11
2.6241e-11
2.65877e-11
2.68908e-11
2.7145e-11
2.73447e-11
2.74842e-11
2.75537e-11
2.75594e-11
2.74888e-11
2.73375e-11
2.71021e-11
2.67802e-11
2.63701e-11
2.58714e-11
2.52851e-11
2.46132e-11
2.38592e-11
2.30279e-11
2.21251e-11
2.11579e-11
2.01344e-11
1.90634e-11
1.79543e-11
1.68166e-11
1.56603e-11
1.44947e-11
1.3329e-11
1.21716e-11
1.10299e-11
9.91048e-12
8.81844e-12
7.75783e-12
6.73151e-12
5.74147e-12
4.78934e-12
3.87753e-12
3.01122e-12
2.20162e-12
1.47045e-12
8.53356e-13
3.94637e-13
1.23191e-13
1.71205e-14
1.02001e-16
2.37318e-16
3.9913e-14
2.90892e-13
9.56592e-13
2.13731e-12
3.7968e-12
5.80962e-12
8.02811e-12
1.03247e-11
1.2606e-11
1.48108e-11
1.69026e-11
1.8862e-11
2.06816e-11
2.23619e-11
2.39083e-11
2.53298e-11
2.66374e-11
2.78428e-11
2.89583e-11
2.99954e-11
3.09648e-11
3.18758e-11
3.27359e-11
3.35511e-11
3.43254e-11
3.50608e-11
3.57577e-11
3.64147e-11
3.7029e-11
3.75965e-11
3.81116e-11
3.85683e-11
3.89595e-11
3.92778e-11
3.95156e-11
3.96608e-11
3.97121e-11
3.96683e-11
3.95142e-11
3.92446e-11
3.88555e-11
3.83443e-11
3.77097e-11
3.69519e-11
3.6073e-11
3.50765e-11
3.39678e-11
3.27541e-11
3.14438e-11
3.0047e-11
2.85749e-11
2.70395e-11
2.54537e-11
2.38305e-11
2.2183e-11
2.05239e-11
1.88653e-11
1.72184e-11
1.55929e-11
1.39975e-11
1.2439e-11
1.09227e-11
9.4527e-12
8.03218e-12
6.66455e-12
5.35541e-12
4.11579e-12
2.96692e-12
1.94542e-12
1.1041e-12
4.98527e-13
1.5236e-13
2.08861e-14
1.23824e-16
2.85481e-16
4.81824e-14
3.54529e-13
1.18361e-12
2.69327e-12
4.87385e-12
7.58443e-12
1.06288e-11
1.38206e-11
1.70138e-11
2.01077e-11
2.30403e-11
2.57782e-11
2.8308e-11
3.06297e-11
3.27519e-11
3.46887e-11
3.64571e-11
3.80756e-11
3.95626e-11
4.09357e-11
4.22107e-11
4.34012e-11
4.45184e-11
4.55707e-11
4.65636e-11
4.75001e-11
4.83808e-11
4.92036e-11
4.99646e-11
5.06583e-11
5.12775e-11
5.18141e-11
5.2259e-11
5.26029e-11
5.28363e-11
5.29374e-11
5.29216e-11
5.27791e-11
5.24866e-11
5.20426e-11
5.14432e-11
5.06863e-11
4.97717e-11
4.87009e-11
4.74776e-11
4.61075e-11
4.45982e-11
4.29594e-11
4.12025e-11
3.93403e-11
3.73872e-11
3.53583e-11
3.32695e-11
3.11367e-11
2.89761e-11
2.68029e-11
2.46319e-11
2.24763e-11
2.0348e-11
1.82572e-11
1.6212e-11
1.42191e-11
1.22836e-11
1.04101e-11
8.60462e-12
6.87692e-12
5.24556e-12
3.74361e-12
2.42374e-12
1.35541e-12
6.02803e-13
1.81883e-13
2.47344e-14
1.46223e-16
3.36696e-16
5.69662e-14
4.21937e-13
1.42352e-12
3.28132e-12
6.01803e-12
9.48315e-12
1.34326e-11
1.7616e-11
2.18264e-11
2.59153e-11
2.97885e-11
3.33944e-11
3.67113e-11
3.97383e-11
4.24875e-11
4.49791e-11
4.72375e-11
4.92892e-11
5.11601e-11
5.28747e-11
5.4455e-11
5.59196e-11
5.72835e-11
5.8558e-11
5.97505e-11
6.08648e-11
6.19014e-11
6.2858e-11
6.37296e-11
6.45091e-11
6.51879e-11
6.57561e-11
6.62031e-11
6.65179e-11
6.66898e-11
6.6687e-11
6.6542e-11
6.62465e-11
6.57568e-11
6.50807e-11
6.42156e-11
6.3161e-11
6.19181e-11
6.04905e-11
5.8884e-11
5.71066e-11
5.51685e-11
5.3082e-11
5.08611e-11
4.85214e-11
4.608e-11
4.35545e-11
4.09635e-11
3.83253e-11
3.56582e-11
3.29797e-11
3.03062e-11
2.76527e-11
2.50323e-11
2.24564e-11
1.99341e-11
1.74728e-11
1.50788e-11
1.2758e-11
1.05193e-11
8.37709e-12
6.35814e-12
4.5078e-12
2.89458e-12
1.6037e-12
7.06638e-13
2.11594e-13
2.86412e-14
1.69044e-16
3.90921e-16
6.62616e-14
4.93161e-13
1.67653e-12
3.90111e-12
7.2255e-12
1.14926e-11
1.64105e-11
2.16612e-11
2.69701e-11
3.21345e-11
3.70229e-11
4.15615e-11
4.57192e-11
4.94933e-11
5.29001e-11
5.59667e-11
5.87262e-11
6.12139e-11
6.34646e-11
6.55105e-11
6.73804e-11
6.90985e-11
7.06839e-11
7.21511e-11
7.35093e-11
7.47635e-11
7.59143e-11
7.6959e-11
7.78917e-11
7.87043e-11
7.93869e-11
7.99284e-11
8.03171e-11
8.05412e-11
8.05888e-11
8.04188e-11
8.0085e-11
7.95775e-11
7.88389e-11
7.78782e-11
7.66997e-11
7.53047e-11
7.36967e-11
7.18814e-11
6.98671e-11
6.76642e-11
6.52853e-11
6.27453e-11
6.00605e-11
5.7249e-11
5.433e-11
5.13233e-11
4.82492e-11
4.51281e-11
4.19797e-11
3.88231e-11
3.56758e-11
3.25538e-11
2.94711e-11
2.64396e-11
2.3469e-11
2.05672e-11
1.77411e-11
1.49982e-11
1.23495e-11
9.81446e-12
7.42736e-12
5.24536e-12
3.35182e-12
1.84699e-12
8.0954e-13
2.41376e-13
3.25893e-14
1.92177e-16
4.48111e-16
7.6064e-14
5.68213e-13
1.94281e-12
4.55269e-12
8.49498e-12
1.36057e-11
1.95454e-11
2.59239e-11
3.23941e-11
3.8694e-11
4.46507e-11
5.01661e-11
5.51981e-11
5.97424e-11
6.38197e-11
6.74652e-11
7.07214e-11
7.36337e-11
7.62464e-11
7.86005e-11
8.0732e-11
8.26711e-11
8.44416e-11
8.6061e-11
8.75409e-11
8.88872e-11
9.01013e-11
9.118e-11
9.21171e-11
9.29038e-11
9.35296e-11
9.39828e-11
9.42514e-11
9.43235e-11
9.41833e-11
9.37869e-11
9.32187e-11
9.24353e-11
9.14104e-11
9.01222e-11
8.85935e-11
8.68276e-11
8.48303e-11
8.26097e-11
8.01765e-11
7.75434e-11
7.47253e-11
7.17391e-11
6.86033e-11
6.53378e-11
6.19634e-11
5.85017e-11
5.49744e-11
5.14029e-11
4.78082e-11
4.42101e-11
4.06269e-11
3.70752e-11
3.35693e-11
3.01213e-11
2.67413e-11
2.34371e-11
2.02162e-11
1.7087e-11
1.40625e-11
1.11661e-11
8.43902e-12
5.94882e-12
3.79231e-12
2.08426e-12
9.11231e-13
2.71156e-13
3.65675e-14
2.15552e-16
5.0821e-16
8.63658e-14
6.47073e-13
2.22238e-12
5.23612e-12
9.82539e-12
1.58184e-11
2.28262e-11
3.03822e-11
3.80627e-11
4.55422e-11
5.26036e-11
5.9123e-11
6.50466e-11
7.03688e-11
7.51152e-11
7.93299e-11
8.30662e-11
8.63802e-11
8.93266e-11
9.19558e-11
9.43116e-11
9.64306e-11
9.83415e-11
1.00065e-10
1.01616e-10
1.03002e-10
1.04223e-10
1.05278e-10
1.06161e-10
1.06862e-10
1.07371e-10
1.07676e-10
1.07766e-10
1.07631e-10
1.07241e-10
1.06579e-10
1.05729e-10
1.04624e-10
1.03279e-10
1.01635e-10
9.97323e-11
9.75773e-11
9.5179e-11
9.25476e-11
8.9696e-11
8.66389e-11
8.33933e-11
7.99776e-11
7.64121e-11
7.27179e-11
6.89171e-11
6.50324e-11
6.10863e-11
5.71012e-11
5.30984e-11
4.90984e-11
4.51199e-11
4.11797e-11
3.72922e-11
3.34696e-11
2.97218e-11
2.60567e-11
2.24819e-11
1.90062e-11
1.56443e-11
1.24224e-11
9.38718e-12
6.61513e-12
4.21486e-12
2.31515e-12
1.01161e-12
3.00903e-13
4.05701e-14
2.39142e-16
5.71141e-16
9.71554e-14
7.29676e-13
2.51511e-12
5.95108e-12
1.12155e-11
1.8127e-11
2.62441e-11
3.50197e-11
4.39488e-11
5.26398e-11
6.08294e-11
6.83668e-11
7.51865e-11
8.1282e-11
8.66849e-11
9.14488e-11
9.56387e-11
9.93225e-11
1.02566e-10
1.0543e-10
1.07966e-10
1.10219e-10
1.12221e-10
1.13997e-10
1.15565e-10
1.16934e-10
1.18107e-10
1.19081e-10
1.19851e-10
1.2041e-10
1.20746e-10
1.20849e-10
1.20709e-10
1.20317e-10
1.1963e-10
1.18676e-10
1.17505e-10
1.16051e-10
1.14347e-10
1.12343e-10
1.10052e-10
1.07501e-10
1.04701e-10
1.01663e-10
9.84031e-11
9.49367e-11
9.12824e-11
8.74601e-11
8.3491e-11
7.93973e-11
7.52018e-11
7.09278e-11
6.65984e-11
6.22362e-11
5.78631e-11
5.34997e-11
4.91649e-11
4.48755e-11
4.0646e-11
3.64886e-11
3.2413e-11
2.8427e-11
2.45381e-11
2.07553e-11
1.7094e-11
1.35825e-11
1.02714e-11
7.24418e-12
4.61956e-12
2.53975e-12
1.11073e-12
3.30628e-13
4.45978e-14
2.62948e-16
6.36802e-16
1.08416e-13
8.15912e-13
2.82066e-12
6.69676e-12
1.26634e-11
2.05272e-11
2.97907e-11
3.98213e-11
5.00294e-11
5.99543e-11
6.92853e-11
7.78445e-11
8.55548e-11
9.24097e-11
9.84474e-11
1.03733e-10
1.08342e-10
1.12358e-10
1.15857e-10
1.1891e-10
1.21579e-10
1.23914e-10
1.25955e-10
1.27732e-10
1.29263e-10
1.30561e-10
1.3163e-10
1.32469e-10
1.33074e-10
1.33439e-10
1.33553e-10
1.33409e-10
1.32997e-10
1.32309e-10
1.31288e-10
1.30023e-10
1.28504e-10
1.26688e-10
1.24604e-10
1.22239e-10
1.19558e-10
1.16615e-10
1.13421e-10
1.0999e-10
1.06338e-10
1.02482e-10
9.84429e-11
9.42401e-11
8.98959e-11
8.54329e-11
8.08744e-11
7.62439e-11
7.15648e-11
6.68598e-11
6.21509e-11
5.74588e-11
5.28025e-11
4.81988e-11
4.36625e-11
3.92055e-11
3.48375e-11
3.05663e-11
2.63991e-11
2.23449e-11
1.84193e-11
1.46516e-11
1.1095e-11
7.83785e-12
5.00741e-12
2.75852e-12
1.20876e-12
3.6038e-13
4.86573e-14
2.87004e-16
7.0506e-16
1.20126e-13
9.05618e-13
3.13849e-12
7.47182e-12
1.41662e-11
2.30138e-11
3.34566e-11
4.47721e-11
5.62824e-11
6.74559e-11
7.79335e-11
8.75101e-11
9.6098e-11
1.03691e-10
1.10336e-10
1.16108e-10
1.21099e-10
1.25404e-10
1.29112e-10
1.32307e-10
1.35058e-10
1.37425e-10
1.39454e-10
1.41177e-10
1.4262e-10
1.43795e-10
1.4471e-10
1.45366e-10
1.4576e-10
1.45888e-10
1.45741e-10
1.45313e-10
1.44598e-10
1.43581e-10
1.42209e-10
1.40621e-10
1.38741e-10
1.36556e-10
1.34088e-10
1.31364e-10
1.28304e-10
1.2498e-10
1.21408e-10
1.17602e-10
1.1358e-10
1.0936e-10
1.04961e-10
1.00405e-10
9.57138e-11
9.09108e-11
8.6019e-11
8.10621e-11
7.60633e-11
7.10455e-11
6.60306e-11
6.10393e-11
5.60908e-11
5.12021e-11
4.63879e-11
4.16605e-11
3.70296e-11
3.2503e-11
2.80877e-11
2.37927e-11
1.96332e-11
1.56387e-11
1.18635e-11
8.39934e-12
5.38007e-12
2.9722e-12
1.306e-12
3.90241e-13
5.27592e-14
3.11371e-16
7.75748e-16
1.32257e-13
9.98579e-13
3.46782e-12
8.27435e-12
1.572e-11
2.55795e-11
3.72303e-11
4.98552e-11
6.2685e-11
7.51151e-11
8.6738e-11
9.73215e-11
1.06768e-10
1.15073e-10
1.22291e-10
1.28513e-10
1.33843e-10
1.38391e-10
1.42262e-10
1.45548e-10
1.48333e-10
1.50681e-10
1.52647e-10
1.54268e-10
1.55574e-10
1.5658e-10
1.57297e-10
1.57728e-10
1.57874e-10
1.5773e-10
1.57292e-10
1.56556e-10
1.55518e-10
1.54142e-10
1.52433e-10
1.50507e-10
1.48265e-10
1.45717e-10
1.42874e-10
1.39786e-10
1.36379e-10
1.32691e-10
1.28761e-10
1.24604e-10
1.20236e-10
1.15675e-10
1.10943e-10
1.0606e-10
1.01049e-10
9.59327e-11
9.0734e-11
8.54764e-11
8.01832e-11
7.48773e-11
6.95805e-11
6.43137e-11
5.90961e-11
5.39451e-11
4.88757e-11
4.39005e-11
3.90296e-11
3.4271e-11
2.96316e-11
2.51202e-11
2.07516e-11
1.65548e-11
1.25841e-11
8.93275e-12
5.73966e-12
3.18174e-12
1.40281e-12
4.20318e-13
5.69182e-14
3.36136e-16
8.48662e-16
1.44772e-13
1.09452e-12
3.80766e-12
9.10182e-12
1.73197e-11
2.82158e-11
4.10984e-11
5.50519e-11
6.92125e-11
8.29018e-11
9.5663e-11
1.07238e-10
1.17519e-10
1.26506e-10
1.34262e-10
1.40893e-10
1.46518e-10
1.51264e-10
1.55248e-10
1.58579e-10
1.61347e-10
1.6363e-10
1.65485e-10
1.6696e-10
1.68085e-10
1.68883e-10
1.69365e-10
1.69539e-10
1.69407e-10
1.68967e-10
1.68219e-10
1.67159e-10
1.65787e-10
1.64045e-10
1.62023e-10
1.59748e-10
1.57155e-10
1.54255e-10
1.5106e-10
1.47618e-10
1.43891e-10
1.39863e-10
1.35599e-10
1.31115e-10
1.26426e-10
1.2155e-10
1.1651e-10
1.11324e-10
1.06016e-10
1.00608e-10
9.51237e-11
8.95859e-11
8.4018e-11
7.84426e-11
7.28819e-11
6.73567e-11
6.18868e-11
5.64897e-11
5.11812e-11
4.59743e-11
4.08797e-11
3.59058e-11
3.10598e-11
2.63505e-11
2.1792e-11
1.74123e-11
1.32646e-11
9.44268e-12
6.08859e-12
3.38823e-12
1.49963e-12
4.50742e-13
6.11518e-14
3.61403e-16
9.23562e-16
1.57632e-13
1.19312e-12
4.15679e-12
9.95115e-12
1.89591e-11
3.0912e-11
4.50453e-11
6.03407e-11
7.5838e-11
9.07836e-11
1.04672e-10
1.17218e-10
1.28308e-10
1.37943e-10
1.462e-10
1.53198e-10
1.59075e-10
1.63972e-10
1.68024e-10
1.71352e-10
1.74059e-10
1.76231e-10
1.77936e-10
1.79224e-10
1.80134e-10
1.8069e-10
1.8091e-10
1.80803e-10
1.80374e-10
1.79625e-10
1.78558e-10
1.77173e-10
1.7546e-10
1.73366e-10
1.71048e-10
1.68435e-10
1.65509e-10
1.6228e-10
1.58759e-10
1.54982e-10
1.50962e-10
1.46623e-10
1.42053e-10
1.37267e-10
1.32281e-10
1.27114e-10
1.21786e-10
1.16317e-10
1.1073e-10
1.05048e-10
9.92934e-11
9.34897e-11
8.76601e-11
8.18276e-11
7.60144e-11
7.02417e-11
6.45296e-11
5.88964e-11
5.33584e-11
4.79295e-11
4.26212e-11
3.74427e-11
3.24017e-11
2.75069e-11
2.27719e-11
1.82236e-11
1.39134e-11
9.93398e-12
6.42943e-12
3.59286e-12
1.59694e-12
4.81655e-13
6.54799e-14
3.87289e-16
1.00017e-15
1.70786e-13
1.29397e-12
4.51377e-12
1.08186e-11
2.06308e-11
3.3656e-11
4.90529e-11
6.56978e-11
8.25322e-11
9.87266e-11
1.13726e-10
1.27222e-10
1.39092e-10
1.49341e-10
1.58061e-10
1.65385e-10
1.7147e-10
1.76475e-10
1.80551e-10
1.83833e-10
1.86437e-10
1.8846e-10
1.89978e-10
1.91047e-10
1.91713e-10
1.92004e-10
1.91942e-10
1.9154e-10
1.90807e-10
1.89747e-10
1.88364e-10
1.86663e-10
1.84605e-10
1.82208e-10
1.796e-10
1.76675e-10
1.73442e-10
1.69913e-10
1.66099e-10
1.62017e-10
1.57718e-10
1.53113e-10
1.48261e-10
1.43197e-10
1.37937e-10
1.32498e-10
1.26899e-10
1.21162e-10
1.15309e-10
1.09363e-10
1.03347e-10
9.72841e-11
9.1199e-11
8.51146e-11
7.90535e-11
7.30375e-11
6.70871e-11
6.12215e-11
5.54578e-11
4.98109e-11
4.42933e-11
3.89152e-11
3.36851e-11
2.86118e-11
2.37087e-11
1.90011e-11
1.45385e-11
1.04115e-11
6.76478e-12
3.79682e-12
1.69523e-12
5.13211e-13
6.99239e-14
4.13924e-16
1.07816e-15
1.8418e-13
1.39665e-12
4.87695e-12
1.17001e-11
2.23266e-11
3.64337e-11
5.31011e-11
7.10971e-11
8.92636e-11
1.06695e-10
1.22788e-10
1.37208e-10
1.49827e-10
1.60657e-10
1.69801e-10
1.77411e-10
1.83663e-10
1.88735e-10
1.92795e-10
1.95993e-10
1.98459e-10
2.003e-10
2.01601e-10
2.02427e-10
2.02829e-10
2.02841e-10
2.02488e-10
2.01788e-10
2.00753e-10
1.99389e-10
1.97704e-10
1.957e-10
1.93321e-10
1.90677e-10
1.87786e-10
1.84583e-10
1.8108e-10
1.77287e-10
1.73213e-10
1.6887e-10
1.64305e-10
1.59475e-10
1.54368e-10
1.49049e-10
1.43533e-10
1.37837e-10
1.31979e-10
1.25982e-10
1.19868e-10
1.1366e-10
1.07383e-10
1.01061e-10
9.47194e-11
8.83809e-11
8.20695e-11
7.58077e-11
6.96168e-11
6.35166e-11
5.75254e-11
5.16591e-11
4.59314e-11
4.03537e-11
3.49353e-11
2.96857e-11
2.46181e-11
1.97565e-11
1.51479e-11
1.088e-11
7.09715e-12
4.00129e-12
1.79499e-12
5.45561e-13
7.45055e-14
4.41439e-16
1.1572e-15
1.97752e-13
1.50066e-12
5.24445e-12
1.25907e-11
2.40369e-11
3.923e-11
5.7168e-11
7.65104e-11
9.59984e-11
1.1465e-10
1.31815e-10
1.47133e-10
1.60471e-10
1.71848e-10
1.81381e-10
1.8924e-10
1.95622e-10
2.00723e-10
2.04731e-10
2.07812e-10
2.10109e-10
2.11742e-10
2.12806e-10
2.13373e-10
2.135e-10
2.13227e-10
2.12585e-10
2.11594e-10
2.1027e-10
2.08623e-10
2.06661e-10
2.04373e-10
2.0172e-10
1.98867e-10
1.95728e-10
1.92288e-10
1.88556e-10
1.8454e-10
1.80247e-10
1.75683e-10
1.70878e-10
1.65852e-10
1.60519e-10
1.54966e-10
1.49209e-10
1.43265e-10
1.37154e-10
1.30898e-10
1.2452e-10
1.18046e-10
1.11501e-10
1.04911e-10
9.83018e-11
9.16993e-11
8.51277e-11
7.86107e-11
7.21704e-11
6.58279e-11
5.96021e-11
5.35101e-11
4.7567e-11
4.17851e-11
3.61752e-11
3.07474e-11
2.55149e-11
2.05004e-11
1.57486e-11
1.13438e-11
7.42889e-12
4.20735e-12
1.89669e-12
5.78854e-13
7.92464e-14
4.69966e-16
1.23688e-15
2.11435e-13
1.60544e-12
5.61424e-12
1.34853e-11
2.57515e-11
4.20281e-11
6.12301e-11
8.19075e-11
1.02702e-10
1.22554e-10
1.40767e-10
1.56956e-10
1.70983e-10
1.82875e-10
1.92762e-10
2.00837e-10
2.07314e-10
2.12413e-10
2.16339e-10
2.19276e-10
2.21382e-10
2.22789e-10
2.23601e-10
2.23901e-10
2.23751e-10
2.23199e-10
2.22279e-10
2.21014e-10
2.19425e-10
2.17524e-10
2.15321e-10
2.12776e-10
2.09926e-10
2.06885e-10
2.03548e-10
1.99921e-10
1.96009e-10
1.91816e-10
1.87346e-10
1.82605e-10
1.776e-10
1.72374e-10
1.66867e-10
1.61093e-10
1.55106e-10
1.48919e-10
1.42553e-10
1.36032e-10
1.2938e-10
1.22625e-10
1.15795e-10
1.08918e-10
1.02024e-10
9.51387e-11
8.82891e-11
8.15002e-11
7.47954e-11
6.81967e-11
6.1724e-11
5.53955e-11
4.92272e-11
4.3233e-11
3.74245e-11
3.1813e-11
2.64117e-11
2.12424e-11
1.63473e-11
1.1807e-11
7.76203e-12
4.41597e-12
2.00072e-12
6.13226e-13
8.41667e-14
4.99632e-16
1.3168e-15
2.25155e-13
1.71041e-12
5.98411e-12
1.43784e-11
2.74597e-11
4.48103e-11
6.52624e-11
8.72571e-11
1.09336e-10
1.30367e-10
1.49601e-10
1.66635e-10
1.81322e-10
1.93698e-10
2.0391e-10
2.1217e-10
2.18714e-10
2.23784e-10
2.27604e-10
2.30377e-10
2.32277e-10
2.33446e-10
2.34002e-10
2.34036e-10
2.33618e-10
2.328e-10
2.31622e-10
2.30112e-10
2.28291e-10
2.26174e-10
2.23771e-10
2.21026e-10
2.18045e-10
2.14852e-10
2.11374e-10
2.07615e-10
2.03576e-10
1.99257e-10
1.94658e-10
1.89779e-10
1.84621e-10
1.79208e-10
1.73551e-10
1.67577e-10
1.61366e-10
1.54936e-10
1.48307e-10
1.41506e-10
1.34561e-10
1.27502e-10
1.20362e-10
1.13171e-10
1.05963e-10
9.8767e-11
9.16128e-11
8.45273e-11
7.75356e-11
7.06606e-11
6.39233e-11
5.73428e-11
5.09359e-11
4.47174e-11
3.87002e-11
3.28964e-11
2.73194e-11
2.19905e-11
1.69495e-11
1.22731e-11
8.09825e-12
4.62795e-12
2.10745e-12
6.48797e-13
8.92851e-14
5.30552e-16
1.39652e-15
2.38835e-13
1.81496e-12
6.35174e-12
1.52639e-11
2.91499e-11
4.75582e-11
6.92391e-11
9.25269e-11
1.15865e-10
1.38047e-10
1.58277e-10
1.76127e-10
1.91447e-10
2.04281e-10
2.14791e-10
2.23211e-10
2.29799e-10
2.34819e-10
2.38517e-10
2.41113e-10
2.42797e-10
2.43727e-10
2.44031e-10
2.43809e-10
2.43139e-10
2.42079e-10
2.40674e-10
2.38955e-10
2.36946e-10
2.34663e-10
2.32109e-10
2.29232e-10
2.26174e-10
2.22888e-10
2.1933e-10
2.155e-10
2.11394e-10
2.07004e-10
2.02326e-10
1.97354e-10
1.92085e-10
1.8652e-10
1.80695e-10
1.74566e-10
1.68132e-10
1.61452e-10
1.54548e-10
1.47447e-10
1.40182e-10
1.32787e-10
1.253e-10
1.17758e-10
1.10197e-10
1.02653e-10
9.51579e-11
8.77423e-11
8.04332e-11
7.32551e-11
6.62297e-11
5.93767e-11
5.27135e-11
4.62556e-11
4.00165e-11
3.40091e-11
2.82473e-11
2.27517e-11
1.75599e-11
1.27449e-11
8.43913e-12
4.84399e-12
2.21716e-12
6.85667e-13
9.46177e-14
5.62831e-16
1.47558e-15
2.52396e-13
1.91842e-12
6.71469e-12
1.61359e-11
3.08102e-11
5.02529e-11
7.3134e-11
9.7684e-11
1.22251e-10
1.45554e-10
1.66752e-10
1.85392e-10
2.0132e-10
2.14588e-10
2.25375e-10
2.33935e-10
2.4055e-10
2.45506e-10
2.49071e-10
2.51484e-10
2.52953e-10
2.5365e-10
2.53713e-10
2.53253e-10
2.52356e-10
2.51087e-10
2.49493e-10
2.47612e-10
2.45467e-10
2.43077e-10
2.40431e-10
2.37498e-10
2.34418e-10
2.31107e-10
2.27539e-10
2.23705e-10
2.19594e-10
2.15193e-10
2.10489e-10
2.0547e-10
2.00128e-10
1.94456e-10
1.88464e-10
1.82187e-10
1.75547e-10
1.68609e-10
1.6141e-10
1.53983e-10
1.46363e-10
1.38592e-10
1.30714e-10
1.22772e-10
1.1481e-10
1.06868e-10
9.89862e-11
9.11971e-11
8.35314e-11
7.60153e-11
6.86716e-11
6.15202e-11
5.45787e-11
4.78625e-11
4.13856e-11
3.51611e-11
2.92031e-11
2.35316e-11
1.81824e-11
1.32245e-11
8.78578e-12
5.06473e-12
2.33005e-12
7.23915e-13
1.00178e-13
5.96556e-16
1.55351e-15
2.65753e-13
2.02014e-12
7.0705e-12
1.69881e-11
3.24288e-11
5.28753e-11
7.69206e-11
1.02696e-10
1.28456e-10
1.52848e-10
1.74985e-10
1.9439e-10
2.10905e-10
2.24587e-10
2.35633e-10
2.44319e-10
2.5095e-10
2.55835e-10
2.59264e-10
2.61497e-10
2.62758e-10
2.63234e-10
2.63076e-10
2.62405e-10
2.61315e-10
2.59876e-10
2.58141e-10
2.56149e-10
2.53927e-10
2.5149e-10
2.48834e-10
2.45923e-10
2.42875e-10
2.39616e-10
2.36111e-10
2.32345e-10
2.28297e-10
2.23948e-10
2.19276e-10
2.14261e-10
2.08887e-10
2.03144e-10
1.97026e-10
1.90563e-10
1.83749e-10
1.76544e-10
1.6903e-10
1.61245e-10
1.53231e-10
1.45036e-10
1.36713e-10
1.28313e-10
1.1989e-10
1.11492e-10
1.03165e-10
9.49478e-11
8.6876e-11
7.89781e-11
7.12781e-11
6.3796e-11
5.6549e-11
4.95519e-11
4.28181e-11
3.63605e-11
3.0193e-11
2.4335e-11
1.88201e-11
1.37137e-11
9.13873e-12
5.29084e-12
2.44626e-12
7.6359e-13
1.05975e-13
6.31797e-16
1.62982e-15
2.78824e-13
2.11945e-12
7.41668e-12
1.78143e-11
3.39938e-11
5.54064e-11
8.05728e-11
1.07529e-10
1.34443e-10
1.5989e-10
1.82937e-10
2.03084e-10
2.20164e-10
2.34246e-10
2.4554e-10
2.54344e-10
2.60986e-10
2.658e-10
2.69097e-10
2.71159e-10
2.72227e-10
2.72502e-10
2.72151e-10
2.71302e-10
2.70059e-10
2.68497e-10
2.66675e-10
2.64632e-10
2.62396e-10
2.59982e-10
2.57394e-10
2.54596e-10
2.51639e-10
2.48511e-10
2.45147e-10
2.41524e-10
2.37613e-10
2.33383e-10
2.28803e-10
2.23846e-10
2.18487e-10
2.12707e-10
2.06499e-10
1.99861e-10
1.92841e-10
1.85395e-10
1.77543e-10
1.69366e-10
1.60914e-10
1.52242e-10
1.43413e-10
1.34489e-10
1.25535e-10
1.16609e-10
1.07767e-10
9.90566e-11
9.0518e-11
8.2184e-11
7.40806e-11
6.6228e-11
5.86423e-11
5.13369e-11
4.43239e-11
3.76147e-11
3.12225e-11
2.51656e-11
1.94755e-11
1.4214e-11
9.4989e-12
5.52226e-12
2.56581e-12
8.04716e-13
1.12015e-13
6.68602e-16
1.70405e-15
2.91524e-13
2.21567e-12
7.75077e-12
1.86085e-11
3.54936e-11
5.78279e-11
8.40653e-11
1.12154e-10
1.40177e-10
1.66642e-10
1.9057e-10
2.11435e-10
2.29067e-10
2.43536e-10
2.55073e-10
2.63992e-10
2.70648e-10
2.75397e-10
2.78574e-10
2.8048e-10
2.81376e-10
2.8148e-10
2.80968e-10
2.79982e-10
2.78632e-10
2.77e-10
2.75149e-10
2.7312e-10
2.70941e-10
2.68625e-10
2.66174e-10
2.63579e-10
2.60802e-10
2.57875e-10
2.54732e-10
2.51331e-10
2.47631e-10
2.43591e-10
2.3917e-10
2.34329e-10
2.29034e-10
2.2326e-10
2.16989e-10
2.10216e-10
2.0296e-10
1.95273e-10
1.87078e-10
1.78478e-10
1.69542e-10
1.60337e-10
1.50935e-10
1.41414e-10
1.31849e-10
1.22314e-10
1.12876e-10
1.03593e-10
9.45148e-11
8.5679e-11
7.71148e-11
6.88429e-11
6.08781e-11
5.32316e-11
4.59127e-11
3.89306e-11
3.22965e-11
2.60267e-11
2.01508e-11
1.47267e-11
9.86675e-12
5.759e-12
2.68866e-12
8.47291e-13
1.18301e-13
7.07001e-16
1.77571e-15
3.03771e-13
2.30816e-12
8.07041e-12
1.93649e-11
3.69171e-11
6.01224e-11
8.73739e-11
1.1654e-10
1.45623e-10
1.73068e-10
1.97847e-10
2.19412e-10
2.37581e-10
2.52432e-10
2.64209e-10
2.73249e-10
2.79927e-10
2.84624e-10
2.87699e-10
2.89473e-10
2.90225e-10
2.90189e-10
2.89556e-10
2.88477e-10
2.87072e-10
2.85428e-10
2.8361e-10
2.81663e-10
2.79614e-10
2.77473e-10
2.7524e-10
2.729e-10
2.70429e-10
2.67787e-10
2.64929e-10
2.61834e-10
2.58422e-10
2.54645e-10
2.50452e-10
2.4579e-10
2.40616e-10
2.34894e-10
2.28599e-10
2.21719e-10
2.14258e-10
2.06271e-10
1.97758e-10
1.88703e-10
1.7924e-10
1.69444e-10
1.59402e-10
1.49203e-10
1.38942e-10
1.28706e-10
1.1858e-10
1.08635e-10
9.89314e-11
8.95157e-11
8.04216e-11
7.16712e-11
6.32785e-11
5.52512e-11
4.7595e-11
4.03151e-11
3.34194e-11
2.69214e-11
2.08479e-11
1.52525e-11
1.02425e-11
6.00096e-12
2.81471e-12
8.91286e-13
1.24833e-13
7.46999e-16
1.84436e-15
3.15487e-13
2.39629e-12
8.37335e-12
2.00779e-11
3.8254e-11
6.22735e-11
9.04764e-11
1.20659e-10
1.50751e-10
1.79134e-10
2.04736e-10
2.2698e-10
2.45678e-10
2.60909e-10
2.72932e-10
2.82101e-10
2.88817e-10
2.93482e-10
2.96478e-10
2.98148e-10
2.98789e-10
2.98653e-10
2.97942e-10
2.9682e-10
2.95413e-10
2.93816e-10
2.92097e-10
2.90302e-10
2.88456e-10
2.86568e-10
2.84632e-10
2.82627e-10
2.80521e-10
2.78268e-10
2.75823e-10
2.73078e-10
2.70031e-10
2.66591e-10
2.62698e-10
2.58283e-10
2.5329e-10
2.47673e-10
2.41398e-10
2.34445e-10
2.26812e-10
2.18516e-10
2.09656e-10
2.00158e-10
1.90124e-10
1.79682e-10
1.6893e-10
1.57975e-10
1.46926e-10
1.35893e-10
1.24976e-10
1.14267e-10
1.0384e-10
9.37537e-11
8.4048e-11
7.47488e-11
6.58692e-11
5.74136e-11
4.93825e-11
4.17757e-11
3.45959e-11
2.78525e-11
2.15682e-11
1.57923e-11
1.06263e-11
6.248e-12
2.9438e-12
9.3665e-13
1.31604e-13
7.88583e-16
1.90957e-15
3.26596e-13
2.47949e-12
8.65752e-12
2.07426e-11
3.94949e-11
6.42664e-11
9.33522e-11
1.24486e-10
1.55531e-10
1.84809e-10
2.11204e-10
2.34112e-10
2.53331e-10
2.68946e-10
2.81223e-10
2.90538e-10
2.97312e-10
3.0197e-10
3.04917e-10
3.06516e-10
3.07086e-10
3.06891e-10
3.0615e-10
3.05036e-10
3.03684e-10
3.02195e-10
3.00639e-10
2.99064e-10
2.97494e-10
2.95934e-10
2.94373e-10
2.92783e-10
2.91121e-10
2.89333e-10
2.87354e-10
2.85108e-10
2.82517e-10
2.79438e-10
2.75927e-10
2.71825e-10
2.67077e-10
2.61624e-10
2.55418e-10
2.4843e-10
2.40652e-10
2.32094e-10
2.22839e-10
2.12915e-10
2.02286e-10
1.91153e-10
1.79628e-10
1.67837e-10
1.5591e-10
1.43978e-10
1.32164e-10
1.2058e-10
1.0932e-10
9.84591e-11
8.80474e-11
7.81166e-11
6.86803e-11
5.97397e-11
5.12891e-11
4.33211e-11
3.58312e-11
2.88228e-11
2.23133e-11
1.63467e-11
1.10181e-11
6.4999e-12
3.0757e-12
9.83309e-13
1.38608e-13
8.31718e-16
1.97093e-15
3.37031e-13
2.55722e-12
8.92107e-12
2.13545e-11
4.06317e-11
6.60882e-11
9.59833e-11
1.27998e-10
1.59937e-10
1.90066e-10
2.17225e-10
2.4078e-10
2.60518e-10
2.76521e-10
2.89068e-10
2.9855e-10
3.05408e-10
3.1009e-10
3.13022e-10
3.14589e-10
3.15128e-10
3.14921e-10
3.14198e-10
3.13146e-10
3.11906e-10
3.10584e-10
3.09256e-10
3.07967e-10
3.06742e-10
3.05582e-10
3.04469e-10
3.03367e-10
3.02226e-10
3.00979e-10
2.9955e-10
2.97851e-10
2.95791e-10
2.93274e-10
2.9013e-10
2.864e-10
2.81965e-10
2.76738e-10
2.70659e-10
2.63687e-10
2.55805e-10
2.4702e-10
2.37368e-10
2.26991e-10
2.15796e-10
2.03932e-10
1.91581e-10
1.78885e-10
1.65993e-10
1.53061e-10
1.40238e-10
1.27663e-10
1.15454e-10
1.03703e-10
9.2479e-11
8.18211e-11
7.17465e-11
6.22539e-11
5.33309e-11
4.49613e-11
3.71312e-11
2.98356e-11
2.30847e-11