/*--------------------------------*- C++ -*----------------------------------*\
  =========                 |
  \\      /  F ield         | OpenFOAM: The Open Source CFD Toolbox
   \\    /   O peration     | Website:  https://openfoam.org
    \\  /    A nd           | Version:  12
     \\/     M anipulation  |
\*---------------------------------------------------------------------------*/
FoamFile
{
    format      ascii;
    class       volScalarField;
    location    "5";
    object      p;
}
// * * * * * * * * * * * * * * * * * * * * * * * * * * * * * * * * * * * * * //

dimensions      [0 2 -2 0 0 0 0];

internalField   nonuniform List<scalar> 
5625
(
1.09487e-08
-9.4057e-06
-5.5591e-05
-0.000141477
-0.000257502
-0.000394354
-0.000544308
-0.00070113
-0.000859923
-0.001017
-0.00116968
-0.00131602
-0.00145466
-0.00158459
-0.00170503
-0.00181531
-0.00191476
-0.0020027
-0.00207832
-0.00214074
-0.00218898
-0.00222195
-0.00223851
-0.00223751
-0.00221779
-0.00217828
-0.00211801
-0.00203617
-0.00193219
-0.00180577
-0.00165692
-0.00148604
-0.00129392
-0.0010818
-0.000851387
-0.000604942
-0.000345085
-7.47832e-05
0.000202188
0.000481887
0.000760034
0.00103206
0.00129323
0.00153874
0.00176382
0.0019639
0.00213469
0.00227231
0.00237344
0.00243539
0.00245625
0.0024349
0.00237113
0.00226562
0.00211999
0.00193673
0.00171921
0.00147154
0.00119854
0.000905611
0.000598616
0.000283767
-3.24935e-05
-0.000343606
-0.000643013
-0.00092425
-0.00118104
-0.00140742
-0.00159793
-0.00174783
-0.00185359
-0.00191361
-0.00192929
-0.00190819
-0.00187429
9.23593e-06
-3.53132e-07
-4.19283e-05
-0.000118172
-0.000220861
-0.000342363
-0.000476171
-0.000617065
-0.000760754
-0.000903894
-0.00104395
-0.00117905
-0.00130777
-0.00142906
-0.00154205
-0.001646
-0.00174018
-0.00182387
-0.00189626
-0.00195648
-0.00200358
-0.00203655
-0.0020543
-0.00205577
-0.00203989
-0.00200566
-0.0019522
-0.00187879
-0.00178488
-0.00167021
-0.0015348
-0.00137902
-0.00120362
-0.00100975
-0.00079899
-0.000573475
-0.000335519
-8.80111e-05
0.00016556
0.000421582
0.000676068
0.000924775
0.00116331
0.0013872
0.00159206
0.00177363
0.00192795
0.00205144
0.00214104
0.0021943
0.00220947
0.00218557
0.00212246
0.00202084
0.00188225
0.00170909
0.00150452
0.00127243
0.00101735
0.000744307
0.000458776
0.00016652
-0.000126514
-0.000414301
-0.000690849
-0.000950309
-0.00118709
-0.00139595
-0.00157219
-0.00171186
-0.00181215
-0.00187186
-0.00189148
-0.00187458
-0.0018405
5.58605e-05
4.07826e-05
-1.56713e-06
-7.25808e-05
-0.000165576
-0.00027453
-0.000394391
-0.000520869
-0.000650386
-0.000780071
-0.000907682
-0.00103149
-0.00115015
-0.00126262
-0.00136802
-0.00146558
-0.00155457
-0.00163423
-0.00170377
-0.00176233
-0.00180901
-0.00184282
-0.00186277
-0.00186783
-0.00185702
-0.00182939
-0.00178411
-0.00172049
-0.00163803
-0.00153646
-0.00141576
-0.00127627
-0.00111865
-0.000943936
-0.000753583
-0.00054948
-0.000333796
-0.000109287
0.000120963
0.000353565
0.000584816
0.00081078
0.00102737
0.00123044
0.00141589
0.00157976
0.00171837
0.00182839
0.00190699
0.00195191
0.00196154
0.00193501
0.00187223
0.00177391
0.00164154
0.00147742
0.00128456
0.00106663
0.000827896
0.000573077
0.000307274
3.58361e-05
-0.000235749
-0.000501969
-0.000757386
-0.000996754
-0.00121511
-0.00140791
-0.0015711
-0.00170135
-0.00179629
-0.00185469
-0.0018756
-0.00185809
-0.00181903
0.000143926
0.000117461
6.75445e-05
-4.8139e-06
-9.46551e-05
-0.000197342
-0.00030888
-0.000425833
-0.000545312
-0.000664974
-0.000782957
-0.000897798
-0.00100834
-0.00111365
-0.00121293
-0.00130546
-0.00139052
-0.00146741
-0.00153534
-0.00159349
-0.00164097
-0.00167683
-0.0017001
-0.00170978
-0.00170491
-0.00168457
-0.00164792
-0.00159427
-0.00152308
-0.00143405
-0.0013271
-0.00120247
-0.00106072
-0.000902767
-0.000729917
-0.000543868
-0.000346685
-0.000140883
7.0667e-05
0.000284769
0.000497927
0.000706416
0.000906354
0.0010938
0.00126483
0.00141567
0.00154278
0.001643
0.00171359
0.00175239
0.00175789
0.00172925
0.0016664
0.00157005
0.00144167
0.00128348
0.00109839
0.000889955
0.000662258
0.000419822
0.000167498
-8.96538e-05
-0.000346475
-0.000597827
-0.000838687
-0.00106425
-0.00127004
-0.00145195
-0.00160637
-0.00173027
-0.00182138
-0.00187813
-0.00189821
-0.00187774
-0.00183326
0.000264909
0.000222161
0.000159224
8.05775e-05
-1.08029e-05
-0.000111647
-0.000218867
-0.000329815
-0.000442288
-0.000554502
-0.000665032
-0.000772754
-0.000876769
-0.000976329
-0.00107078
-0.00115949
-0.00124183
-0.00131713
-0.00138465
-0.0014436
-0.0014931
-0.00153223
-0.00156001
-0.00157545
-0.00157758
-0.00156544
-0.00153818
-0.00149504
-0.00143543
-0.00135895
-0.00126545
-0.00115504
-0.00102816
-0.000885585
-0.000728462
-0.00055833
-0.000377111
-0.000187136
8.89172e-06
0.00020793
0.000406636
0.000601425
0.000788548
0.000964171
0.00112448
0.00126578
0.00138462
0.00147785
0.00154281
0.00157736
0.00157998
0.00154986
0.00148692
0.00139185
0.00126607
0.00111178
0.000931831
0.000729688
0.000509334
0.000275164
3.18677e-05
-0.00021569
-0.000462586
-0.000703949
-0.000935066
-0.00115147
-0.00134902
-0.00152394
-0.00167293
-0.00179313
-0.00188224
-0.0019384
-0.00195845
-0.001937
-0.00189051
0.000409938
0.000347345
0.000267377
0.000178771
8.23842e-05
-1.98851e-05
-0.000125796
-0.00023345
-0.000341326
-0.000448211
-0.000553157
-0.000655419
-0.000754399
-0.000849588
-0.000940505
-0.00102666
-0.00110753
-0.0011825
-0.0012509
-0.00131194
-0.00136478
-0.00140849
-0.00144208
-0.00146454
-0.00147484
-0.00147199
-0.00145506
-0.00142321
-0.00137574
-0.00131216
-0.00123217
-0.00113576
-0.00102321
-0.000895139
-0.000752543
-0.000596799
-0.000429679
-0.000253361
-7.04095e-05
0.000116256
0.0003034
0.000487529
0.000664961
0.000831916
0.00098461
0.00111936
0.00123271
0.0013215
0.00138304
0.00141516
0.00141629
0.0013856
0.00132295
0.00122899
0.00110514
0.000953524
0.000776967
0.000578889
0.000363217
0.00013427
-0.000103358
-0.000344927
-0.000585669
-0.0008209
-0.00104613
-0.00125713
-0.00145002
-0.00162127
-0.00176778
-0.00188683
-0.00197613
-0.00203364
-0.00205581
-0.00203678
-0.00199242
0.000570956
0.000486065
0.000386231
0.000284911
0.000180831
7.45391e-05
-3.25217e-05
-0.000139176
-0.000244567
-0.000348067
-0.000449214
-0.000547671
-0.000643174
-0.000735474
-0.000824302
-0.000909328
-0.000990136
-0.00106621
-0.00113692
-0.00120152
-0.00125916
-0.00130891
-0.00134976
-0.00138062
-0.00140042
-0.00140808
-0.00140256
-0.00138292
-0.00134833
-0.00129815
-0.00123192
-0.00114948
-0.00105093
-0.000936727
-0.000807701
-0.000665067
-0.000510451
-0.000345896
-0.000173848
2.86816e-06
0.000181086
0.000357358
0.000528024
0.000689297
0.000837365
0.000968498
0.00107916
0.00116614
0.00122662
0.00125836
0.00125971
0.00122972
0.00116821
0.00107574
0.000953678
0.000804118
0.000629847
0.000434262
0.000221261
-4.86565e-06
-0.00023957
-0.000478174
-0.000715994
-0.000948464
-0.00117123
-0.00138023
-0.00157176
-0.00174249
-0.00188943
-0.00201
-0.00210192
-0.00216311
-0.00218998
-0.00217682
-0.00213836
0.000740435
0.000631656
0.000510014
0.000393984
0.000280183
0.000167843
5.76447e-05
-4.99321e-05
-0.000154689
-0.000256575
-0.000355626
-0.000451925
-0.000545551
-0.00063654
-0.000724844
-0.000810306
-0.000892639
-0.000971414
-0.00104606
-0.00111585
-0.00117994
-0.00123737
-0.00128708
-0.00132792
-0.00135871
-0.00137828
-0.00138545
-0.00137914
-0.00135835
-0.00132228
-0.00127028
-0.00120201
-0.00111738
-0.00101667
-0.000900528
-0.00077
-0.000626569
-0.000472153
-0.000309097
-0.000140154
3.15516e-05
0.000202583
0.000369257
0.000527735
0.000674126
0.000804593
0.000915475
0.00100341
0.00106546
0.0010992
0.00110284
0.00107531
0.00101628
0.000926242
0.000806459
0.000658975
0.000486542
0.000292535
8.0848e-05
-0.000144231
-0.000378157
-0.000616261
-0.000853887
-0.00108652
-0.00130986
-0.00151996
-0.0017132
-0.00188637
-0.0020366
-0.00216138
-0.00225849
-0.00232585
-0.00236006
-0.00235591
-0.00232648
0.000911302
0.000777663
0.000632957
0.000500842
0.000375856
0.00025594
0.00014104
3.09549e-05
-7.47643e-05
-0.00017664
-0.000275205
-0.000370962
-0.000464344
-0.000555672
-0.00064513
-0.000732735
-0.000818332
-0.000901581
-0.000981959
-0.00105877
-0.00113115
-0.0011981
-0.00125848
-0.00131107
-0.00135457
-0.00138766
-0.00140903
-0.0014174
-0.0014116
-0.00139061
-0.0013536
-0.00129999
-0.00122951
-0.00114222
-0.00103858
-0.000919472
-0.000786224
-0.000640629
-0.000484942
-0.000321856
-0.000154476
1.37459e-05
0.000179072
0.000337573
0.00048523
0.000618052
0.000732199
0.00082411
0.000890631
0.000929132
0.000937618
0.000914812
0.000860222
0.000774178
0.000657833
0.000513143
0.000342802
0.000150162
-6.08834e-05
-0.000286029
-0.000520701
-0.000760198
-0.000999841
-0.00123509
-0.00146167
-0.00167564
-0.00187342
-0.00205184
-0.00220812
-0.00233977
-0.00244463
-0.00252066
-0.00256475
-0.00257238
-0.00255454
0.00107687
0.000917841
0.000749333
0.000600251
0.000463073
0.000334466
0.000213653
9.97582e-05
-8.30395e-06
-0.000111625
-0.00021123
-0.000308039
-0.000402834
-0.000496224
-0.000588616
-0.000680206
-0.000770964
-0.000860634
-0.00094874
-0.00103459
-0.00111731
-0.00119583
-0.00126893
-0.00133528
-0.00139345
-0.00144195
-0.00147928
-0.00150397
-0.00151464
-0.00151002
-0.00148907
-0.00145097
-0.0013952
-0.00132161
-0.00123046
-0.00112243
-0.000998703
-0.000860935
-0.00071129
-0.000552409
-0.000387384
-0.000219705
-5.31861e-05
0.00010812
0.000260033
0.000398358
0.000519026
0.000618219
0.000692512
0.000738998
0.000755406
0.000740199
0.000692646
0.000612868
0.000501849
0.000361413
0.000194167
3.41796e-06
-0.000206949
-0.000432602
-0.000668917
-0.000911129
-0.00115449
-0.00139438
-0.00162648
-0.00184677
-0.00205168
-0.002238
-0.00240296
-0.00254408
-0.00265923
-0.00274636
-0.00280271
-0.00282452
-0.00282036
0.00123072
0.00104611
0.000853463
0.000686916
0.000536903
0.00039882
0.000271165
0.000152393
4.07828e-05
-6.532e-05
-0.000167425
-0.000266864
-0.000364761
-0.000462002
-0.000559216
-0.000656765
-0.000754739
-0.000852958
-0.000950979
-0.00104811
-0.00114344
-0.00123582
-0.00132395
-0.00140634
-0.00148142
-0.0015475
-0.00160288
-0.00164586
-0.00167482
-0.00168823
-0.00168479
-0.0016634
-0.00162331
-0.00156411
-0.00148582
-0.00138893
-0.00127443
-0.00114385
-0.000999235
-0.000843177
-0.000678758
-0.00050951
-0.000339342
-0.000172451
-1.32146e-05
0.000133934
0.000264644
0.000374784
0.000460593
0.000518818
0.000546838
0.000542778
0.000505593
0.000435123
0.000332112
0.000198195
3.58468e-05
-0.000151708
-0.000360612
-0.000586511
-0.000824722
-0.00107039
-0.00131864
-0.00156476
-0.00180427
-0.00203307
-0.00224745
-0.00244415
-0.0026203
-0.00277341
-0.00290128
-0.00300188
-0.0030727
-0.00311083
-0.00312206
0.00136664
0.00115653
0.000939707
0.000755503
0.0005923
0.000444213
0.000309011
0.000184476
6.82501e-05
-4.18789e-05
-0.000147898
-0.000251542
-0.000354265
-0.000457221
-0.000561248
-0.000666865
-0.00077427
-0.000883347
-0.000993676
-0.00110455
-0.001215
-0.00132381
-0.00142953
-0.00153055
-0.00162509
-0.00171127
-0.00178715
-0.00185077
-0.00190023
-0.00193373
-0.00194967
-0.00194667
-0.00192368
-0.00188
-0.00181541
-0.00173015
-0.00162501
-0.00150135
-0.00136111
-0.0012068
-0.00104147
-0.000868713
-0.000692525
-0.000517267
-0.000347538
-0.000188047
-4.34728e-05
8.16839e-05
0.000183258
0.000257572
0.000301572
0.000312958
0.000290279
0.000233006
0.000141559
1.73099e-05
-0.000137468
-0.000319682
-0.000525534
-0.000750671
-0.000990344
-0.00123959
-0.00149339
-0.00174684
-0.0019953
-0.00223446
-0.00246044
-0.0026698
-0.00285955
-0.00302706
-0.00317003
-0.00328635
-0.00337374
-0.00343009
-0.0034582
0.00147855
0.00124324
0.00100247
0.000800654
0.000624128
0.000465714
0.000322433
0.000191385
6.95768e-05
-4.57599e-05
-0.000157082
-0.000266515
-0.000375833
-0.000486445
-0.000599385
-0.000715315
-0.000834528
-0.00095696
-0.0010822
-0.00120952
-0.00133787
-0.00146594
-0.00159214
-0.00171469
-0.0018316
-0.00194076
-0.00203998
-0.002127
-0.00219964
-0.00225577
-0.00229347
-0.00231102
-0.00230704
-0.00228055
-0.00223099
-0.00215836
-0.0020632
-0.00194667
-0.00181054
-0.00165723
-0.00148977
-0.00131175
-0.00112728
-0.000940888
-0.000757402
-0.000581841
-0.000419258
-0.00027458
-0.000152447
-5.7046e-05
8.04512e-06
3.99982e-05
3.6852e-05
-2.40086e-06
-7.77641e-05
-0.000188229
-0.000331805
-0.000505602
-0.000705935
-0.00092848
-0.00116844
-0.00142072
-0.00168013
-0.00194155
-0.00220007
-0.00245113
-0.00269058
-0.00291472
-0.00312032
-0.00330456
-0.00346493
-0.00359915
-0.00370514
-0.00378148
-0.00382781
0.00156048
0.00130046
0.00103618
0.00081701
0.000627207
0.000458294
0.00030653
0.000168319
4.00289e-05
-8.16595e-05
-0.000199666
-0.000316498
-0.000434235
-0.000554527
-0.000678592
-0.000807219
-0.000940785
-0.00107926
-0.00122224
-0.00136894
-0.00151824
-0.0016687
-0.00181859
-0.00196593
-0.00210851
-0.00224396
-0.0023698
-0.00248348
-0.00258246
-0.00266428
-0.00272665
-0.00276748
-0.00278504
-0.00277797
-0.00274538
-0.00268695
-0.00260292
-0.00249421
-0.00236241
-0.00220978
-0.00203929
-0.00185452
-0.00165967
-0.00145941
-0.00125883
-0.00106328
-0.00087823
-0.000709081
-0.000561028
-0.000438853
-0.000346766
-0.000288236
-0.000265858
-0.000281243
-0.000334946
-0.000426436
-0.000554118
-0.000715391
-0.000906757
-0.00112397
-0.0013622
-0.00161624
-0.0018807
-0.00215017
-0.00241943
-0.00268358
-0.00293809
-0.00317892
-0.00340251
-0.00360569
-0.0037857
-0.00393997
-0.00406654
-0.00416457
-0.00423045
0.00160655
0.00132251
0.00103537
0.000799244
0.000596348
0.000416882
0.000256318
0.000110358
-2.52729e-05
-0.000154444
-0.00028053
-0.000406408
-0.000534452
-0.00066654
-0.000804057
-0.000947911
-0.00109854
-0.00125596
-0.00141972
-0.001589
-0.00176258
-0.00193889
-0.00211602
-0.00229179
-0.00246374
-0.00262924
-0.00278548
-0.00292957
-0.00305862
-0.00316977
-0.00326033
-0.00332782
-0.00337007
-0.00338531
-0.00337228
-0.00333025
-0.00325915
-0.00315957
-0.00303285
-0.00288107
-0.00270705
-0.00251437
-0.00230724
-0.00209051
-0.00186949
-0.0016499
-0.00143762
-0.00123863
-0.00105872
-0.000903384
-0.000777565
-0.000685508
-0.000630579
-0.000615141
-0.000640448
-0.000706594
-0.000812508
-0.000956
-0.00113385
-0.00134197
-0.00157553
-0.00182922
-0.00209742
-0.00237441
-0.00265459
-0.00293261
-0.00320348
-0.0034627
-0.00370624
-0.00393052
-0.00413234
-0.00430879
-0.00445792
-0.00457937
-0.00466613
0.001611
0.0013038
0.000994617
0.000742099
0.000526405
0.000336412
0.000166794
1.25357e-05
-0.000131282
-0.000269074
-0.000404664
-0.000541286
-0.0006816
-0.000827696
-0.000981115
-0.00114287
-0.00131346
-0.00149289
-0.00168072
-0.00187604
-0.00207753
-0.00228346
-0.00249176
-0.00270001
-0.00290549
-0.00310526
-0.00329618
-0.00347501
-0.00363844
-0.0037832
-0.00390614
-0.00400433
-0.00407514
-0.00411633
-0.00412616
-0.00410348
-0.00404779
-0.00395933
-0.00383908
-0.00368887
-0.00351137
-0.00331001
-0.00308905
-0.00285343
-0.0026087
-0.00236091
-0.00211645
-0.00188185
-0.00166363
-0.00146805
-0.00130093
-0.00116742
-0.00107182
-0.00101742
-0.00100634
-0.00103948
-0.00111645
-0.00123562
-0.00139418
-0.00158826
-0.00181314
-0.00206341
-0.00233322
-0.00261651
-0.0029072
-0.00319941
-0.0034876
-0.00376664
-0.00403193
-0.00427934
-0.00450512
-0.00470588
-0.00487955
-0.00502626
-0.00513531
0.00156822
0.00123891
0.000908674
0.000640434
0.000412322
0.000211892
3.29984e-05
-0.000130093
-0.000282949
-0.000430526
-0.000577085
-0.000726213
-0.000880838
-0.00104325
-0.00121515
-0.00139763
-0.00159123
-0.00179598
-0.00201139
-0.00223647
-0.00246979
-0.00270947
-0.00295323
-0.00319841
-0.00344203
-0.0036808
-0.00391125
-0.00412972
-0.00433247
-0.00451578
-0.004676
-0.00480969
-0.00491368
-0.00498522
-0.00502203
-0.00502244
-0.00498544
-0.00491082
-0.00479918
-0.00465198
-0.00447161
-0.00426138
-0.00402545
-0.00376883
-0.0034973
-0.00321722
-0.00293547
-0.00265923
-0.00239576
-0.00215221
-0.0019354
-0.00175155
-0.00160605
-0.0015033
-0.00144652
-0.00143758
-0.001477
-0.00156388
-0.00169597
-0.00186978
-0.00208075
-0.00232343
-0.00259175
-0.00287927
-0.00317938
-0.00348557
-0.0037916
-0.00409162
-0.00438028
-0.00465274
-0.00490458
-0.00513179
-0.00533203
-0.00550598
-0.00563887
0.00147277
0.00112259
0.000772455
0.000489276
0.000249199
3.84593e-05
-0.000149912
-0.000322377
-0.000485144
-0.000643705
-0.000802753
-0.000966214
-0.00113728
-0.00131843
-0.0015115
-0.00171767
-0.00193752
-0.00217108
-0.0024178
-0.00267664
-0.00294601
-0.00322389
-0.00350778
-0.00379478
-0.0040816
-0.00436462
-0.00463999
-0.0049036
-0.00515127
-0.00537876
-0.00558188
-0.00575663
-0.00589925
-0.00600637
-0.00607512
-0.00610321
-0.00608906
-0.00603189
-0.00593179
-0.0057898
-0.00560795
-0.00538927
-0.0051378
-0.00485856
-0.00455745
-0.00424117
-0.00391707
-0.00359297
-0.00327697
-0.00297719
-0.00270157
-0.00245754
-0.0022518
-0.00209007
-0.00197686
-0.00191529
-0.001907
-0.00195206
-0.00204896
-0.00219477
-0.0023852
-0.00261485
-0.00287747
-0.00316619
-0.00347383
-0.00379314
-0.00411706
-0.00443884
-0.00475224
-0.00505154
-0.00533148
-0.00558729
-0.00581626
-0.00601958
-0.006178
0.00131948
0.000949833
0.00058112
0.000283884
3.23507e-05
-0.000188542
-0.000386591
-0.000568985
-0.000742568
-0.000913359
-0.00108647
-0.00126617
-0.00145588
-0.00165829
-0.00187534
-0.00210831
-0.00235781
-0.00262385
-0.00290586
-0.00320267
-0.00351262
-0.00383347
-0.00416254
-0.00449663
-0.00483218
-0.0051652
-0.00549142
-0.00580629
-0.00610511
-0.00638311
-0.0066355
-0.00685765
-0.00704516
-0.00719396
-0.0073005
-0.00736178
-0.00737554
-0.00734033
-0.00725565
-0.00712196
-0.00694084
-0.00671494
-0.00644809
-0.0061452
-0.00581225
-0.00545621
-0.00508488
-0.00470674
-0.00433075
-0.00396609
-0.00362192
-0.00330706
-0.00302969
-0.00279709
-0.00261533
-0.00248904
-0.00242124
-0.00241324
-0.00246455
-0.00257296
-0.00273465
-0.00294438
-0.00319577
-0.00348153
-0.00379386
-0.00412466
-0.00446591
-0.0048098
-0.00514902
-0.00547679
-0.00578683
-0.00607339
-0.00633337
-0.00656833
-0.00675421
0.00110348
0.000715957
0.000330131
1.98114e-05
-0.000242621
-0.000473494
-0.000681428
-0.000874329
-0.00105967
-0.00124399
-0.0014328
-0.00163069
-0.00184135
-0.00206763
-0.00231159
-0.00257459
-0.00285728
-0.00315966
-0.0034811
-0.00382038
-0.00417566
-0.00454457
-0.00492418
-0.00531106
-0.00570129
-0.00609052
-0.00647405
-0.00684686
-0.0072037
-0.0075392
-0.00784795
-0.00812463
-0.00836409
-0.00856153
-0.00871258
-0.00881348
-0.00886117
-0.00885342
-0.00878899
-0.00866767
-0.00849045
-0.0082595
-0.00797827
-0.00765151
-0.00728516
-0.00688638
-0.00646337
-0.00602525
-0.00558185
-0.00514348
-0.00472061
-0.00432359
-0.0039623
-0.0036458
-0.00338199
-0.00317732
-0.00303653
-0.00296245
-0.0029559
-0.00301569
-0.00313868
-0.00331996
-0.00355308
-0.00383042
-0.00414346
-0.00448322
-0.00484052
-0.00520635
-0.00557212
-0.00592977
-0.00627179
-0.00659132
-0.00688468
-0.00715368
-0.00736921
0.00082027
0.000416644
1.53197e-05
-0.000307026
-0.00057976
-0.000820428
-0.00103846
-0.00124248
-0.00144056
-0.00163974
-0.00184595
-0.00206407
-0.00229803
-0.00255086
-0.00282475
-0.00312113
-0.00344067
-0.00378339
-0.0041486
-0.004535
-0.00494063
-0.00536294
-0.00579879
-0.00624445
-0.00669569
-0.00714778
-0.00759556
-0.0080335
-0.00845579
-0.00885641
-0.00922928
-0.00956831
-0.00986756
-0.0101214
-0.0103246
-0.0104724
-0.010561
-0.0105872
-0.0105489
-0.010445
-0.0102759
-0.0100431
-0.00974957
-0.00939967
-0.00899926
-0.00855556
-0.00807711
-0.00757359
-0.0070557
-0.00653487
-0.006023
-0.00553208
-0.00507387
-0.00465946
-0.00429887
-0.00400069
-0.00377171
-0.00361668
-0.00353808
-0.00353607
-0.00360845
-0.00375087
-0.00395701
-0.00421891
-0.0045274
-0.00487247
-0.0052437
-0.00563066
-0.00602325
-0.00641192
-0.00678769
-0.00714238
-0.00747158
-0.00777727
-0.0080249
0.000465824
4.80215e-05
-0.000367044
-0.00070028
-0.000982681
-0.00123295
-0.00146131
-0.00167707
-0.00188891
-0.00210433
-0.00232967
-0.0025701
-0.00282978
-0.00311192
-0.00341882
-0.00375199
-0.00411216
-0.00449932
-0.00491277
-0.00535111
-0.00581227
-0.00629354
-0.00679153
-0.00730227
-0.00782117
-0.00834312
-0.00886247
-0.00937318
-0.00986882
-0.0103427
-0.010788
-0.0111979
-0.0115654
-0.0118842
-0.0121479
-0.0123509
-0.0124882
-0.0125557
-0.0125504
-0.0124702
-0.0123145
-0.0120842
-0.0117815
-0.0114103
-0.0109763
-0.0104866
-0.00994989
-0.00937639
-0.00877757
-0.008166
-0.00755501
-0.00695837
-0.00638985
-0.0058628
-0.00538966
-0.00498148
-0.00464753
-0.00439486
-0.00422803
-0.00414894
-0.00415673
-0.00424787
-0.00441637
-0.00465411
-0.00495126
-0.00529673
-0.00567874
-0.00608522
-0.00650436
-0.00692485
-0.00733598
-0.00772797
-0.00809555
-0.00844081
-0.00872321
3.66202e-05
-0.000393266
-0.000820183
-0.0011631
-0.0014545
-0.00171417
-0.0019531
-0.00218125
-0.00240787
-0.00264095
-0.00288717
-0.00315202
-0.00343987
-0.0037541
-0.00409714
-0.00447057
-0.00487517
-0.00531096
-0.00577718
-0.00627238
-0.00679437
-0.00734028
-0.00790651
-0.00848879
-0.00908223
-0.00968126
-0.0102798
-0.0108712
-0.0114485
-0.0120042
-0.0125307
-0.0130203
-0.0134652
-0.013858
-0.0141912
-0.0144583
-0.0146531
-0.0147703
-0.0148058
-0.0147565
-0.0146207
-0.0143983
-0.0140908
-0.0137016
-0.0132357
-0.0127001
-0.0121036
-0.0114567
-0.0107716
-0.0100618
-0.00934225
-0.00862837
-0.00793615
-0.0072814
-0.00667922
-0.00614351
-0.00568638
-0.00531767
-0.00504449
-0.00487095
-0.00479795
-0.00482318
-0.0049413
-0.00514419
-0.00542147
-0.00576097
-0.00614939
-0.00657288
-0.00701762
-0.00747027
-0.00791811
-0.0083495
-0.00875806
-0.00914601
-0.00946608
-0.000470261
-0.000909992
-0.00134675
-0.00169807
-0.00199776
-0.00226661
-0.00251634
-0.00275755
-0.003
-0.00325215
-0.00352103
-0.00381241
-0.00413087
-0.00447997
-0.00486226
-0.00527943
-0.00573228
-0.00622087
-0.00674442
-0.00730141
-0.00788957
-0.00850585
-0.00914646
-0.00980685
-0.0104818
-0.0111653
-0.0118507
-0.012531
-0.0131983
-0.0138446
-0.0144614
-0.01504
-0.0155718
-0.016048
-0.0164604
-0.016801
-0.0170626
-0.0172385
-0.0173235
-0.0173132
-0.0172048
-0.016997
-0.0166905
-0.0162877
-0.0157931
-0.0152134
-0.0145571
-0.0138349
-0.0130595
-0.0122454
-0.0114088
-0.010567
-0.00973823
-0.00894084
-0.00819289
-0.00751143
-0.00691183
-0.0064072
-0.00600773
-0.0057203
-0.00554809
-0.00549051
-0.00554322
-0.00569845
-0.00594538
-0.00627084
-0.00665992
-0.00709679
-0.00756538
-0.00805
-0.00853558
-0.00900833
-0.00946054
-0.00989446
-0.0102553
-0.00105708
-0.00150428
-0.00194875
-0.00230713
-0.00261439
-0.00289219
-0.00315295
-0.00340784
-0.00366718
-0.0039398
-0.00423308
-0.00455307
-0.00490456
-0.00529126
-0.00571588
-0.00618018
-0.00668504
-0.00723054
-0.00781591
-0.00843958
-0.00909917
-0.0097915
-0.0105126
-0.0112576
-0.0120209
-0.0127962
-0.0135763
-0.0143535
-0.0151194
-0.0158651
-0.0165812
-0.0172582
-0.0178864
-0.0184559
-0.0189572
-0.0193812
-0.0197192
-0.0199635
-0.0201073
-0.0201449
-0.0200723
-0.019887
-0.0195884
-0.0191779
-0.0186595
-0.018039
-0.0173247
-0.0165271
-0.0156593
-0.0147365
-0.013776
-0.012797
-0.0118199
-0.0108657
-0.00995553
-0.00910994
-0.00834797
-0.00768644
-0.00713922
-0.00671656
-0.00642456
-0.00626492
-0.00623484
-0.00632726
-0.00653125
-0.00683269
-0.00721508
-0.00766042
-0.00815013
-0.00866585
-0.00918982
-0.0097057
-0.0102042
-0.0106875
-0.0110925
-0.00172537
-0.00217756
-0.00262752
-0.00299157
-0.0033056
-0.00359209
-0.00386408
-0.0041333
-0.00441051
-0.00470496
-0.00502435
-0.00537495
-0.00576179
-0.00618875
-0.00665865
-0.00717337
-0.00773387
-0.00834026
-0.00899178
-0.00968683
-0.0104229
-0.0111968
-0.0120042
-0.0128402
-0.0136986
-0.0145728
-0.0154551
-0.0163371
-0.0172099
-0.0180635
-0.0188879
-0.0196725
-0.0204065
-0.0210788
-0.0216789
-0.0221961
-0.0226206
-0.0229431
-0.0231555
-0.0232507
-0.0232231
-0.023069
-0.0227862
-0.0223753
-0.0218394
-0.0211834
-0.0204147
-0.0195437
-0.0185836
-0.0175499
-0.016461
-0.0153375
-0.0142019
-0.0130781
-0.0119903
-0.0109628
-0.0100185
-0.00917852
-0.00846099
-0.00788019
-0.00744585
-0.00716266
-0.00703001
-0.00704209
-0.00718821
-0.00745357
-0.00782009
-0.0082675
-0.00877448
-0.00931963
-0.00988211
-0.0104426
-0.0109901
-0.0115263
-0.011979
-0.0024759
-0.00293049
-0.00338365
-0.0037519
-0.0040719
-0.00436679
-0.00465016
-0.00493427
-0.00523031
-0.00554787
-0.00589495
-0.00627808
-0.00670247
-0.00717217
-0.00769015
-0.00825839
-0.00887794
-0.00954895
-0.0102707
-0.0110416
-0.011859
-0.0127196
-0.0136189
-0.0145517
-0.0155116
-0.0164914
-0.0174829
-0.0184773
-0.0194646
-0.0204344
-0.0213756
-0.0222765
-0.0231252
-0.0239098
-0.024618
-0.0252381
-0.0257588
-0.0261694
-0.0264602
-0.0266228
-0.02665
-0.0265364
-0.0262786
-0.0258754
-0.0253299
-0.0246457
-0.0238284
-0.0228881
-0.0218385
-0.0206943
-0.0194748
-0.018202
-0.0169005
-0.0155965
-0.0143174
-0.0130914
-0.0119456
-0.0109058
-0.00999487
-0.00923193
-0.00863107
-0.00820081
-0.00794349
-0.00785524
-0.00792617
-0.00814113
-0.00848061
-0.00892204
-0.0094411
-0.0100131
-0.0106135
-0.0112199
-0.0118187
-0.0124115
-0.0129157
-0.00330861
-0.00376296
-0.00421694
-0.0045879
-0.00491301
-0.00521594
-0.0055108
-0.0058103
-0.00612602
-0.00646786
-0.0068441
-0.00726149
-0.00772545
-0.00824017
-0.00880878
-0.00943336
-0.0101151
-0.0108541
-0.0116498
-0.0125005
-0.0134037
-0.0143557
-0.015352
-0.016387
-0.017454
-0.0185456
-0.0196528
-0.0207663
-0.0218753
-0.0229687
-0.0240343
-0.0250596
-0.0260314
-0.0269366
-0.0277618
-0.0284938
-0.0291199
-0.0296281
-0.0300071
-0.0302468
-0.0303386
-0.0302756
-0.0300522
-0.0296652
-0.029118
-0.0284159
-0.0275595
-0.0265569
-0.0254224
-0.0241707
-0.0228215
-0.0213978
-0.0199257
-0.0184337
-0.0169524
-0.0155135
-0.0141486
-0.0128886
-0.0117615
-0.010792
-0.00999934
-0.00939681
-0.00899064
-0.00877971
-0.00875568
-0.00890353
-0.00920264
-0.00962817
-0.0101527
-0.0107477
-0.0113849
-0.0120377
-0.0126902
-0.0133433
-0.013903
-0.00422261
-0.00467403
-0.00512642
-0.00549854
-0.00582785
-0.00613842
-0.00644479
-0.00676008
-0.00709619
-0.00746334
-0.00787002
-0.0083232
-0.00882848
-0.00939023
-0.0100117
-0.0106951
-0.0114417
-0.0122518
-0.0131246
-0.0140587
-0.0150514
-0.0160989
-0.0171965
-0.0183385
-0.0195177
-0.0207262
-0.0219548
-0.0231932
-0.0244301
-0.0256535
-0.0268502
-0.0280068
-0.029109
-0.0301423
-0.0310922
-0.0319443
-0.0326842
-0.0332986
-0.0337747
-0.034101
-0.0342673
-0.0342651
-0.0340873
-0.0337282
-0.0331846
-0.0324702
-0.0315921
-0.0305413
-0.0293271
-0.0279722
-0.0264968
-0.0249235
-0.0232797
-0.0215958
-0.0199047
-0.0182417
-0.0166428
-0.015144
-0.0137792
-0.012579
-0.0115689
-0.0107678
-0.0101869
-0.00982881
-0.00968766
-0.0097493
-0.00999243
-0.0103901
-0.0109117
-0.0115248
-0.0121966
-0.0128961
-0.0136043
-0.0143213
-0.0149404
-0.00521616
-0.00566193
-0.0061103
-0.006482
-0.00681455
-0.00713226
-0.00745007
-0.00778141
-0.00813848
-0.00853174
-0.00896991
-0.00946015
-0.0100082
-0.0106186
-0.0112948
-0.0120391
-0.0128528
-0.0137363
-0.014689
-0.0157094
-0.0167946
-0.017941
-0.0191436
-0.0203962
-0.0216917
-0.0230215
-0.0243759
-0.025744
-0.0271138
-0.0284723
-0.0298056
-0.0310991
-0.0323375
-0.0335051
-0.0345862
-0.035565
-0.0364259
-0.0371541
-0.0377354
-0.0381568
-0.0384068
-0.0384755
-0.0383555
-0.0380421
-0.0375288
-0.0368087
-0.0358922
-0.0347993
-0.0335293
-0.0320812
-0.0304853
-0.0287676
-0.0269556
-0.0250801
-0.023176
-0.0212816
-0.0194374
-0.0176843
-0.0160625
-0.014609
-0.0133563
-0.0123299
-0.0115472
-0.0110157
-0.0107331
-0.0106871
-0.0108563
-0.011212
-0.0117206
-0.0123453
-0.0130484
-0.0137941
-0.0145597
-0.0153441
-0.0160267
-0.00628664
-0.00672408
-0.00716599
-0.00753566
-0.00787044
-0.00819472
-0.00852375
-0.00887125
-0.00924964
-0.00966959
-0.01014
-0.0106682
-0.0112602
-0.0119205
-0.0126528
-0.0134594
-0.0143419
-0.0153007
-0.0163352
-0.0174439
-0.0186241
-0.0198717
-0.0211818
-0.0225481
-0.0239627
-0.0254169
-0.0269003
-0.0284014
-0.0299076
-0.031405
-0.0328788
-0.0343132
-0.0356921
-0.0369987
-0.0382158
-0.0393264
-0.0403139
-0.0411619
-0.0418549
-0.0423786
-0.0427198
-0.0428673
-0.042812
-0.0425475
-0.0420685
-0.0413682
-0.0404484
-0.039317
-0.0379784
-0.036454
-0.0347559
-0.0329073
-0.0309361
-0.0288743
-0.026759
-0.024631
-0.0225346
-0.0205158
-0.0186209
-0.016894
-0.015375
-0.0140972
-0.0130851
-0.0123528
-0.0119026
-0.0117252
-0.0118003
-0.0120979
-0.0125813
-0.0132095
-0.0139397
-0.0147302
-0.0155544
-0.0164096
-0.0171599
-0.00743062
-0.00785707
-0.00829011
-0.00865614
-0.00899205
-0.00932223
-0.00966213
-0.0100257
-0.0104255
-0.0108725
-0.0113756
-0.0119423
-0.0125788
-0.0132898
-0.0140789
-0.0149489
-0.0159011
-0.0169363
-0.0180538
-0.0192522
-0.0205285
-0.0218789
-0.0232981
-0.0247794
-0.0263149
-0.0278952
-0.0295095
-0.0311456
-0.0327902
-0.0344285
-0.0360449
-0.0376227
-0.0391446
-0.0405926
-0.0419487
-0.0431946
-0.0443124
-0.0452844
-0.0460941
-0.0467256
-0.0471646
-0.0473982
-0.0474156
-0.047208
-0.0467687
-0.0460922
-0.0451765
-0.044023
-0.0426481
-0.0410663
-0.0392774
-0.0373121
-0.0351942
-0.0329563
-0.0306366
-0.0282779
-0.0259279
-0.023637
-0.0214575
-0.0194406
-0.0176344
-0.0160806
-0.0148122
-0.0138511
-0.0132059
-0.0128716
-0.01283
-0.013051
-0.0134952
-0.0141173
-0.0148687
-0.0157019
-0.0165853
-0.0175145
-0.0183364
-0.00864385
-0.00905675
-0.00947857
-0.00983931
-0.0101752
-0.0105105
-0.0108607
-0.01124
-0.0116611
-0.012135
-0.0126709
-0.0132763
-0.0139574
-0.0147192
-0.0155655
-0.016499
-0.0175213
-0.0186331
-0.0198339
-0.0211221
-0.022495
-0.0239485
-0.025477
-0.0270738
-0.0287304
-0.0304371
-0.0321826
-0.033954
-0.0357372
-0.0375168
-0.0392761
-0.0409977
-0.0426631
-0.0442534
-0.0457495
-0.0471319
-0.0483818
-0.0494803
-0.0504097
-0.051153
-0.0516947
-0.0520206
-0.0521183
-0.0519776
-0.0515901
-0.0509497
-0.0500535
-0.0489018
-0.0475027
-0.0458658
-0.044008
-0.0419418
-0.0396929
-0.0372934
-0.0347812
-0.0322006
-0.0296013
-0.0270378
-0.0245676
-0.022249
-0.0201383
-0.0182867
-0.0167367
-0.0155192
-0.0146509
-0.0141329
-0.0139504
-0.0140741
-0.0144629
-0.0150673
-0.0158329
-0.0167055
-0.0176482
-0.0186541
-0.0195516
-0.00992132
-0.0103182
-0.0107265
-0.0110804
-0.0114151
-0.0117545
-0.0121144
-0.0125089
-0.0129508
-0.0134512
-0.0140194
-0.014663
-0.0153885
-0.0162007
-0.0171036
-0.0181001
-0.0191919
-0.0203797
-0.0216631
-0.0230406
-0.0245092
-0.0260648
-0.0277017
-0.0294129
-0.0311895
-0.0330214