/*--------------------------------*- C++ -*----------------------------------*\
  =========                 |
  \\      /  F ield         | OpenFOAM: The Open Source CFD Toolbox
   \\    /   O peration     | Website:  https://openfoam.org
    \\  /    A nd           | Version:  12
     \\/     M anipulation  |
\*---------------------------------------------------------------------------*/
FoamFile
{
    format      ascii;
    class       volVectorField;
    location    "5";
    object      U;
}
// * * * * * * * * * * * * * * * * * * * * * * * * * * * * * * * * * * * * * //

dimensions      [0 1 -1 0 0 0 0];

internalField   nonuniform List<vector> 
5625
(
(1.12225e-05 -1.12193e-05 0)
(5.41562e-05 -1.68952e-05 0)
(9.84493e-05 -1.53072e-05 0)
(0.000125736 -1.02354e-05 0)
(0.000123636 -4.15609e-06 0)
(8.81235e-05 1.98316e-06 0)
(1.92043e-05 7.68478e-06 0)
(-8.1198e-05 1.27395e-05 0)
(-0.000210254 1.7094e-05 0)
(-0.000364791 2.07844e-05 0)
(-0.000541639 2.38834e-05 0)
(-0.000737842 2.64804e-05 0)
(-0.000950755 2.86662e-05 0)
(-0.00117807 3.05238e-05 0)
(-0.00141779 3.21241e-05 0)
(-0.00166819 3.35229e-05 0)
(-0.00192778 3.47608e-05 0)
(-0.00219519 3.58632e-05 0)
(-0.00246915 3.68412e-05 0)
(-0.00274837 3.76933e-05 0)
(-0.00303153 3.84071e-05 0)
(-0.00331722 3.89612e-05 0)
(-0.00360388 3.93269e-05 0)
(-0.00388977 3.94707e-05 0)
(-0.00417297 3.93555e-05 0)
(-0.00445137 3.89426e-05 0)
(-0.00472264 3.81934e-05 0)
(-0.00498429 3.70711e-05 0)
(-0.00523364 3.55419e-05 0)
(-0.00546788 3.35768e-05 0)
(-0.0056841 3.11527e-05 0)
(-0.00587934 2.82539e-05 0)
(-0.00605062 2.48738e-05 0)
(-0.00619504 2.10146e-05 0)
(-0.00630976 1.66829e-05 0)
(-0.00639224 1.19117e-05 0)
(-0.00643997 6.75742e-06 0)
(-0.00645113 1.23809e-06 0)
(-0.0064239 -4.56482e-06 0)
(-0.00635714 -1.05796e-05 0)
(-0.0062502 -1.67187e-05 0)
(-0.00610297 -2.28826e-05 0)
(-0.00591599 -2.89649e-05 0)
(-0.00569045 -3.4853e-05 0)
(-0.00542821 -4.04305e-05 0)
(-0.00513179 -4.55805e-05 0)
(-0.00480439 -5.01892e-05 0)
(-0.00444984 -5.41492e-05 0)
(-0.00407253 -5.73631e-05 0)
(-0.00367736 -5.97469e-05 0)
(-0.00326967 -6.12334e-05 0)
(-0.0028551 -6.17744e-05 0)
(-0.00243951 -6.13433e-05 0)
(-0.00202884 -5.9936e-05 0)
(-0.00162898 -5.75714e-05 0)
(-0.00124566 -5.42913e-05 0)
(-0.000884311 -5.01588e-05 0)
(-0.000549937 -4.52568e-05 0)
(-0.000247021 -3.96846e-05 0)
(2.05783e-05 -3.35559e-05 0)
(0.000249713 -2.69946e-05 0)
(0.000438012 -2.01323e-05 0)
(0.000583947 -1.31082e-05 0)
(0.00068686 -6.05379e-06 0)
(0.000747047 8.73945e-07 0)
(0.000765801 7.51437e-06 0)
(0.000745502 1.36897e-05 0)
(0.000689734 1.91872e-05 0)
(0.000603489 2.37271e-05 0)
(0.00049348 2.69213e-05 0)
(0.000368519 2.82268e-05 0)
(0.000240087 2.68989e-05 0)
(0.000123336 2.18951e-05 0)
(3.78543e-05 1.18835e-05 0)
(-5.82676e-07 -5.81155e-07 0)
(1.71571e-05 -5.4381e-05 0)
(8.56124e-05 -8.49845e-05 0)
(0.000138453 -6.46106e-05 0)
(0.000141923 -1.58841e-05 0)
(7.24178e-05 4.59338e-05 0)
(-7.95532e-05 0.000111606 0)
(-0.000315369 0.000175783 0)
(-0.00063182 0.00023558 0)
(-0.00102316 0.000289643 0)
(-0.00148236 0.000337565 0)
(-0.00200202 0.000379503 0)
(-0.00257496 0.000415916 0)
(-0.00319443 0.0004474 0)
(-0.00385433 0.000474569 0)
(-0.00454918 0.000497985 0)
(-0.00527407 0.000518116 0)
(-0.00602451 0.000535305 0)
(-0.00679634 0.000549766 0)
(-0.00758554 0.000561581 0)
(-0.00838809 0.000570709 0)
(-0.00919983 0.000577005 0)
(-0.0100164 0.000580232 0)
(-0.0108329 0.000580083 0)
(-0.0116443 0.000576205 0)
(-0.0124449 0.000568215 0)
(-0.0132285 0.000555724 0)
(-0.0139887 0.000538355 0)
(-0.0147184 0.000515763 0)
(-0.0154101 0.000487655 0)
(-0.0160563 0.000453801 0)
(-0.016649 0.000414058 0)
(-0.0171804 0.000368375 0)
(-0.0176426 0.000316814 0)
(-0.018028 0.000259552 0)
(-0.0183294 0.000196884 0)
(-0.0185402 0.00012921 0)
(-0.0186541 5.74231e-05 0)
(-0.0186668 -1.81921e-05 0)
(-0.0185739 -9.65396e-05 0)
(-0.0183729 -0.000176674 0)
(-0.0180625 -0.000257497 0)
(-0.017643 -0.000337813 0)
(-0.0171161 -0.000416352 0)
(-0.0164856 -0.000491794 0)
(-0.0157566 -0.000562801 0)
(-0.0149361 -0.000628049 0)
(-0.0140329 -0.000686258 0)
(-0.0130571 -0.000736238 0)
(-0.0120204 -0.000776914 0)
(-0.0109359 -0.000807367 0)
(-0.00981739 -0.000826865 0)
(-0.0086798 -0.000834884 0)
(-0.00753843 -0.000831137 0)
(-0.0064088 -0.000815581 0)
(-0.00530633 -0.000788428 0)
(-0.00424603 -0.000750143 0)
(-0.00324216 -0.000701437 0)
(-0.0023079 -0.000643246 0)
(-0.00145514 -0.000576716 0)
(-0.000694132 -0.000503175 0)
(-3.33123e-05 -0.000424105 0)
(0.000520914 -0.000341119 0)
(0.000964346 -0.00025594 0)
(0.00129517 -0.000170415 0)
(0.00151409 -8.64849e-05 0)
(0.00162449 -6.24088e-06 0)
(0.00163262 6.80259e-05 0)
(0.001548 0.000133688 0)
(0.00138355 0.00018773 0)
(0.0011563 0.000226441 0)
(0.000887731 0.000245339 0)
(0.000604353 0.000239073 0)
(0.000338636 0.000201872 0)
(0.000130421 0.000130608 0)
(1.17305e-05 3.77068e-05 0)
(1.58776e-05 -9.96003e-05 0)
(6.56225e-05 -0.000138279 0)
(7.06452e-05 -7.09208e-05 0)
(-7.25252e-06 5.70337e-05 0)
(-0.000194658 0.000215093 0)
(-0.000503204 0.000383457 0)
(-0.000935064 0.000549771 0)
(-0.00148644 0.00070673 0)
(-0.00214993 0.000850513 0)
(-0.00291611 0.000979579 0)
(-0.00377476 0.00109382 0)
(-0.0047156 0.00119396 0)
(-0.00572881 0.00128117 0)
(-0.00680519 0.00135673 0)
(-0.00793628 0.00142188 0)
(-0.00911429 0.00147764 0)
(-0.0103319 0.00152478 0)
(-0.0115823 0.00156378 0)
(-0.0128586 0.00159478 0)
(-0.0141541 0.00161765 0)
(-0.0154616 0.00163199 0)
(-0.0167738 0.00163718 0)
(-0.0180827 0.00163246 0)
(-0.0193797 0.00161692 0)
(-0.0206556 0.0015896 0)
(-0.0219006 0.00154957 0)
(-0.0231042 0.00149589 0)
(-0.0242553 0.00142775 0)
(-0.0253423 0.00134448 0)
(-0.0263534 0.0012456 0)
(-0.0272765 0.00113084 0)
(-0.0280996 0.00100021 0)
(-0.0288108 0.000853994 0)
(-0.0293989 0.000692814 0)
(-0.0298531 0.00051761 0)
(-0.0301638 0.000329664 0)
(-0.0303224 0.000130751 0)
(-0.030322 -7.72026e-05 0)
(-0.030157 -0.000291878 0)
(-0.0298242 -0.000510598 0)
(-0.0293221 -0.000730423 0)
(-0.0286517 -0.000948189 0)
(-0.0278163 -0.00116056 0)
(-0.0268218 -0.0013641 0)
(-0.0256766 -0.00155533 0)
(-0.0243914 -0.00173083 0)
(-0.0229797 -0.00188731 0)
(-0.021457 -0.00202171 0)
(-0.0198409 -0.0021313 0)
(-0.018151 -0.00221372 0)
(-0.0164084 -0.00226709 0)
(-0.0146352 -0.00229009 0)
(-0.0128542 -0.00228197 0)
(-0.0110889 -0.00224263 0)
(-0.00936234 -0.00217259 0)
(-0.00769701 -0.00207305 0)
(-0.00611438 -0.00194582 0)
(-0.00463441 -0.00179332 0)
(-0.00327509 -0.00161852 0)
(-0.00205208 -0.00142487 0)
(-0.000978342 -0.00121629 0)
(-6.38067e-05 -0.000997037 0)
(0.000684896 -0.000771727 0)
(0.00126471 -0.000545284 0)
(0.00167639 -0.000322945 0)
(0.00192476 -0.000110323 0)
(0.00201898 8.64774e-05 0)
(0.00197285 0.000260724 0)
(0.0018052 0.000404817 0)
(0.00154027 0.000510047 0)
(0.00120804 0.000566492 0)
(0.000844322 0.000563204 0)
(0.00049161 0.000489389 0)
(0.000202419 0.000338811 0)
(2.1651e-05 0.000122859 0)
(1.09171e-05 -0.000127715 0)
(1.44771e-05 -0.000140454 0)
(-6.55795e-05 8.31875e-06 0)
(-0.000265649 0.000251107 0)
(-0.000609693 0.000542105 0)
(-0.00110844 0.000850387 0)
(-0.00176335 0.0011557 0)
(-0.00256962 0.00144554 0)
(-0.00351838 0.00171295 0)
(-0.00459839 0.00195472 0)
(-0.00579732 0.00217018 0)
(-0.0071026 0.00236017 0)
(-0.00850196 0.00252635 0)
(-0.00998374 0.00267069 0)
(-0.0115369 0.00279511 0)
(-0.0131512 0.00290128 0)
(-0.0148168 0.00299038 0)
(-0.0165242 0.00306314 0)
(-0.0182638 0.00311973 0)
(-0.0200263 0.00315983 0)
(-0.0218016 0.00318269 0)
(-0.0235795 0.00318716 0)
(-0.0253488 0.00317184 0)
(-0.0270978 0.00313512 0)
(-0.0288139 0.00307531 0)
(-0.0304838 0.00299075 0)
(-0.0320933 0.00287985 0)
(-0.0336278 0.00274124 0)
(-0.035072 0.00257384 0)
(-0.0364104 0.00237691 0)
(-0.0376275 0.00215015 0)
(-0.0387077 0.00189376 0)
(-0.0396361 0.00160848 0)
(-0.0403982 0.00129564 0)
(-0.0409808 0.000957173 0)
(-0.0413719 0.000595671 0)
(-0.041561 0.000214414 0)
(-0.0415397 -0.000182794 0)
(-0.0413018 -0.000591534 0)
(-0.0408434 -0.00100681 0)
(-0.0401636 -0.00142316 0)
(-0.039264 -0.00183472 0)
(-0.0381496 -0.00223536 0)
(-0.0368282 -0.00261879 0)
(-0.035311 -0.00297865 0)
(-0.033612 -0.00330874 0)
(-0.0317486 -0.00360308 0)
(-0.0297407 -0.00385614 0)
(-0.0276108 -0.00406296 0)
(-0.0253839 -0.00421928 0)
(-0.0230866 -0.00432171 0)
(-0.0207471 -0.00436784 0)
(-0.0183946 -0.0043563 0)
(-0.0160584 -0.00428687 0)
(-0.0137682 -0.00416048 0)
(-0.0115526 -0.00397927 0)
(-0.00943897 -0.00374649 0)
(-0.00745302 -0.00346653 0)
(-0.00561793 -0.00314479 0)
(-0.00395403 -0.00278759 0)
(-0.00247829 -0.00240211 0)
(-0.00120388 -0.00199625 0)
(-0.000139813 -0.00157857 0)
(0.000709446 -0.00115823 0)
(0.00134425 -0.000745023 0)
(0.00177011 -0.000349364 0)
(0.00199795 1.75258e-05 0)
(0.00204443 0.000343456 0)
(0.0019323 0.000615048 0)
(0.00169055 0.000817488 0)
(0.00135465 0.000934531 0)
(0.000966399 0.000948922 0)
(0.000575127 0.000843895 0)
(0.000243129 0.000607208 0)
(2.68135e-05 0.000240107 0)
(4.50045e-06 -0.000124372 0)
(-5.47073e-05 -6.2643e-05 0)
(-0.000244883 0.000207869 0)
(-0.000596486 0.000601345 0)
(-0.00112676 0.00105839 0)
(-0.00184301 0.00153783 0)
(-0.0027444 0.00201188 0)
(-0.00382424 0.00246287 0)
(-0.00507186 0.00288053 0)
(-0.0064743 0.00325987 0)
(-0.00801741 0.00359946 0)
(-0.00968672 0.00390011 0)
(-0.011468 0.00416387 0)
(-0.0133475 0.00439332 0)
(-0.0153122 0.00459104 0)
(-0.0173494 0.00475922 0)
(-0.0194471 0.00489943 0)
(-0.0215933 0.00501257 0)
(-0.0237763 0.00509873 0)
(-0.0259837 0.00515733 0)
(-0.0282031 0.00518712 0)
(-0.0304213 0.00518631 0)
(-0.0326242 0.00515274 0)
(-0.034797 0.00508399 0)
(-0.036924 0.00497753 0)
(-0.0389886 0.0048309 0)
(-0.0409736 0.00464181 0)
(-0.0428609 0.00440833 0)
(-0.0446322 0.00412899 0)
(-0.0462688 0.00380289 0)
(-0.047752 0.00342982 0)
(-0.0490637 0.00301035 0)
(-0.050186 0.0025459 0)
(-0.0511023 0.0020388 0)
(-0.0517972 0.00149233 0)
(-0.052257 0.000910741 0)
(-0.0524698 0.000299264 0)
(-0.0524264 -0.000335975 0)
(-0.0521198 -0.000987964 0)
(-0.0515463 -0.00164888 0)
(-0.0507052 -0.00231019 0)
(-0.0495992 -0.00296283 0)
(-0.0482343 -0.00359731 0)
(-0.0466205 -0.00420393 0)
(-0.044771 -0.00477297 0)
(-0.0427028 -0.0052949 0)
(-0.0404362 -0.00576062 0)
(-0.0379948 -0.00616165 0)
(-0.0354052 -0.00649042 0)
(-0.0326966 -0.00674042 0)
(-0.0299002 -0.00690646 0)
(-0.0270491 -0.00698481 0)
(-0.0241776 -0.00697332 0)
(-0.0213202 -0.0068716 0)
(-0.0185117 -0.00668101 0)
(-0.015786 -0.00640471 0)
(-0.0131756 -0.00604763 0)
(-0.0107111 -0.00561643 0)
(-0.00842019 -0.00511934 0)
(-0.00632751 -0.00456609 0)
(-0.0044537 -0.00396774 0)
(-0.00281505 -0.00333654 0)
(-0.00142301 -0.00268579 0)
(-0.000283756 -0.00202978 0)
(0.000602166 -0.00138374 0)
(0.0012402 -0.000763863 0)
(0.00164205 -0.000187421 0)
(0.00182598 0.000327068 0)
(0.001817 0.000759643 0)
(0.00164716 0.00108874 0)
(0.00135542 0.00129121 0)
(0.000987679 0.00134284 0)
(0.000598322 0.0012196 0)
(0.000256928 0.000900419 0)
(2.86945e-05 0.000371626 0)
(-2.58196e-06 -8.25897e-05 0)
(-0.000134247 0.000112089 0)
(-0.00045116 0.000550493 0)
(-0.000975153 0.0011329 0)
(-0.00171385 0.00178885 0)
(-0.00266907 0.00246849 0)
(-0.00383627 0.00313755 0)
(-0.00520586 0.00377374 0)
(-0.00676488 0.00436384 0)
(-0.00849839 0.00490117 0)
(-0.0103905 0.00538356 0)
(-0.0124249 0.00581176 0)
(-0.0145858 0.00618817 0)
(-0.0168576 0.0065159 0)
(-0.0192255 0.00679806 0)
(-0.0216748 0.00703729 0)
(-0.0241916 0.00723546 0)
(-0.0267616 0.00739349 0)
(-0.0293709 0.00751131 0)
(-0.0320047 0.00758792 0)
(-0.0346481 0.00762148 0)
(-0.0372851 0.00760945 0)
(-0.0398991 0.0075488 0)
(-0.0424723 0.00743622 0)
(-0.0449863 0.00726828 0)
(-0.0474215 0.00704169 0)
(-0.0497577 0.00675348 0)
(-0.0519741 0.00640118 0)
(-0.0540495 0.005983 0)
(-0.0559626 0.00549802 0)
(-0.0576921 0.00494626 0)
(-0.0592173 0.00432887 0)
(-0.0605186 0.0036482 0)
(-0.0615772 0.00290783 0)
(-0.0623761 0.0021127 0)
(-0.0629003 0.00126904 0)
(-0.063137 0.00038442 0)
(-0.0630761 -0.000532348 0)
(-0.0627105 -0.00147127 0)
(-0.0620363 -0.00242128 0)
(-0.0610532 -0.00337039 0)
(-0.0597647 -0.00430589 0)
(-0.0581781 -0.00521454 0)
(-0.0563045 -0.00608283 0)
(-0.0541591 -0.00689726 0)
(-0.0517611 -0.00764462 0)
(-0.0491333 -0.00831227 0)
(-0.0463022 -0.00888847 0)
(-0.0432976 -0.0093627 0)
(-0.0401519 -0.00972592 0)
(-0.0369004 -0.00997087 0)
(-0.0335801 -0.0100923 0)
(-0.0302294 -0.010087 0)
(-0.0268873 -0.00995452 0)
(-0.023593 -0.00969641 0)
(-0.0203849 -0.00931697 0)
(-0.0173002 -0.00882289 0)
(-0.0143738 -0.00822328 0)
(-0.0116376 -0.00752952 0)
(-0.00912013 -0.00675508 0)
(-0.00684573 -0.00591538 0)
(-0.0048338 -0.00502754 0)
(-0.00309845 -0.00411025 0)
(-0.00164789 -0.00318359 0)
(-0.000484078 -0.00226895 0)
(0.000397665 -0.00138903 0)
(0.00100896 -0.000567855 0)
(0.00136864 0.000169052 0)
(0.00150285 0.000794551 0)
(0.0014453 0.00127977 0)
(0.00123721 0.00159411 0)
(0.00092728 0.00170565 0)
(0.000573553 0.00158199 0)
(0.000250308 0.00119152 0)
(2.84228e-05 0.000504558 0)
(-9.93371e-06 1.22531e-06 0)
(-0.000219669 0.000394036 0)
(-0.000674144 0.0010514 0)
(-0.00138499 0.00186374 0)
(-0.00234826 0.00275229 0)
(-0.00355875 0.00366049 0)
(-0.00500695 0.00454895 0)
(-0.00667949 0.00539174 0)
(-0.00856048 0.00617332 0)
(-0.0106327 0.0068857 0)
(-0.0128783 0.00752622 0)
(-0.0152794 0.00809566 0)
(-0.0178184 0.00859677 0)
(-0.0204784 0.00903316 0)
(-0.0232428 0.00940839 0)
(-0.0260954 0.00972546 0)
(-0.0290202 0.00998638 0)
(-0.0320013 0.010192 0)
(-0.0350225 0.010342 0)
(-0.038067 0.0104347 0)
(-0.0411174 0.0104677 0)
(-0.0441555 0.0104375 0)
(-0.047162 0.0103402 0)
(-0.0501168 0.0101714 0)
(-0.0529986 0.00992695 0)
(-0.0557854 0.0096026 0)
(-0.0584544 0.00919475 0)
(-0.0609822 0.00870047 0)
(-0.0633453 0.00811777 0)
(-0.0655199 0.00744579 0)
(-0.0674828 0.00668501 0)
(-0.0692113 0.00583733 0)
(-0.0706839 0.00490622 0)
(-0.0718802 0.00389683 0)
(-0.0727821 0.00281595 0)
(-0.0733733 0.00167211 0)
(-0.0736403 0.000475513 0)
(-0.0735724 -0.000762062 0)
(-0.0731621 -0.00202733 0)
(-0.0724056 -0.00330568 0)
(-0.0713028 -0.00458133 0)
(-0.0698576 -0.00583764 0)
(-0.0680781 -0.00705728 0)
(-0.0659765 -0.00822266 0)
(-0.0635693 -0.00931616 0)
(-0.0608773 -0.0103206 0)
(-0.0579252 -0.0112194 0)
(-0.0547417 -0.0119974 0)
(-0.0513589 -0.0126408 0)
(-0.0478124 -0.0131376 0)
(-0.0441401 -0.0134784 0)
(-0.0403826 -0.0136561 0)
(-0.0365818 -0.0136664 0)
(-0.0327805 -0.0135082 0)
(-0.029022 -0.0131835 0)
(-0.0253487 -0.0126976 0)
(-0.021802 -0.012059 0)
(-0.0184207 -0.0112792 0)
(-0.0152412 -0.0103731 0)
(-0.0122957 -0.00935799 0)
(-0.00961221 -0.00825408 0)
(-0.00721347 -0.00708378 0)
(-0.00511648 -0.00587162 0)
(-0.00333193 -0.00464403 0)
(-0.00186371 -0.00342913 0)
(-0.000708518 -0.00225673 0)
(0.000144449 -0.00115819 0)
(0.000713714 -0.000166599 0)
(0.0010257 0.000683204 0)
(0.00111485 0.00135451 0)
(0.00102364 0.00180874 0)
(0.000802591 0.00200563 0)
(0.000512117 0.00190361 0)
(0.00022887 0.00146002 0)
(2.67852e-05 0.000629969 0)
(-1.73585e-05 0.000129053 0)
(-0.000308355 0.000789591 0)
(-0.000907237 0.00172072 0)
(-0.00181461 0.00280645 0)
(-0.00301376 0.00396239 0)
(-0.0044913 0.00512738 0)
(-0.00623179 0.00625851 0)
(-0.0082173 0.00732747 0)
(-0.0104285 0.00831723 0)
(-0.0128453 0.00921913 0)
(-0.015448 0.0100304 0)
(-0.0182168 0.0107521 0)
(-0.0211327 0.0113873 0)
(-0.0241772 0.0119403 0)
(-0.0273323 0.0124151 0)
(-0.0305803 0.0128147 0)
(-0.0339038 0.0131415 0)
(-0.0372849 0.0133958 0)
(-0.0407058 0.0135771 0)
(-0.0441477 0.0136829 0)
(-0.047591 0.0137101 0)
(-0.0510155 0.0136542 0)
(-0.0543996 0.0135102 0)
(-0.0577208 0.0132729 0)
(-0.0609556 0.0129371 0)
(-0.0640798 0.0124977 0)
(-0.0670682 0.0119505 0)
(-0.0698954 0.0112923 0)
(-0.0725356 0.010521 0)
(-0.0749632 0.00963587 0)
(-0.0771532 0.00863802 0)
(-0.0790811 0.0075303 0)
(-0.080724 0.00631752 0)
(-0.0820603 0.00500652 0)
(-0.0830705 0.00360625 0)
(-0.0837376 0.0021277 0)
(-0.0840471 0.000583926 0)
(-0.0839879 -0.00101009 0)
(-0.083552 -0.00263755 0)
(-0.0827355 -0.00428008 0)
(-0.0815381 -0.0059179 0)
(-0.0799639 -0.00753017 0)
(-0.0780213 -0.00909528 0)
(-0.0757232 -0.0105913 0)
(-0.0730867 -0.0119962 0)
(-0.0701338 -0.0132885 0)
(-0.0668903 -0.0144477 0)
(-0.0633866 -0.0154546 0)
(-0.0596568 -0.016292 0)
(-0.0557384 -0.0169447 0)
(-0.0516721 -0.0174006 0)
(-0.0475011 -0.0176507 0)
(-0.0432704 -0.0176892 0)
(-0.0390265 -0.0175144 0)
(-0.0348161 -0.0171283 0)
(-0.0306857 -0.0165371 0)
(-0.0266804 -0.0157509 0)
(-0.0228435 -0.0147841 0)
(-0.0192151 -0.0136546 0)
(-0.0158317 -0.012384 0)
(-0.0127251 -0.0109976 0)
(-0.00992157 -0.00952317 0)
(-0.00744152 -0.00799165 0)
(-0.00529847 -0.0064362 0)
(-0.00349878 -0.0048922 0)
(-0.00204111 -0.00339701 0)
(-0.000916137 -0.00198992 0)
(-0.000106318 -0.000712044 0)
(0.000414301 0.000393565 0)
(0.000680166 0.00128189 0)
(0.00073424 0.00190586 0)
(0.000628015 0.00221639 0)
(0.000423199 0.00216239 0)
(0.000196923 0.00169029 0)
(2.43307e-05 0.000741612 0)
(-2.47697e-05 0.000301939 0)
(-0.00039873 0.00130259 0)
(-0.00114609 0.00256492 0)
(-0.00225608 0.00396942 0)
(-0.00369848 0.00542856 0)
(-0.00545098 0.00687869 0)
(-0.00749148 0.00827516 0)
(-0.00979684 0.00958858 0)
(-0.0123437 0.0108015 0)
(-0.0151092 0.0119054 0)
(-0.018071 0.0128978 0)
(-0.0212076 0.0137805 0)
(-0.0244985 0.0145573 0)
(-0.0279238 0.0152329 0)
(-0.0314641 0.0158116 0)
(-0.0351006 0.016297 0)
(-0.0388142 0.0166911 0)
(-0.0425858 0.0169942 0)
(-0.0463957 0.0172048 0)
(-0.0502236 0.0173201 0)
(-0.0540481 0.0173356 0)
(-0.0578469 0.0172462 0)
(-0.0615966 0.0170456 0)
(-0.0652726 0.0167277 0)
(-0.0688496 0.0162862 0)
(-0.0723011 0.0157154 0)
(-0.0756002 0.0150106 0)
(-0.0787195 0.0141681 0)
(-0.0816315 0.0131859 0)
(-0.0843091 0.0120637 0)
(-0.0867255 0.0108033 0)
(-0.088855 0.00940855 0)
(-0.0906732 0.00788582 0)
(-0.0921575 0.00624382 0)
(-0.0932873 0.00449374 0)
(-0.0940447 0.00264923 0)
(-0.0944144 0.000726329 0)
(-0.0943844 -0.00125663 0)
(-0.0939463 -0.00327922 0)
(-0.0930955 -0.00531914 0)
(-0.0918314 -0.00735245 0)
(-0.0901579 -0.00935399 0)
(-0.0880832 -0.0112977 0)
(-0.0856201 -0.0131569 0)
(-0.0827861 -0.0149053 0)
(-0.0796035 -0.0165168 0)
(-0.076099 -0.0179664 0)
(-0.0723039 -0.0192308 0)
(-0.0682534 -0.020289 0)
(-0.063987 -0.0211224 0)
(-0.0595473 -0.0217158 0)
(-0.05498 -0.0220578 0)
(-0.0503328 -0.0221411 0)
(-0.0456554 -0.0219627 0)
(-0.0409981 -0.0215245 0)
(-0.036411 -0.0208335 0)
(-0.0319435 -0.0199013 0)
(-0.0276429 -0.0187446 0)
(-0.0235538 -0.0173849 0)
(-0.0197168 -0.015848 0)
(-0.016168 -0.0141642 0)
(-0.0129376 -0.0123672 0)
(-0.0100499 -0.0104946 0)
(-0.00752161 -0.00858661 0)
(-0.00536224 -0.00668632 0)
(-0.00357295 -0.00483918 0)
(-0.0021465 -0.0030928 0)
(-0.0010669 -0.00149687 0)
(-0.000309295 -0.000103119 0)
(0.000160155 0.00103465 0)
(0.000384262 0.00186047 0)
(0.000414804 0.00231608 0)
(0.000313761 0.00234077 0)
(0.000157587 0.00187059 0)
(2.1418e-05 0.000835169 0)
(-3.21311e-05 0.000520349 0)
(-0.000489778 0.00193511 0)
(-0.0013877 0.00358775 0)
(-0.00270363 0.00535773 0)
(-0.00439347 0.00715667 0)
(-0.00642549 0.0089205 0)
(-0.00877044 0.0106045 0)
(-0.0113995 0.0121799 0)
(-0.0142851 0.0136297 0)
(-0.0174008 0.0149465 0)
(-0.020722 0.016129 0)
(-0.0242253 0.0171797 0)
(-0.0278884 0.0181036 0)
(-0.0316902 0.018906 0)
(-0.0356102 0.0195919 0)
(-0.0396282 0.0201649 0)
(-0.0437241 0.0206267 0)
(-0.0478773 0.0209775 0)
(-0.0520669 0.021215 0)
(-0.056271 0.0213354 0)
(-0.0604668 0.0213335 0)
(-0.0646301 0.0212028 0)
(-0.068736 0.0209361 0)
(-0.0727582 0.0205261 0)
(-0.0766695 0.0199657 0)
(-0.080442 0.0192485 0)
(-0.084047 0.0183692 0)
(-0.0874556 0.017324 0)
(-0.0906388 0.0161109 0)
(-0.093568 0.0147302 0)
(-0.0962153 0.0131843 0)
(-0.0985536 0.0114784 0)
(-0.100557 0.00962049 0)
(-0.102203 0.00762115 0)
(-0.103469 0.00549394 0)
(-0.104336 0.00325523 0)
(-0.104788 0.000924138 0)
(-0.104812 -0.00147762 0)
(-0.104398 -0.0039259 0)
(-0.103543 -0.0063944 0)
(-0.102242 -0.00885497 0)
(-0.100501 -0.011278 0)
(-0.0983267 -0.0136327 0)
(-0.0957309 -0.015888 0)
(-0.092731 -0.0180124 0)
(-0.0893492 -0.0199754 0)
(-0.0856123 -0.0217472 0)
(-0.081552 -0.0233001 0)
(-0.0772044 -0.0246087 0)
(-0.0726101 -0.0256508 0)
(-0.0678133 -0.0264077 0)
(-0.0628619 -0.0268652 0)
(-0.0578063 -0.0270138 0)
(-0.052699 -0.0268492 0)
(-0.0475938 -0.0263728 0)
(-0.0425448 -0.0255917 0)
(-0.0376054 -0.0245191 0)
(-0.0328275 -0.0231738 0)
(-0.0282603 -0.0215807 0)
(-0.023949 -0.0197698 0)
(-0.0199343 -0.0177767 0)
(-0.0162511 -0.0156412 0)
(-0.0129278 -0.0134075 0)
(-0.00998522 -0.0111236 0)
(-0.00743637 -0.00884067 0)
(-0.00528557 -0.00661255 0)
(-0.0035282 -0.00449578 0)
(-0.00215042 -0.00254907 0)
(-0.001129 -0.000833322 0)
(-0.000431238 0.000588427 0)
(-1.50145e-05 0.00165091 0)
(0.000171145 0.00228646 0)
(0.000188897 0.0024248 0)
(0.000113047 0.00199208 0)
(1.82735e-05 0.000907676 0)
(-3.94235e-05 0.000784367 0)
(-0.000580773 0.00268792 0)
(-0.0016298 0.00479089 0)
(-0.00315277 0.0069738 0)
(-0.00509155 0.00914961 0)
(-0.00740476 0.0112558 0)
(-0.0100557 0.0132493 0)
(-0.0130095 0.0151033 0)
(-0.016234 0.0168029 0)
(-0.0196995 0.0183424 0)
(-0.0233784 0.0197224 0)
(-0.0272454 0.020947 0)
(-0.0312768 0.0220223 0)
(-0.03545 0.0229547 0)
(-0.0397436 0.0237497 0)
(-0.0441361 0.024411 0)
(-0.0486065 0.0249403 0)
(-0.0531332 0.0253371 0)
(-0.0576939 0.0255986 0)
(-0.0622656 0.0257199 0)
(-0.0668241 0.0256948 0)
(-0.0713439 0.0255155 0)
(-0.0757987 0.0251738 0)
(-0.0801608 0.0246614 0)
(-0.0844015 0.0239702 0)
(-0.0884916 0.0230931 0)
(-0.0924011 0.0220245 0)
(-0.0960997 0.0207603 0)
(-0.0995573 0.0192987 0)
(-0.102744 0.0176405 0)
(-0.105631 0.0157892 0)
(-0.108189 0.0137511 0)
(-0.110393 0.0115357 0)
(-0.112218 0.00915567 0)
(-0.11364 0.00662697 0)
(-0.11464 0.00396864 0)
(-0.1152 0.00120287 0)
(-0.115307 -0.00164523 0)
(-0.114949 -0.00454782 0)
(-0.11412 -0.00747458 0)
(-0.112817 -0.0103931 0)
(-0.111042 -0.0132693 0)
(-0.108801 -0.0160676 0)
(-0.106106 -0.0187522 0)
(-0.102972 -0.0212866 0)
(-0.0994215 -0.0236352 0)
(-0.0954802 -0.0257634 0)
(-0.0911798 -0.0276385 0)
(-0.0865568 -0.0292307 0)
(-0.0816524 -0.0305133 0)
(-0.0765123 -0.0314639 0)
(-0.071186 -0.0320648 0)
(-0.0657263 -0.032304 0)
(-0.0601888 -0.0321752 0)
(-0.0546306 -0.0316788 0)
(-0.0491099 -0.0308219 0)
(-0.0436845 -0.0296186 0)
(-0.0384111 -0.0280898 0)
(-0.0333438 -0.0262634 0)
(-0.0285332 -0.0241739 0)
(-0.0240251 -0.0218619 0)
(-0.0198596 -0.0193736 0)
(-0.0160698 -0.0167603 0)
(-0.0126814 -0.0140778 0)
(-0.00971138 -0.0113858 0)
(-0.00716793 -0.00874713 0)
(-0.00504964 -0.00622774 0)
(-0.00334537 -0.00389588 0)
(-0.002034 -0.00182213 0)
(-0.00108447 -7.92246e-05 0)
(-0.000455796 0.00125791 0)
(-9.72857e-05 0.00211191 0)
(5.19984e-05 0.00240304 0)
(6.47385e-05 0.00204801 0)
(1.50316e-05 0.000957072 0)
(-4.66295e-05 0.00109378 0)
(-0.000671121 0.00356081 0)
(-0.00187053 0.0061743 0)
(-0.00359976 0.00881784 0)
(-0.0057867 0.0114077 0)
(-0.00838016 0.0138847 0)
(-0.0113358 0.0162094 0)
(-0.0146128 0.0183583 0)
(-0.0181741 0.0203197 0)
(-0.0219863 0.0220909 0)
(-0.0260192 0.0236749 0)
(-0.0302455 0.0250781 0)
(-0.0346397 0.0263083 0)
(-0.0391782 0.0273728 0)
(-0.0438383 0.028278 0)
(-0.048598 0.0290279 0)
(-0.053435 0.0296239 0)
(-0.058327 0.0300649 0)
(-0.0632507 0.0303474 0)
(-0.0681821 0.0304656 0)
(-0.0730958 0.0304119 0)
(-0.0779655 0.0301775 0)
(-0.0827635 0.029753 0)
(-0.087461 0.0291291 0)
(-0.0920284 0.0282967 0)
(-0.0964352 0.0272483 0)
(-0.10065 0.0259775 0)
(-0.104643 0.0244805 0)
(-0.108381 0.0227555 0)
(-0.111834 0.0208039 0)
(-0.114972 0.0186301 0)
(-0.117766 0.0162415 0)
(-0.120188 0.0136494 0)
(-0.122213 0.0108684 0)
(-0.123815 0.00791669 0)
(-0.124975 0.00481597 0)
(-0.125673 0.00159143 0)
(-0.125893 -0.00172851 0)
(-0.125623 -0.00511235 0)
(-0.124856 -0.00852586 0)
(-0.123585 -0.0119324 0)
(-0.121812 -0.0152932 0)
(-0.11954 -0.0185682 0)
(-0.11678 -0.0217164 0)
(-0.113546 -0.0246963 0)
(-0.109857 -0.027467 0)
(-0.10574 -0.0299885 0)
(-0.101224 -0.0322232 0)
(-0.0963472 -0.0341358 0)
(-0.09115 -0.0356951 0)
(-0.085679 -0.036874 0)
(-0.0799854 -0.0376511 0)
(-0.0741243 -0.038011 0)
(-0.0681539 -0.0379449 0)
(-0.0621351 -0.0374517 0)
(-0.0561301 -0.0365378 0)
(-0.0502015 -0.0352178 0)
(-0.0444111 -0.0335144 0)
(-0.0388187 -0.0314585 0)
(-0.0334804 -0.0290884 0)
(-0.028448 -0.0264502 0)
(-0.0237674 -0.0235963 0)
(-0.0194775 -0.0205855 0)
(-0.015609 -0.0174819 0)
(-0.0121841 -0.0143539 0)
(-0.00921533 -0.0112741 0)
(-0.00670507 -0.00831812 0)
(-0.00464545 -0.00556451 0)
(-0.00301803 -0.00309404 0)
(-0.0017938 -0.000989644 0)
(-0.000933309 0.000663654 0)
(-0.000386945 0.00177861 0)
(-9.48457e-05 0.00226577 0)
(1.35118e-05 0.00203295 0)
(1.17636e-05 0.000981857 0)
(-5.37265e-05 0.00144811 0)
(-0.00076027 0.00455267 0)
(-0.00210821 0.00773649 0)
(-0.00404128 0.0108881 0)
(-0.00647349 0.0139288 0)
(-0.00934396 0.0168049 0)
(-0.0126007 0.0194821 0)
(-0.0161967 0.0219416 0)
(-0.0200902 0.0241764 0)
(-0.0242439 0.0261876 0)
(-0.028625 0.0279815 0)
(-0.033204 0.0295674 0)
(-0.0379541 0.030955 0)
(-0.0428504 0.0321534 0)
(-0.0478693 0.0331695 0)
(-0.0529878 0.0340077 0)
(-0.0581831 0.0346693 0)
(-0.0634321 0.0351528 0)
(-0.0687107 0.0354537 0)
(-0.0739942 0.0355651 0)
(-0.0792563 0.0354782 0)
(-0.0844699 0.0351832 0)
(-0.0896064 0.0346694 0)
(-0.0946363 0.0339264 0)
(-0.0995291 0.0329445 0)
(-0.104253 0.0317152 0)
(-0.108777 0.0302321 0)
(-0.113069 0.0284909 0)
(-0.117096 0.0264904 0)
(-0.120827 0.0242322 0)
(-0.124231 0.0217217 0)
(-0.127278 0.0189677 0)
(-0.129938 0.0159827 0)
(-0.132186 0.0127833 0)
(-0.133995 0.00938978 0)
(-0.135344 0.00582647 0)
(-0.13621 0.00212134 0)
(-0.136577 -0.00169401 0)
(-0.136431 -0.00558459 0)
(-0.135761 -0.00951229 0)
(-0.13456 -0.0134363 0)
(-0.132826 -0.0173134 0)
(-0.130561 -0.0210988 0)
(-0.127772 -0.0247462 0)
(-0.124471 -0.028209 0)
(-0.120677 -0.0314406 0)
(-0.116413 -0.0343957 0)
(-0.111709 -0.0370306 0)
(-0.1066 -0.0393048 0)
(-0.101128 -0.0411813 0)
(-0.0953389 -0.0426282 0)
(-0.0892859 -0.0436194 0)
(-0.0830256 -0.0441354 0)
(-0.0766193 -0.0441643 0)
(-0.0701313 -0.0437025 0)
(-0.0636282 -0.0427554 0)
(-0.0571776 -0.0413374 0)
(-0.0508468 -0.0394725 0)
(-0.0447017 -0.0371941 0)
(-0.038805 -0.0345444 0)
(-0.033215 -0.0315747 0)
(-0.0279841 -0.028344 0)
(-0.0231577 -0.0249185 0)
(-0.0187728 -0.0213709 0)
(-0.0148571 -0.0177792 0)
(-0.0114284 -0.014226 0)
(-0.00849371 -0.0107974 0)
(-0.00604891 -0.00758271 0)
(-0.00407875 -0.0046736 0)
(-0.00255673 -0.0021638 0)
(-0.0014453 -0.000148919 0)
(-0.0006961 0.00127362 0)
(-0.000250564 0.00200431 0)
(-4.02007e-05 0.00194225 0)
(8.50758e-06 0.000980838 0)
(-6.06846e-05 0.00184662 0)
(-0.000847668 0.0056616 0)
(-0.00234124 0.00947464 0)
(-0.00447416 0.0131809 0)
(-0.00714686 0.0167089 0)
(-0.0102889 0.0200119 0)
(-0.0138407 0.0230623 0)
(-0.0177492 0.0258477 0)
(-0.0219678 0.0283668 0)
(-0.0264556 0.0306257 0)
(-0.0311771 0.032635 0)
(-0.0361006 0.0344072 0)
(-0.0411979 0.0359546 0)
(-0.046443 0.0372879 0)
(-0.0518115 0.0384154 0)
(-0.0572797 0.0393417 0)
(-0.0628242 0.0400681 0)
(-0.0684213 0.0405925 0)
(-0.0740465 0.0409095 0)
(-0.0796743 0.0410112 0)
(-0.0852781 0.0408876 0)
(-0.09083 0.0405276 0)
(-0.0963009 0.0399195 0)
(-0.101661 0.0390518 0)
(-0.106878 0.0379138 0)
(-0.111922 0.0364966 0)
(-0.116759 0.0347932 0)
(-0.121356 0.0327993 0)
(-0.125682 0.0305139 0)
(-0.129703 0.0279391 0)
(-0.133389 0.025081 0)
(-0.136707 0.0219494 0)
(-0.139628 0.0185583 0)
(-0.142124 0.014926 0)
(-0.144167 0.0110748 0)
(-0.145734 0.00703116 0)
(-0.146802 0.00282583 0)
(-0.147351 -0.00150664 0)
(-0.147365 -0.00592795 0)
(-0.14683 -0.0103963 0)
(-0.145738 -0.0148668 0)
(-0.144081 -0.019292 0)
(-0.141861 -0.0236219 0)
(-0.139081 -0.0278055 0)
(-0.135751 -0.0317904 0)
(-0.131885 -0.0355244 0)
(-0.127507 -0.0389561 0)
(-0.122642 -0.0420359 0)
(-0.117325 -0.0447168 0)
(-0.111598 -0.046956 0)
(-0.105506 -0.0487157 0)
(-0.0991032 -0.0499642 0)
(-0.0924478 -0.0506773 0)
(-0.0856037 -0.0508391 0)
(-0.0786388 -0.0504427 0)
(-0.0716241 -0.0494914 0)
(-0.0646325 -0.0479991 0)
(-0.0577375 -0.0459902 0)
(-0.0510114 -0.0435002 0)
(-0.0445241 -0.040575 0)
(-0.0383413 -0.0372709 0)
(-0.032523 -0.0336534 0)
(-0.0271218 -0.0297966 0)
(-0.0221818 -0.0257822 0)
(-0.0177375 -0.0216979 0)
(-0.0138124 -0.0176372 0)
(-0.010419 -0.0136974 0)
(-0.00755777 -0.00997925 0)
(-0.00521711 -0.00658602 0)
(-0.00337351 -0.00362293 0)
(-0.00199161 -0.00119681 0)
(-0.00102452 0.000584194 0)
(-0.000414909 0.00161033 0)
(-9.63733e-05 0.00177149 0)
(5.25927e-06 0.000952943 0)
(-6.74659e-05 0.00228831 0)
(-0.000932739 0.00688488 0)
(-0.00256798 0.0113846 0)
(-0.0048953 0.0156912 0)
(-0.00780187 0.0197419 0)
(-0.0112079 0.0234987 0)
(-0.0150466 0.0269425 0)
(-0.0192589 0.0300686 0)
(-0.0237933 0.0328827 0)
(-0.0286056 0.0353967 0)
(-0.0336573 0.0376264 0)
(-0.0389152 0.0395881 0)
(-0.0443493 0.0412973 0)
(-0.0499327 0.0427669 0)
(-0.0556403 0.0440061 0)
(-0.0614478 0.0450203 0)
(-0.0673314 0.0458109 0)
(-0.073267 0.046375 0)
(-0.0792296 0.0467066 0)
(-0.0851936 0.0467966 0)
(-0.0911319 0.0466338 0)
(-0.0970163 0.046206 0)
(-0.102817 0.0455002 0)
(-0.108505 0.0445039 0)
(-0.114047 0.0432056 0)
(-0.119411 0.0415956 0)
(-0.124566 0.0396667 0)
(-0.129476 0.0374144 0)
(-0.134111 0.0348376 0)
(-0.138435 0.0319391 0)
(-0.142418 0.0287253 0)
(-0.146026 0.0252072 0)
(-0.149229 0.0213999 0)
(-0.151998 0.0173231 0)
(-0.154304 0.0130009 0)
(-0.15612 0.00846181 0)
(-0.157422 0.00373894 0)
(-0.158188 -0.00113043 0)
(-0.158399 -0.00610491 0)
(-0.158038 -0.0111392 0)
(-0.157092 -0.0161847 0)
(-0.155554 -0.0211893 0)
(-0.153419 -0.0260986 0)
(-0.150687 -0.0308561 0)
(-0.147366 -0.0354041 0)
(-0.143466 -0.0396842 0)
(-0.139007 -0.0436386 0)
(-0.134013 -0.0472112 0)
(-0.128517 -0.0503483 0)
(-0.122557 -0.0530003 0)
(-0.116181 -0.0551227 0)
(-0.109441 -0.0566775 0)
(-0.102398 -0.0576346 0)
(-0.0951172 -0.0579731 0)
(-0.0876703 -0.0576819 0)
(-0.0801327 -0.0567615 0)
(-0.0725829 -0.0552239 0)
(-0.0651007 -0.0530935 0)
(-0.0577657 -0.0504073 0)
(-0.0506556 -0.0472143 0)
(-0.0438443 -0.0435756 0)
(-0.0374002 -0.0395633 0)
(-0.0313844 -0.0352594 0)