/*--------------------------------*- C++ -*----------------------------------*\
  =========                 |
  \\      /  F ield         | OpenFOAM: The Open Source CFD Toolbox
   \\    /   O peration     | Website:  https://openfoam.org
    \\  /    A nd           | Version:  12
     \\/     M anipulation  |
\*---------------------------------------------------------------------------*/
FoamFile
{
    format      ascii;
    class       volScalarField;
    location    "8.5";
    object      k;
}
// * * * * * * * * * * * * * * * * * * * * * * * * * * * * * * * * * * * * * //

dimensions      [0 2 -2 0 0 0 0];

internalField   nonuniform List<scalar> 
5625
(
2.22045e-16
2.22045e-16
2.22045e-16
2.22045e-16
2.22045e-16
2.22045e-16
2.22045e-16
2.22045e-16
2.22045e-16
2.22045e-16
2.22045e-16
2.22045e-16
2.22045e-16
2.22045e-16
2.22045e-16
2.22045e-16
2.22045e-16
2.22045e-16
2.22045e-16
2.22045e-16
2.22045e-16
2.22045e-16
2.22045e-16
2.22045e-16
2.22045e-16
2.22045e-16
2.22045e-16
2.22045e-16
2.22045e-16
2.22045e-16
2.22045e-16
2.22045e-16
2.22045e-16
2.22045e-16
2.22045e-16
2.22045e-16
2.22045e-16
2.22045e-16
2.22045e-16
2.22045e-16
2.22045e-16
2.22045e-16
2.22045e-16
2.22045e-16
2.22045e-16
2.22045e-16
2.22045e-16
2.22045e-16
2.22045e-16
2.22045e-16
2.22045e-16
2.22045e-16
2.22045e-16
2.22045e-16
2.22045e-16
2.22045e-16
2.22045e-16
2.22045e-16
2.22045e-16
2.22045e-16
2.22045e-16
2.22045e-16
2.22045e-16
2.22045e-16
2.22045e-16
2.22045e-16
2.22045e-16
2.22045e-16
2.22045e-16
2.22045e-16
2.22045e-16
2.22045e-16
2.22045e-16
2.22045e-16
2.22045e-16
2.22045e-16
2.22045e-16
2.22045e-16
2.22045e-16
2.22045e-16
2.22045e-16
2.22045e-16
2.22045e-16
2.22045e-16
2.22045e-16
2.22045e-16
2.22045e-16
2.22045e-16
2.22045e-16
2.22045e-16
2.22045e-16
2.22045e-16
2.22045e-16
2.22045e-16
2.22045e-16
2.22045e-16
2.22045e-16
2.22045e-16
2.22045e-16
2.22045e-16
2.22045e-16
2.22045e-16
2.22045e-16
2.22045e-16
2.22045e-16
2.22045e-16
2.22045e-16
2.22045e-16
2.22045e-16
2.22045e-16
2.22045e-16
2.22045e-16
2.22045e-16
2.22045e-16
2.22045e-16
2.22045e-16
2.22045e-16
2.22045e-16
2.22045e-16
2.22045e-16
2.22045e-16
2.22045e-16
2.22045e-16
2.22045e-16
2.22045e-16
2.22045e-16
2.22045e-16
2.22045e-16
2.22045e-16
2.22045e-16
2.22045e-16
2.22045e-16
2.22045e-16
2.22045e-16
2.22045e-16
2.22045e-16
2.22045e-16
2.22045e-16
2.22045e-16
2.22045e-16
2.22045e-16
2.22045e-16
2.22045e-16
2.22045e-16
2.22045e-16
2.22045e-16
2.22045e-16
2.22045e-16
2.22045e-16
2.22045e-16
2.22045e-16
2.22045e-16
2.22045e-16
2.22045e-16
2.22045e-16
2.22045e-16
2.22045e-16
2.22045e-16
2.22045e-16
2.22045e-16
2.22045e-16
2.22045e-16
2.22045e-16
2.22045e-16
2.22045e-16
2.22045e-16
2.22045e-16
2.34462e-16
2.53127e-16
2.72816e-16
2.92878e-16
3.12908e-16
3.3262e-16
3.51799e-16
3.7027e-16
3.87882e-16
4.04505e-16
4.20022e-16
4.34326e-16
4.47326e-16
4.58937e-16
4.69088e-16
4.77715e-16
4.84768e-16
4.90204e-16
4.93991e-16
4.96109e-16
4.96546e-16
4.95303e-16
4.92389e-16
4.87823e-16
4.81636e-16
4.73867e-16
4.64568e-16
4.53797e-16
4.41624e-16
4.28128e-16
4.13398e-16
3.97531e-16
3.80638e-16
3.62839e-16
3.44268e-16
3.25081e-16
3.0546e-16
2.85634e-16
2.65917e-16
2.4678e-16
2.29025e-16
2.22045e-16
2.22045e-16
2.22045e-16
2.22045e-16
2.22045e-16
2.22045e-16
2.22045e-16
2.22045e-16
2.22045e-16
2.22045e-16
2.22045e-16
2.22045e-16
2.22045e-16
2.22045e-16
2.22045e-16
2.22045e-16
2.22045e-16
2.22045e-16
2.22045e-16
2.22045e-16
2.22045e-16
2.22045e-16
2.22045e-16
2.22045e-16
2.22045e-16
2.22045e-16
2.22045e-16
2.35049e-16
2.63393e-16
2.95105e-16
3.29131e-16
3.64888e-16
4.02082e-16
4.40613e-16
4.80424e-16
5.21021e-16
5.61863e-16
6.02469e-16
6.42427e-16
6.81386e-16
7.19042e-16
7.55126e-16
7.89396e-16
8.21634e-16
8.51643e-16
8.79244e-16
9.04276e-16
9.26597e-16
9.46083e-16
9.62624e-16
9.76132e-16
9.86534e-16
9.93776e-16
9.97822e-16
9.98653e-16
9.96271e-16
9.9069e-16
9.81947e-16
9.70093e-16
9.552e-16
9.37354e-16
9.16659e-16
8.93237e-16
8.67223e-16
8.3877e-16
8.08049e-16
7.75245e-16
7.40563e-16
7.04224e-16
6.66476e-16
6.27592e-16
5.87882e-16
5.47706e-16
5.07485e-16
4.6771e-16
4.289e-16
3.9139e-16
3.55222e-16
3.20518e-16
2.87609e-16
2.57126e-16
2.30205e-16
2.22045e-16
2.22045e-16
2.22045e-16
2.22045e-16
2.22045e-16
2.22045e-16
2.22045e-16
2.22045e-16
2.22045e-16
2.22045e-16
2.22045e-16
2.22045e-16
2.22045e-16
2.22045e-16
2.22045e-16
2.22045e-16
2.22045e-16
2.22045e-16
2.60694e-16
3.07435e-16
3.59596e-16
4.16108e-16
4.75949e-16
5.3827e-16
6.0239e-16
6.67756e-16
7.33901e-16
8.00378e-16
8.66712e-16
9.32419e-16
9.97029e-16
1.06011e-15
1.12124e-15
1.18006e-15
1.23621e-15
1.28937e-15
1.33925e-15
1.38558e-15
1.42811e-15
1.46662e-15
1.50091e-15
1.53081e-15
1.55616e-15
1.57685e-15
1.59276e-15
1.60383e-15
1.61001e-15
1.61126e-15
1.6076e-15
1.59904e-15
1.58564e-15
1.56747e-15
1.54463e-15
1.51724e-15
1.48545e-15
1.44943e-15
1.40937e-15
1.36548e-15
1.31801e-15
1.2672e-15
1.21334e-15
1.15673e-15
1.09769e-15
1.03658e-15
9.73764e-16
9.09653e-16
8.4468e-16
7.79301e-16
7.13977e-16
6.49151e-16
5.85242e-16
5.22706e-16
4.62088e-16
4.04066e-16
3.49486e-16
2.99349e-16
2.54662e-16
2.22045e-16
2.22045e-16
2.22045e-16
2.22045e-16
2.22045e-16
2.22045e-16
2.22045e-16
2.22045e-16
2.22045e-16
2.22045e-16
2.22045e-16
2.22045e-16
2.22045e-16
2.22045e-16
2.29709e-16
2.88188e-16
3.57203e-16
4.33994e-16
5.16697e-16
6.03927e-16
6.94565e-16
7.87668e-16
8.82422e-16
9.78105e-16
1.07406e-15
1.16968e-15
1.26437e-15
1.35757e-15
1.44873e-15
1.53735e-15
1.62294e-15
1.70504e-15
1.78322e-15
1.85708e-15
1.92626e-15
1.9904e-15
2.04921e-15
2.10238e-15
2.14968e-15
2.19088e-15
2.22578e-15
2.25423e-15
2.27611e-15
2.2913e-15
2.29976e-15
2.30146e-15
2.29639e-15
2.28458e-15
2.2661e-15
2.24105e-15
2.20956e-15
2.17178e-15
2.12791e-15
2.07816e-15
2.02278e-15
1.96204e-15
1.89625e-15
1.82573e-15
1.75084e-15
1.67195e-15
1.58946e-15
1.50382e-15
1.41547e-15
1.3249e-15
1.2326e-15
1.1391e-15
1.04494e-15
9.50697e-16
8.56947e-16
7.64324e-16
6.73523e-16
5.85336e-16
5.00676e-16
4.20633e-16
3.46553e-16
2.8027e-16
2.24464e-16
2.22045e-16
2.22045e-16
2.22045e-16
2.22045e-16
2.22045e-16
2.22045e-16
2.22045e-16
2.22045e-16
2.22045e-16
2.22045e-16
2.22045e-16
2.22045e-16
2.87046e-16
3.74665e-16
4.73868e-16
5.81768e-16
6.96267e-16
8.1574e-16
9.38858e-16
1.06449e-15
1.19164e-15
1.31943e-15
1.44702e-15
1.57365e-15
1.6986e-15
1.8212e-15
1.94079e-15
2.05675e-15
2.16851e-15
2.27551e-15
2.37723e-15
2.47319e-15
2.56295e-15
2.64608e-15
2.7222e-15
2.79098e-15
2.8521e-15
2.90529e-15
2.95032e-15
2.987e-15
3.01517e-15
3.03472e-15
3.04557e-15
3.04769e-15
3.04108e-15
3.02578e-15
3.00187e-15
2.96948e-15
2.92875e-15
2.87989e-15
2.82313e-15
2.75874e-15
2.68701e-15
2.60828e-15
2.52293e-15
2.43135e-15
2.33397e-15
2.23125e-15
2.12368e-15
2.01179e-15
1.89611e-15
1.77722e-15
1.65573e-15
1.53225e-15
1.40747e-15
1.28205e-15
1.15675e-15
1.03234e-15
9.09685e-16
7.89742e-16
6.73604e-16
5.62564e-16
4.58218e-16
3.62652e-16
2.7877e-16
2.22045e-16
2.22045e-16
2.22045e-16
2.22045e-16
2.22045e-16
2.22045e-16
2.22045e-16
2.22045e-16
2.22045e-16
2.22045e-16
2.22045e-16
2.59741e-16
3.58993e-16
4.75809e-16
6.05618e-16
7.45252e-16
8.92338e-16
1.04499e-15
1.20164e-15
1.36095e-15
1.52171e-15
1.68285e-15
1.84337e-15
2.00235e-15
2.15892e-15
2.31226e-15
2.46159e-15
2.60618e-15
2.74534e-15
2.87841e-15
3.00478e-15
3.12387e-15
3.23515e-15
3.33813e-15
3.43236e-15
3.51742e-15
3.59296e-15
3.65866e-15
3.71424e-15
3.75947e-15
3.79417e-15
3.81822e-15
3.83151e-15
3.83402e-15
3.82575e-15
3.80674e-15
3.7771e-15
3.73696e-15
3.68653e-15
3.62603e-15
3.55574e-15
3.47597e-15
3.3871e-15
3.28951e-15
3.18364e-15
3.06998e-15
2.94902e-15
2.82133e-15
2.68748e-15
2.54809e-15
2.4038e-15
2.2553e-15
2.1033e-15
1.94857e-15
1.79188e-15
1.63407e-15
1.47604e-15
1.31872e-15
1.16317e-15
1.01051e-15
8.62065e-16
7.19336e-16
5.84163e-16
4.5887e-16
3.46569e-16
2.51752e-16
2.22045e-16
2.22045e-16
2.22045e-16
2.22045e-16
2.22045e-16
2.22045e-16
2.22045e-16
2.22045e-16
2.22045e-16
2.22045e-16
3.13173e-16
4.41027e-16
5.87708e-16
7.4864e-16
9.20497e-16
1.10069e-15
1.28709e-15
1.47792e-15
1.67159e-15
1.86671e-15
2.062e-15
2.25628e-15
2.44846e-15
2.63751e-15
2.82247e-15
3.00241e-15
3.17648e-15
3.34386e-15
3.50379e-15
3.65554e-15
3.79846e-15
3.93191e-15
4.05532e-15
4.16817e-15
4.26998e-15
4.36033e-15
4.43886e-15
4.50525e-15
4.55923e-15
4.6006e-15
4.6292e-15
4.64494e-15
4.64776e-15
4.6377e-15
4.61478e-15
4.57915e-15
4.53095e-15
4.47043e-15
4.39785e-15
4.31354e-15
4.21786e-15
4.11124e-15
3.99415e-15
3.86709e-15
3.73061e-15
3.58533e-15
3.43187e-15
3.27091e-15
3.10319e-15
2.92945e-15
2.75049e-15
2.56716e-15
2.38035e-15
2.19097e-15
2.00003e-15
1.80857e-15
1.61771e-15
1.42867e-15
1.2428e-15
1.06161e-15
8.86815e-16
7.20483e-16
5.65143e-16
4.24077e-16
3.01849e-16
2.22045e-16
2.22045e-16
2.22045e-16
2.22045e-16
2.22045e-16
2.22045e-16
2.22045e-16
2.22045e-16
2.22045e-16
2.46917e-16
3.75439e-16
5.31512e-16
7.08041e-16
9.0023e-16
1.10451e-15
1.31804e-15
1.53848e-15
1.76378e-15
1.99217e-15
2.22203e-15
2.45188e-15
2.68037e-15
2.90621e-15
3.12822e-15
3.34527e-15
3.5563e-15
3.76033e-15
3.95639e-15
4.14362e-15
4.32118e-15
4.48831e-15
4.64428e-15
4.78844e-15
4.92019e-15
5.039e-15
5.14437e-15
5.23588e-15
5.31319e-15
5.37599e-15
5.42404e-15
5.45718e-15
5.4753e-15
5.47833e-15
5.46633e-15
5.43932e-15
5.39747e-15
5.34096e-15
5.27006e-15
5.18507e-15
5.08638e-15
4.97441e-15
4.84964e-15
4.71261e-15
4.5639e-15
4.40416e-15
4.23407e-15
4.05436e-15
3.86582e-15
3.66928e-15
3.46562e-15
3.25575e-15
3.04066e-15
2.82136e-15
2.59893e-15
2.37452e-15
2.14934e-15
1.92469e-15
1.70197e-15
1.48273e-15
1.26867e-15
1.06174e-15
8.64202e-16
6.78801e-16
5.09e-16
3.59473e-16
2.37143e-16
2.22045e-16
2.22045e-16
2.22045e-16
2.22045e-16
2.22045e-16
2.22045e-16
2.22045e-16
2.22045e-16
2.88945e-16
4.43739e-16
6.28031e-16
8.34462e-16
1.05797e-15
1.29472e-15
1.54165e-15
1.79617e-15
2.05602e-15
2.3192e-15
2.58388e-15
2.8484e-15
3.1112e-15
3.37084e-15
3.62595e-15
3.87525e-15
4.11753e-15
4.35165e-15
4.57655e-15
4.79122e-15
4.99472e-15
5.18617e-15
5.36476e-15
5.52974e-15
5.68045e-15
5.81628e-15
5.93667e-15
6.04116e-15
6.12935e-15
6.20091e-15
6.25556e-15
6.29313e-15
6.3135e-15
6.3166e-15
6.30249e-15
6.27121e-15
6.22294e-15
6.15791e-15
6.0764e-15
5.97879e-15
5.86549e-15
5.73698e-15
5.59382e-15
5.43662e-15
5.26604e-15
5.0828e-15
4.88768e-15
4.68152e-15
4.46521e-15
4.2397e-15
4.00596e-15
3.76507e-15
3.51812e-15
3.26627e-15
3.01077e-15
2.7529e-15
2.49405e-15
2.23569e-15
1.97941e-15
1.72694e-15
1.48017e-15
1.24128e-15
1.01272e-15
7.97481e-16
5.99256e-16
4.22993e-16
2.75941e-16
2.22045e-16
2.22045e-16
2.22045e-16
2.22045e-16
2.22045e-16
2.22045e-16
2.22045e-16
2.22045e-16
3.33895e-16
5.15683e-16
7.28515e-16
9.64955e-16
1.21977e-15
1.48893e-15
1.76914e-15
2.0576e-15
2.35185e-15
2.64965e-15
2.94901e-15
3.24804e-15
3.54501e-15
3.83829e-15
4.12636e-15
4.40777e-15
4.68117e-15
4.94527e-15
5.19887e-15
5.44085e-15
5.67014e-15
5.88578e-15
6.08684e-15
6.27251e-15
6.44202e-15
6.59469e-15
6.72994e-15
6.84723e-15
6.94612e-15
7.02624e-15
7.0873e-15
7.12911e-15
7.15153e-15
7.15451e-15
7.13809e-15
7.10236e-15
7.0475e-15
6.97377e-15
6.88151e-15
6.77112e-15
6.64308e-15
6.49793e-15
6.33629e-15
6.15885e-15
5.96634e-15
5.75959e-15
5.53946e-15
5.3069e-15
5.06289e-15
4.8085e-15
4.54484e-15
4.27309e-15
3.9945e-15
3.71036e-15
3.42206e-15
3.13105e-15
2.83887e-15
2.54717e-15
2.25771e-15
1.9724e-15
1.69333e-15
1.42285e-15
1.16363e-15
9.18851e-16
6.92399e-16
4.89405e-16
3.17239e-16
2.22045e-16
2.22045e-16
2.22045e-16
2.22045e-16
2.22045e-16
2.22045e-16
2.22045e-16
2.22045e-16
3.81492e-16
5.90468e-16
8.31784e-16
1.09807e-15
1.38397e-15
1.68527e-15
1.99847e-15
2.32055e-15
2.64884e-15
2.98092e-15
3.31457e-15
3.64773e-15
3.97849e-15
4.30504e-15
4.62568e-15
4.93883e-15
5.24296e-15
5.53666e-15
5.81859e-15
6.0875e-15
6.34222e-15
6.58166e-15
6.80484e-15
7.01081e-15
7.19877e-15
7.36795e-15
7.5177e-15
7.64745e-15
7.75671e-15
7.84508e-15
7.91226e-15
7.95801e-15
7.98222e-15
7.98482e-15
7.96589e-15
7.9255e-15
7.86388e-15
7.78131e-15
7.67819e-15
7.55495e-15
7.41213e-15
7.25034e-15
7.07027e-15
6.87266e-15
6.65836e-15
6.42827e-15
6.18334e-15
5.92463e-15
5.65323e-15
5.37032e-15
5.07713e-15
4.77496e-15
4.4652e-15
4.14929e-15
3.82875e-15
3.50518e-15
3.18029e-15
2.85587e-15
2.53387e-15
2.21636e-15
1.90561e-15
1.60416e-15
1.31486e-15
1.04106e-15
7.86815e-16
5.57361e-16
3.60061e-16
2.22045e-16
2.22045e-16
2.22045e-16
2.22045e-16
2.22045e-16
2.22045e-16
2.22045e-16
2.45688e-16
4.33688e-16
6.68215e-16
9.37142e-16
1.23269e-15
1.54919e-15
1.88216e-15
2.22787e-15
2.58308e-15
2.94489e-15
3.3107e-15
3.67809e-15
4.04481e-15
4.40876e-15
4.76798e-15
5.12061e-15
5.46488e-15
5.79914e-15
6.12183e-15
6.43149e-15
6.72674e-15
7.0063e-15
7.26898e-15
7.51369e-15
7.73942e-15
7.94527e-15
8.13042e-15
8.29417e-15
8.43588e-15
8.55504e-15
8.65122e-15
8.7241e-15
8.77342e-15
8.79907e-15
8.801e-15
8.77928e-15
8.73401e-15
8.66545e-15
8.57393e-15
8.45986e-15
8.32376e-15
8.1662e-15
7.98787e-15
7.78951e-15
7.57196e-15
7.33614e-15
7.08304e-15
6.81371e-15
6.52931e-15
6.23103e-15
5.92016e-15
5.59806e-15
5.26616e-15
4.92596e-15
4.57904e-15
4.22705e-15
3.87176e-15
3.515e-15
3.15875e-15
2.80508e-15
2.45625e-15
2.1147e-15
1.78314e-15
1.46461e-15
1.16263e-15
8.81452e-16
6.26491e-16
4.05221e-16
2.29359e-16
2.22045e-16
2.22045e-16
2.22045e-16
2.22045e-16
2.22045e-16
2.22045e-16
2.77033e-16
4.87709e-16
7.47324e-16
1.04334e-15
1.36761e-15
1.71414e-15
2.0782e-15
2.4558e-15
2.84348e-15
3.23814e-15
3.63697e-15
4.03736e-15
4.43688e-15
4.83328e-15
5.22439e-15
5.6082e-15
5.9828e-15
6.3464e-15
6.69728e-15
7.03387e-15
7.35466e-15
7.65827e-15
7.94341e-15
8.20889e-15
8.45362e-15
8.67664e-15
8.87706e-15
9.05412e-15
9.20716e-15
9.33561e-15
9.43903e-15
9.51707e-15
9.56949e-15
9.59615e-15
9.59702e-15
9.5722e-15
9.5218e-15
9.44612e-15
9.34552e-15
9.22047e-15
9.07152e-15
8.89933e-15
8.70462e-15
8.48824e-15
8.25108e-15
7.99414e-15
7.71851e-15
7.42535e-15
7.11587e-15
6.79142e-15
6.45337e-15
6.10319e-15
5.74244e-15
5.37274e-15
4.9958e-15
4.6134e-15
4.22745e-15
3.83992e-15
3.45293e-15
3.06872e-15
2.68968e-15
2.31844e-15
1.95786e-15
1.61116e-15
1.28207e-15
9.75059e-16
6.95804e-16
4.52116e-16
2.56166e-16
2.22045e-16
2.22045e-16
2.22045e-16
2.22045e-16
2.22045e-16
2.22045e-16
3.08975e-16
5.42294e-16
8.26703e-16
1.14935e-15
1.50177e-15
1.87771e-15
2.27215e-15
2.6809e-15
3.10026e-15
3.52695e-15
3.95795e-15
4.39046e-15
4.82189e-15
5.24979e-15
5.67185e-15
6.0859e-15
6.48986e-15
6.88181e-15
7.25991e-15
7.62244e-15
7.96779e-15
8.29448e-15
8.60111e-15
8.88641e-15
9.14923e-15
9.38851e-15
9.60333e-15
9.79286e-15
9.95642e-15
1.00934e-14
1.02034e-14
1.02859e-14
1.03409e-14
1.0368e-14
1.03674e-14
1.03391e-14
1.02833e-14
1.02002e-14
1.00904e-14
9.95437e-15
9.79264e-15
9.60595e-15
9.39512e-15
9.16103e-15
8.90469e-15
8.62716e-15
8.32962e-15
8.01331e-15
7.67956e-15
7.3298e-15
6.96551e-15
6.58829e-15
6.19977e-15
5.80172e-15
5.39596e-15
4.98441e-15
4.56908e-15
4.1521e-15
3.73571e-15
3.32229e-15
2.91439e-15
2.51477e-15
2.12646e-15
1.75287e-15
1.39789e-15
1.06621e-15
7.6374e-16
4.98582e-16
2.83202e-16
2.22045e-16
2.22045e-16
2.22045e-16
2.22045e-16
2.22045e-16
2.22045e-16
3.4102e-16
5.96807e-16
9.0563e-16
1.25438e-15
1.63431e-15
2.03891e-15
2.46295e-15
2.90199e-15
3.35214e-15
3.80992e-15
4.2721e-15
4.73574e-15
5.19803e-15
5.65638e-15
6.1083e-15
6.55146e-15
6.98366e-15
7.40282e-15
7.80698e-15
8.19431e-15
8.56307e-15
8.91169e-15
9.23867e-15
9.54268e-15
9.82247e-15
1.00769e-14
1.03051e-14
1.05061e-14
1.06793e-14
1.08239e-14
1.09396e-14
1.10259e-14
1.10826e-14
1.11097e-14
1.1107e-14
1.10748e-14
1.10132e-14
1.09226e-14
1.08034e-14
1.06563e-14
1.04819e-14
1.02809e-14
1.00542e-14
9.8028e-15
9.52779e-15
9.23029e-15
8.91156e-15
8.57294e-15
8.21585e-15
7.8418e-15
7.4524e-15
7.04931e-15
6.63432e-15
6.20926e-15
5.77609e-15
5.33683e-15
4.89362e-15
4.44872e-15
4.00447e-15
3.5634e-15
3.12819e-15
2.70173e-15
2.28721e-15
1.88817e-15
1.5087e-15
1.15366e-15
8.29168e-16
5.43555e-16
3.09519e-16
2.22045e-16
2.22045e-16
2.22045e-16
2.22045e-16
2.22045e-16
2.22045e-16
3.72874e-16
6.50805e-16
9.83546e-16
1.35776e-15
1.76447e-15
2.19692e-15
2.64966e-15
3.11805e-15
3.598e-15
4.08582e-15
4.57813e-15
5.07176e-15
5.56377e-15
6.05137e-15
6.53194e-15
7.00298e-15
7.46216e-15
7.90725e-15
8.33617e-15
8.74698e-15
9.13784e-15
9.50707e-15
9.85311e-15
1.01745e-14
1.047e-14
1.07385e-14
1.09788e-14
1.11901e-14
1.13718e-14
1.1523e-14
1.16434e-14
1.17326e-14
1.17903e-14
1.18165e-14
1.18112e-14
1.17745e-14
1.17067e-14
1.16083e-14
1.14796e-14
1.13214e-14
1.11343e-14
1.09191e-14
1.0677e-14
1.04087e-14
1.01156e-14
9.79887e-15
9.45978e-15
9.0998e-15
8.72042e-15
8.32326e-15
7.91e-15
7.48243e-15
7.04239e-15
6.59186e-15
6.13286e-15
5.66755e-15
5.19817e-15
4.72706e-15
4.25672e-15
3.78976e-15
3.329e-15
2.87745e-15
2.43843e-15
2.01561e-15
1.61324e-15
1.23632e-15
8.91179e-16
5.86317e-16
3.34628e-16
2.22045e-16
2.22045e-16
2.22045e-16
2.22045e-16
2.22045e-16
2.22045e-16
4.04309e-16
7.03936e-16
1.05999e-15
1.45894e-15
1.8916e-15
2.35101e-15
2.83149e-15
3.32822e-15
3.83691e-15
4.35368e-15
4.87494e-15
5.39738e-15
5.91786e-15
6.43343e-15
6.94131e-15
7.43887e-15
7.92363e-15
8.39323e-15
8.84547e-15
9.27831e-15
9.6898e-15
1.00782e-14
1.04418e-14
1.07792e-14
1.1089e-14
1.137e-14
1.16211e-14
1.18415e-14
1.20303e-14
1.2187e-14
1.2311e-14
1.2402e-14
1.24598e-14
1.24843e-14
1.24756e-14
1.24339e-14
1.23595e-14
1.22528e-14
1.21143e-14
1.19449e-14
1.17452e-14
1.15162e-14
1.12589e-14
1.09743e-14
1.06637e-14
1.03285e-14
9.96996e-15
9.58966e-15
9.18918e-15
8.7702e-15
8.33451e-15
7.88395e-15
7.42049e-15
6.94617e-15
6.46313e-15
5.9736e-15
5.47992e-15
4.98454e-15
4.49005e-15
3.99917e-15
3.51482e-15
3.04012e-15
2.57851e-15
2.13377e-15
1.71028e-15
1.31319e-15
9.48957e-16
6.2626e-16
3.5814e-16
2.22045e-16
2.22045e-16
2.22045e-16
2.22045e-16
2.22045e-16
2.22045e-16
4.35172e-16
7.55933e-16
1.13459e-15
1.55747e-15
2.0152e-15
2.50061e-15
3.00784e-15
3.53186e-15
4.06817e-15
4.61271e-15
5.16172e-15
5.71168e-15
6.2593e-15
6.80147e-15
7.33525e-15
7.85787e-15
8.36669e-15
8.85926e-15
9.33326e-15
9.78653e-15
1.0217e-14
1.0623e-14
1.10025e-14
1.13543e-14
1.16768e-14
1.19688e-14
1.22292e-14
1.24571e-14
1.26517e-14
1.28124e-14
1.29388e-14
1.30305e-14
1.30873e-14
1.31092e-14
1.30963e-14
1.30488e-14
1.29672e-14
1.28518e-14
1.27034e-14
1.25226e-14
1.23104e-14
1.20677e-14
1.17955e-14
1.14952e-14
1.11678e-14
1.0815e-14
1.0438e-14
1.00385e-14
9.61822e-15
9.17884e-15
8.72225e-15
8.25038e-15
7.76526e-15
7.26901e-15
6.76386e-15
6.25212e-15
5.73621e-15
5.21867e-15
4.70217e-15
4.18953e-15
3.68374e-15
3.18803e-15
2.70592e-15
2.24132e-15
1.79869e-15
1.3833e-15
1.00174e-15
6.6282e-16
3.79705e-16
2.22045e-16
2.22045e-16
2.22045e-16
2.22045e-16
2.22045e-16
2.22045e-16
4.65465e-16
8.0666e-16
1.2071e-15
1.65302e-15
2.13488e-15
2.64532e-15
3.17827e-15
3.72848e-15
4.29128e-15
4.86239e-15
5.43788e-15
6.01404e-15
6.58742e-15
7.15473e-15
7.7129e-15
8.25901e-15
8.7903e-15
9.30418e-15
9.79824e-15
1.02702e-14
1.0718e-14
1.11397e-14
1.15335e-14
1.18978e-14
1.22312e-14
1.25325e-14
1.28005e-14
1.30343e-14
1.32332e-14
1.33965e-14
1.35238e-14
1.36148e-14
1.36694e-14
1.36876e-14
1.36695e-14
1.36155e-14
1.3526e-14
1.34015e-14
1.32427e-14
1.30505e-14
1.28258e-14
1.25695e-14
1.2283e-14
1.19673e-14
1.1624e-14
1.12543e-14
1.086e-14
1.04426e-14
1.00038e-14
9.54558e-15
9.06976e-15
8.57836e-15
8.07349e-15
7.55734e-15
7.03218e-15
6.50041e-15
5.96452e-15
5.4271e-15
4.89091e-15
4.35884e-15
3.83395e-15
3.31955e-15
2.81923e-15
2.33699e-15
1.87738e-15
1.44576e-15
1.04882e-15
6.95479e-16
3.98998e-16
2.22045e-16
2.22045e-16
2.22045e-16
2.22045e-16
2.22045e-16
2.22045e-16
4.95666e-16
8.56203e-16
1.27741e-15
1.74541e-15
2.25044e-15
2.78492e-15
3.34255e-15
3.91787e-15
4.50599e-15
5.10244e-15
5.7031e-15
6.30409e-15
6.90177e-15
7.49272e-15
8.0737e-15
8.64165e-15
9.1937e-15
9.72714e-15
1.02395e-14
1.07283e-14
1.11915e-14
1.1627e-14
1.20331e-14
1.24081e-14
1.27506e-14
1.30592e-14
1.3333e-14
1.35709e-14
1.37722e-14
1.39365e-14
1.40631e-14
1.4152e-14
1.42031e-14
1.42164e-14
1.41921e-14
1.41306e-14
1.40324e-14
1.38982e-14
1.37287e-14
1.35248e-14
1.32875e-14
1.30179e-14
1.27173e-14
1.23869e-14
1.20283e-14
1.16428e-14
1.12322e-14
1.07982e-14
1.03425e-14
9.867e-15
9.37374e-15
8.86475e-15
8.34218e-15
7.80827e-15
7.26537e-15
6.71591e-15
6.16244e-15
5.60761e-15
5.05423e-15
4.50523e-15
3.96375e-15
3.43315e-15
2.91709e-15
2.41962e-15
1.94536e-15
1.49975e-15
1.08955e-15
7.23763e-16
4.15725e-16
2.22045e-16
2.22045e-16
2.22045e-16
2.22045e-16
2.22045e-16
2.34386e-16
5.26259e-16
9.04592e-16
1.34548e-15
1.8346e-15
2.36187e-15
2.91941e-15
3.50068e-15
4.1e-15
4.71226e-15
5.33281e-15
5.9573e-15
6.58171e-15
7.20221e-15
7.81522e-15
8.41736e-15
9.00544e-15
9.57646e-15
1.01276e-14
1.06563e-14
1.116e-14
1.16366e-14
1.20839e-14
1.25002e-14
1.28838e-14
1.32333e-14
1.35473e-14
1.38247e-14
1.40648e-14
1.42668e-14
1.44301e-14
1.45544e-14
1.46396e-14
1.46856e-14
1.46926e-14
1.46608e-14
1.45908e-14
1.44832e-14
1.43386e-14
1.41578e-14
1.3942e-14
1.3692e-14
1.34093e-14
1.30949e-14
1.27504e-14
1.23772e-14
1.1977e-14
1.15513e-14
1.1102e-14
1.06309e-14
1.01399e-14
9.63109e-15
9.10654e-15
8.56846e-15
8.01911e-15
7.46087e-15
6.89623e-15
6.32774e-15
5.75813e-15
5.19021e-15
4.62697e-15
4.07159e-15
3.52745e-15
2.99827e-15
2.48814e-15
2.00172e-15
1.54452e-15
1.12334e-15
7.47243e-16
4.29624e-16
2.22045e-16
2.22045e-16
2.22045e-16
2.22045e-16
2.22045e-16
2.4979e-16
5.56256e-16
9.51603e-16
1.41135e-15
1.92073e-15
2.46932e-15
3.04896e-15
3.65285e-15
4.27506e-15
4.91029e-15
5.55365e-15
6.20064e-15
6.84701e-15
7.48881e-15
8.12227e-15
8.74388e-15
9.3503e-15
9.93842e-15
1.05053e-14
1.10483e-14
1.15649e-14
1.20527e-14
1.25097e-14
1.29341e-14
1.33241e-14
1.36782e-14
1.39954e-14
1.42744e-14
1.45144e-14
1.47149e-14
1.48753e-14
1.49954e-14
1.50751e-14
1.51143e-14
1.51136e-14
1.50731e-14
1.49934e-14
1.48753e-14
1.47195e-14
1.4527e-14
1.42988e-14
1.40361e-14
1.37403e-14
1.34125e-14
1.30544e-14
1.26675e-14
1.22535e-14
1.18139e-14
1.13508e-14
1.08659e-14
1.03613e-14
9.83892e-15
9.30098e-15
8.74969e-15
8.18734e-15
7.61632e-15
7.03913e-15
6.45837e-15
5.87675e-15
5.29712e-15
4.72248e-15
4.15602e-15
3.60117e-15
3.06165e-15
2.54158e-15
2.04566e-15
1.5794e-15
1.14966e-15
7.65545e-16
4.40461e-16
2.22045e-16
2.22045e-16
2.22045e-16
2.22045e-16
2.22045e-16
2.64931e-16
5.85538e-16
9.97287e-16
1.47517e-15
2.00403e-15
2.57307e-15
3.17387e-15
3.79936e-15
4.44337e-15
5.10038e-15
5.7653e-15
6.43342e-15
7.10033e-15
7.76187e-15
8.41414e-15
9.05347e-15
9.6764e-15
1.02797e-14
1.08603e-14
1.14156e-14
1.19428e-14
1.24396e-14
1.2904e-14
1.3334e-14
1.3728e-14
1.40846e-14
1.44025e-14
1.46807e-14
1.49184e-14
1.51152e-14
1.52705e-14
1.53843e-14
1.54565e-14
1.54873e-14
1.54771e-14
1.54263e-14
1.53357e-14
1.5206e-14
1.50382e-14
1.48333e-14
1.45924e-14
1.43168e-14
1.40079e-14
1.36671e-14
1.3296e-14
1.28961e-14
1.24693e-14
1.20172e-14
1.15417e-14
1.10448e-14
1.05284e-14
9.99457e-15
9.44552e-15
8.88344e-15
8.31065e-15
7.72954e-15
7.14261e-15
6.55243e-15
5.96174e-15
5.37337e-15
4.79032e-15
4.21579e-15
3.65319e-15
3.10625e-15
2.57911e-15
2.07645e-15
1.60382e-15
1.16808e-15
7.7834e-16
4.48038e-16
2.22045e-16
2.22045e-16
2.22045e-16
2.22045e-16
2.22045e-16
2.79802e-16
6.14152e-16
1.04177e-15
1.53715e-15
2.08474e-15
2.67342e-15
3.29448e-15
3.9406e-15
4.60536e-15
5.283e-15
5.96824e-15
6.65615e-15
7.34214e-15
8.02188e-15
8.6913e-15
9.34658e-15
9.98414e-15
1.06006e-14
1.11929e-14
1.17582e-14
1.22938e-14
1.27973e-14
1.32666e-14
1.36998e-14
1.40953e-14
1.44517e-14
1.47678e-14
1.50427e-14
1.52757e-14
1.54663e-14
1.56143e-14
1.57195e-14
1.57821e-14
1.58024e-14
1.5781e-14
1.57184e-14
1.56155e-14
1.5473e-14
1.52922e-14
1.50741e-14
1.482e-14
1.45313e-14
1.42094e-14
1.38558e-14
1.34722e-14
1.30602e-14
1.26217e-14
1.21583e-14
1.16721e-14
1.11649e-14
1.06387e-14
1.00956e-14
9.53785e-15
8.96753e-15
8.387e-15
7.79861e-15
7.20484e-15
6.60826e-15
6.01156e-15
5.41756e-15
4.82923e-15
4.24975e-15
3.6825e-15
3.13121e-15
2.59998e-15
2.09349e-15
1.61727e-15
1.17819e-15
7.85355e-16
4.52186e-16
2.22045e-16
2.22045e-16
2.22045e-16
2.22045e-16
2.22045e-16
2.94427e-16
6.42171e-16
1.08517e-15
1.59747e-15
2.16313e-15
2.77071e-15
3.4112e-15
4.07701e-15
4.76151e-15
5.45869e-15
6.16303e-15
6.86943e-15
7.57308e-15
8.26947e-15
8.95438e-15
9.62384e-15
1.02741e-14
1.09018e-14
1.15036e-14
1.20766e-14
1.26182e-14
1.31259e-14
1.35976e-14
1.40314e-14
1.44258e-14
1.47793e-14
1.5091e-14
1.53598e-14
1.55854e-14
1.57673e-14
1.59053e-14
1.59996e-14
1.60503e-14
1.60581e-14
1.60236e-14
1.59474e-14
1.58305e-14
1.56741e-14
1.54792e-14
1.52471e-14
1.49793e-14
1.46771e-14
1.43422e-14
1.39762e-14
1.35807e-14
1.31574e-14
1.27083e-14
1.2235e-14
1.17396e-14
1.12239e-14
1.06901e-14
1.014e-14
9.57596e-15
9.00005e-15
8.41456e-15
7.82182e-15
7.22426e-15
6.62441e-15
6.02489e-15
5.4285e-15
4.83815e-15
4.25696e-15
3.68829e-15
3.13581e-15
2.60358e-15
2.09627e-15
1.61937e-15
1.1797e-15
7.86368e-16
4.52773e-16
2.22045e-16
2.22045e-16
2.22045e-16
2.22045e-16
2.22045e-16
3.08841e-16
6.69678e-16
1.12765e-15
1.65636e-15
2.23949e-15
2.86529e-15
3.52445e-15
4.20912e-15
4.91241e-15
5.62808e-15
6.35038e-15
7.074e-15
7.79391e-15
8.50545e-15
9.20419e-15
9.88602e-15
1.05471e-14
1.11838e-14
1.17929e-14
1.23714e-14
1.29165e-14
1.34258e-14
1.38973e-14
1.4329e-14
1.47194e-14
1.50672e-14
1.53715e-14
1.56315e-14
1.58469e-14
1.60173e-14
1.61427e-14
1.62235e-14
1.626e-14
1.6253e-14
1.62032e-14
1.61116e-14
1.59792e-14
1.58073e-14
1.55971e-14
1.53502e-14
1.5068e-14
1.47522e-14
1.44043e-14
1.4026e-14
1.36192e-14
1.31855e-14
1.27269e-14
1.22451e-14
1.17422e-14
1.122e-14
1.06806e-14
1.0126e-14
9.55822e-15
8.97946e-15
8.39192e-15
7.79786e-15
7.19966e-15
6.59977e-15
6.00075e-15
5.4053e-15
4.81628e-15
4.23673e-15
3.66995e-15
3.11954e-15
2.5895e-15
2.08445e-15
1.60982e-15
1.17239e-15
7.81235e-16
4.4971e-16
2.22045e-16
2.22045e-16
2.22045e-16
2.22045e-16
2.22045e-16
3.2309e-16
6.96769e-16
1.16937e-15
1.71405e-15
2.31414e-15
2.95756e-15
3.63471e-15
4.33748e-15
5.05869e-15
5.79188e-15
6.53106e-15
7.27067e-15
8.00551e-15
8.73069e-15
9.44163e-15
1.0134e-14
1.08039e-14
1.14476e-14
1.20618e-14
1.26432e-14
1.31894e-14
1.36977e-14
1.4166e-14
1.45927e-14
1.49762e-14
1.53154e-14
1.56093e-14
1.58575e-14
1.60596e-14
1.62156e-14
1.63257e-14
1.63902e-14
1.64099e-14
1.63857e-14
1.63185e-14
1.62094e-14
1.60597e-14
1.58709e-14
1.56444e-14
1.53817e-14
1.50846e-14
1.47547e-14
1.43938e-14
1.40036e-14
1.3586e-14
1.31428e-14
1.26759e-14
1.21871e-14
1.16784e-14
1.11517e-14
1.0609e-14
1.00521e-14
9.48331e-15
8.90452e-15
8.3179e-15
7.72564e-15
7.13002e-15
6.5334e-15
5.93825e-15
5.34716e-15
4.7629e-15
4.18843e-15
3.62693e-15
3.08193e-15
2.55734e-15
2.0577e-15
1.58838e-15
1.1561e-15
7.69839e-16
4.42933e-16
2.22045e-16
2.22045e-16
2.22045e-16
2.22045e-16
2.22045e-16
3.37223e-16
7.2355e-16
1.21049e-15
1.77079e-15
2.38741e-15
3.04794e-15
3.7425e-15
4.46268e-15
5.20104e-15
5.95085e-15
6.70589e-15
7.46035e-15
8.20881e-15
8.94618e-15
9.66768e-15
1.03689e-14
1.10456e-14
1.16942e-14
1.2311e-14
1.2893e-14
1.34375e-14
1.3942e-14
1.44044e-14
1.4823e-14
1.51965e-14
1.55239e-14
1.58043e-14
1.60375e-14
1.62232e-14
1.63618e-14
1.64535e-14
1.64988e-14
1.64991e-14
1.64552e-14
1.63683e-14
1.62397e-14
1.6071e-14
1.58638e-14
1.56196e-14
1.53403e-14
1.50276e-14
1.46833e-14
1.43094e-14
1.39076e-14
1.34799e-14
1.3028e-14
1.2554e-14
1.20598e-14
1.15471e-14
1.10179e-14
1.04741e-14
9.91759e-15
9.35039e-15
8.77445e-15
8.19181e-15
7.60454e-15
7.0148e-15
6.42483e-15
5.83699e-15
5.25375e-15
4.67775e-15
4.11182e-15
3.55905e-15
3.02284e-15
2.507e-15
2.01597e-15
1.55503e-15
1.13079e-15
7.5218e-16
4.32447e-16
2.22045e-16
2.22045e-16
2.22045e-16
2.22045e-16
2.22045e-16
3.51298e-16
7.50139e-16
1.25121e-15
1.82685e-15
2.45965e-15
3.13688e-15
3.84834e-15
4.58534e-15
5.34015e-15
6.10578e-15
6.87572e-15
7.64394e-15
8.40477e-15
9.1529e-15
9.88337e-15
1.05916e-14
1.12732e-14
1.19244e-14
1.25415e-14
1.31216e-14
1.36616e-14
1.41594e-14
1.46128e-14
1.50203e-14
1.53806e-14
1.56928e-14
1.59564e-14
1.61712e-14
1.63374e-14
1.64553e-14
1.65253e-14
1.65488e-14
1.65268e-14
1.64607e-14
1.63517e-14
1.62016e-14
1.6012e-14
1.57847e-14
1.55217e-14
1.52247e-14
1.48958e-14
1.45369e-14
1.415e-14
1.3737e-14
1.32998e-14
1.28404e-14
1.23606e-14
1.18624e-14
1.13476e-14
1.0818e-14
1.02755e-14
9.72199e-15
9.15921e-15
8.58909e-15
8.01353e-15
7.43447e-15
6.85395e-15
6.27406e-15
5.69701e-15
5.12512e-15
4.5609e-15
4.00702e-15
3.46643e-15
2.9424e-15
2.43862e-15
1.95939e-15
1.50988e-15
1.0966e-15
7.28354e-16
4.18319e-16
2.22045e-16
2.22045e-16
2.22045e-16
2.22045e-16
2.22045e-16
3.65374e-16
7.76653e-16
1.29172e-15
1.8825e-15
2.53122e-15
3.22482e-15
3.95277e-15
4.70608e-15
5.47674e-15
6.25744e-15
7.04142e-15
7.82236e-15
8.59435e-15
9.35186e-15
1.00897e-14
1.08031e-14
1.14876e-14
1.21392e-14
1.27542e-14
1.33296e-14
1.38625e-14
1.43505e-14
1.47918e-14
1.51849e-14
1.55286e-14
1.58222e-14
1.60655e-14
1.62586e-14
1.64017e-14
1.64955e-14
1.65408e-14
1.65394e-14
1.64923e-14
1.64012e-14
1.62678e-14
1.6094e-14
1.58816e-14
1.56329e-14
1.53497e-14
1.50343e-14
1.46887e-14
1.43149e-14
1.39151e-14
1.34914e-14
1.30455e-14
1.25796e-14
1.20955e-14
1.1595e-14
1.10801e-14
1.05523e-14
1.00136e-14
9.46564e-15
8.91013e-15
8.34883e-15
7.7835e-15
7.21593e-15
6.648e-15
6.08162e-15
5.51884e-15
4.96181e-15
4.41286e-15
3.87451e-15
3.34953e-15
2.84105e-15
2.35259e-15
1.88832e-15
1.45325e-15
1.05378e-15
6.98567e-16
4.00681e-16
2.22045e-16
2.22045e-16
2.22045e-16
2.22045e-16
2.22045e-16
3.79511e-16
8.03209e-16
1.3322e-15
1.93799e-15
2.60245e-15
3.31217e-15
4.05629e-15
4.82549e-15
5.61145e-15
6.40657e-15
7.20377e-15
7.99646e-15
8.77845e-15
9.54395e-15
1.02876e-14
1.10043e-14
1.16896e-14
1.23394e-14
1.29499e-14
1.35178e-14
1.40406e-14
1.45158e-14
1.49417e-14
1.53168e-14
1.56404e-14
1.5912e-14
1.61314e-14
1.62991e-14
1.64157e-14
1.64819e-14
1.64994e-14
1.64699e-14
1.63948e-14
1.62761e-14
1.61159e-14
1.59162e-14
1.56794e-14
1.54077e-14
1.51033e-14
1.47686e-14
1.44059e-14
1.40172e-14
1.36049e-14
1.31709e-14
1.27174e-14
1.22462e-14
1.17592e-14
1.12584e-14
1.07453e-14
1.02217e-14
9.68929e-15
9.1496e-15
8.60425e-15
8.05481e-15
7.50287e-15
6.95007e-15
6.39808e-15
5.84862e-15
5.30356e-15
4.76486e-15
4.23463e-15
3.71523e-15
3.20924e-15