/*--------------------------------*- C++ -*----------------------------------*\
  =========                 |
  \\      /  F ield         | OpenFOAM: The Open Source CFD Toolbox
   \\    /   O peration     | Website:  https://openfoam.org
    \\  /    A nd           | Version:  12
     \\/     M anipulation  |
\*---------------------------------------------------------------------------*/
FoamFile
{
    format      ascii;
    class       volScalarField;
    location    "8.5";
    object      nut;
}
// * * * * * * * * * * * * * * * * * * * * * * * * * * * * * * * * * * * * * //

dimensions      [0 2 -1 0 0 0 0];

internalField   nonuniform List<scalar> 
5625
(
4.44089e-21
1.77636e-20
1.77636e-20
1.77636e-20
1.77636e-20
1.77636e-20
1.77636e-20
1.77636e-20
1.77636e-20
1.77636e-20
1.77636e-20
1.77636e-20
1.77636e-20
1.77636e-20
1.77636e-20
1.77636e-20
1.77636e-20
1.77636e-20
1.77636e-20
1.77636e-20
1.77636e-20
1.77636e-20
1.77636e-20
1.77636e-20
1.77636e-20
1.77636e-20
1.77636e-20
1.77636e-20
1.77636e-20
1.77636e-20
1.77636e-20
1.77636e-20
1.77636e-20
1.77636e-20
1.77636e-20
1.77636e-20
1.77636e-20
1.77636e-20
1.77636e-20
1.77636e-20
1.77636e-20
1.77636e-20
1.77636e-20
1.77636e-20
1.77636e-20
1.77636e-20
1.77636e-20
1.77636e-20
1.77636e-20
1.77636e-20
1.77636e-20
1.77636e-20
1.77636e-20
1.77636e-20
1.77636e-20
1.77636e-20
1.77636e-20
1.77636e-20
1.77636e-20
1.77636e-20
1.77636e-20
1.77636e-20
1.77636e-20
1.77636e-20
1.77636e-20
1.77636e-20
1.77636e-20
1.77636e-20
1.77636e-20
1.77636e-20
1.77636e-20
1.77636e-20
1.77636e-20
1.77636e-20
4.44089e-21
4.44089e-21
2.11099e-20
4.86796e-20
7.01304e-20
7.99245e-20
8.34875e-20
8.47391e-20
8.5198e-20
8.53766e-20
8.54481e-20
8.54741e-20
8.54787e-20
8.54726e-20
8.54599e-20
8.54413e-20
8.54137e-20
8.53689e-20
8.52945e-20
8.52031e-20
8.51056e-20
8.50084e-20
8.49149e-20
8.48268e-20
8.47448e-20
8.46691e-20
8.45999e-20
8.4537e-20
8.44803e-20
8.44297e-20
8.4385e-20
8.4346e-20
8.43127e-20
8.42848e-20
8.42624e-20
8.42453e-20
8.42334e-20
8.42268e-20
8.42253e-20
8.4229e-20
8.42379e-20
8.42519e-20
8.42712e-20
8.42958e-20
8.43258e-20
8.43613e-20
8.44024e-20
8.44492e-20
8.45018e-20
8.45605e-20
8.46253e-20
8.46963e-20
8.47736e-20
8.48571e-20
8.49463e-20
8.50403e-20
8.51368e-20
8.52315e-20
8.53165e-20
8.53806e-20
8.54199e-20
8.5445e-20
8.54624e-20
8.54744e-20
8.54801e-20
8.54748e-20
8.54483e-20
8.53765e-20
8.51977e-20
8.47386e-20
8.34871e-20
7.99243e-20
7.01305e-20
4.86796e-20
2.11099e-20
4.44089e-21
4.44089e-21
2.13644e-20
5.63411e-20
1.0465e-19
1.51781e-19
1.85942e-19
2.06126e-19
2.16762e-19
2.2201e-19
2.24394e-19
2.25222e-19
2.25197e-19
2.24711e-19
2.23948e-19
2.22941e-19
2.21543e-19
2.19269e-19
2.39548e-19
2.72625e-19
3.09092e-19
3.48015e-19
3.88678e-19
4.30461e-19
4.72787e-19
5.151e-19
5.56854e-19
5.97513e-19
6.36552e-19
6.73468e-19
7.07781e-19
7.39042e-19
7.66842e-19
7.90814e-19
8.10643e-19
8.26068e-19
8.36888e-19
8.42962e-19
8.44214e-19
8.40635e-19
8.32278e-19
8.1926e-19
8.01764e-19
7.80028e-19
7.54348e-19
7.25066e-19
6.92572e-19
6.57293e-19
6.19687e-19
5.80239e-19
5.39452e-19
4.97839e-19
4.55926e-19
4.14241e-19
3.73326e-19
3.33745e-19
2.96125e-19
2.6123e-19
2.30144e-19
2.20042e-19
2.2202e-19
2.23291e-19
2.24236e-19
2.24961e-19
2.25412e-19
2.25394e-19
2.24516e-19
2.22092e-19
2.16815e-19
2.06157e-19
1.85958e-19
1.51787e-19
1.04652e-19
5.63414e-20
2.13644e-20
4.44089e-21
4.44089e-21
2.1387e-20
5.72981e-20
1.12856e-19
1.82426e-19
2.54178e-19
3.15533e-19
3.59707e-19
3.8664e-19
3.99662e-19
4.49806e-19
5.57327e-19
6.84493e-19
8.29839e-19
9.92218e-19
1.17048e-18
1.36323e-18
1.56863e-18
1.7844e-18
2.00824e-18
2.23786e-18
2.47095e-18
2.70519e-18
2.93821e-18
3.16762e-18
3.39105e-18
3.60616e-18
3.81066e-18
4.00238e-18
4.17924e-18
4.33932e-18
4.48089e-18
4.6024e-18
4.70252e-18
4.78016e-18
4.83449e-18
4.86492e-18
4.87115e-18
4.85315e-18
4.81113e-18
4.74561e-18
4.65735e-18
4.54736e-18
4.41688e-18
4.26739e-18
4.10052e-18
3.91813e-18
3.72217e-18
3.51477e-18
3.2981e-18
3.07444e-18
2.84607e-18
2.61528e-18
2.38438e-18
2.15559e-18
1.93114e-18
1.7132e-18
1.50395e-18
1.30558e-18
1.12015e-18
9.49251e-19
7.94094e-19
6.55733e-19
5.35281e-19
4.3427e-19
4.01323e-19
3.87715e-19
3.60346e-19
3.15851e-19
2.54301e-19
1.82461e-19
1.12863e-19
5.72989e-20
2.1387e-20
4.44089e-21
4.44089e-21
2.13898e-20
5.74366e-20
1.14451e-19
1.90626e-19
2.79103e-19
3.6733e-19
4.40491e-19
6.71855e-19
9.79943e-19
1.35788e-18
1.8019e-18
2.30662e-18
2.86607e-18
3.47371e-18
4.12228e-18
4.80378e-18
5.50995e-18
6.23336e-18
6.96737e-18
7.70588e-18
8.44299e-18
9.17288e-18
9.88967e-18
1.05875e-17
1.12604e-17
1.19027e-17
1.25087e-17
1.30731e-17
1.35908e-17
1.4057e-17
1.44675e-17
1.48187e-17
1.51072e-17
1.53304e-17
1.54863e-17
1.55736e-17
1.55914e-17
1.55398e-17
1.54194e-17
1.52313e-17
1.49774e-17
1.46602e-17
1.42828e-17
1.38488e-17
1.33622e-17
1.28276e-17
1.22498e-17
1.1634e-17
1.09856e-17
1.03103e-17
9.61365e-18
8.90143e-18
8.17925e-18
7.45267e-18
6.7272e-18
6.00843e-18
5.30222e-18
4.61504e-18
3.95422e-18
3.32757e-18
2.74246e-18
2.20548e-18
1.72254e-18
1.29896e-18
9.39457e-19
6.46906e-19
4.431e-19
3.68475e-19
2.79475e-19
1.90713e-19
1.14465e-19
5.74381e-20
2.13899e-20
4.44089e-21
4.44089e-21
2.13902e-20
5.74587e-20
1.14732e-19
1.92188e-19
2.83942e-19
4.02537e-19
7.61486e-19
1.31085e-18
2.06235e-18
3.00827e-18
4.12942e-18
5.40213e-18
6.80221e-18
8.30649e-18
9.89296e-18
1.15408e-17
1.32307e-17
1.4945e-17
1.66681e-17
1.83859e-17
2.00852e-17
2.17535e-17
2.33789e-17
2.49495e-17
2.64541e-17
2.78814e-17
2.92209e-17
3.04622e-17
3.1596e-17
3.26134e-17
3.35066e-17
3.42685e-17
3.48933e-17
3.53761e-17
3.57131e-17
3.5902e-17
3.59412e-17
3.5831e-17
3.55722e-17
3.51673e-17
3.46198e-17
3.39342e-17
3.31164e-17
3.21731e-17
3.11118e-17
2.99411e-17
2.86701e-17
2.73086e-17
2.58669e-17
2.43557e-17
2.27858e-17
2.11685e-17
1.9515e-17
1.78368e-17
1.61458e-17
1.44545e-17
1.27767e-17
1.11274e-17
9.52363e-18
7.98391e-18
6.52794e-18
5.17641e-18
3.95105e-18
2.87446e-18
1.96867e-18
1.25114e-18
7.28165e-19
3.87154e-19
2.8474e-19
1.92359e-19
1.14757e-19
5.74609e-20
2.13903e-20
4.44089e-21
4.44089e-21
2.13901e-20
5.74557e-20
1.14669e-19
1.91557e-19
2.80304e-19
6.06469e-19
1.23048e-18
2.20979e-18
3.58131e-18
5.34333e-18
7.46513e-18
9.8997e-18
1.25941e-17
1.54958e-17
1.85555e-17
2.17285e-17
2.49745e-17
2.82579e-17
3.15467e-17
3.48127e-17
3.803e-17
4.1175e-17
4.42254e-17
4.71603e-17
4.996e-17
5.26055e-17
5.5079e-17
5.7364e-17
5.94448e-17
6.13073e-17
6.2939e-17
6.43286e-17
6.54667e-17
6.63456e-17
6.69597e-17
6.73048e-17
6.73791e-17
6.71827e-17
6.6717e-17
6.5986e-17
6.49953e-17
6.37523e-17
6.22662e-17
6.05478e-17
5.86092e-17
5.64641e-17
5.41275e-17
5.16152e-17
4.89442e-17
4.61323e-17
4.31982e-17
4.01612e-17
3.70415e-17
3.38606e-17
3.06411e-17
2.74079e-17
2.41883e-17
2.10129e-17
1.79163e-17
1.49371e-17
1.21183e-17
9.50703e-18
7.15359e-18
5.10825e-18
3.41519e-18
2.1024e-18
1.16927e-18
5.77666e-19
2.81515e-19
1.91829e-19
1.14708e-19
5.7459e-20
2.13903e-20
4.44089e-21
4.44089e-21
2.13899e-20
5.74405e-20
1.14407e-19
1.89363e-19
3.6822e-19
8.9197e-19
1.84686e-18
3.35145e-18
5.47596e-18
8.23591e-18
1.15997e-17
1.55031e-17
1.98645e-17
2.45967e-17
2.9614e-17
3.48367e-17
4.01927e-17
4.56172e-17
5.1053e-17
5.6449e-17
6.17593e-17
6.69425e-17
7.1961e-17
7.67798e-17
8.13668e-17
8.56921e-17
8.9728e-17
9.34489e-17
9.68316e-17
9.9855e-17
1.025e-16
1.04751e-16
1.06594e-16
1.08017e-16
1.09013e-16
1.09576e-16
1.09703e-16
1.09393e-16
1.08651e-16
1.0748e-16
1.05889e-16
1.0389e-16
1.01495e-16
9.87196e-17
9.55827e-17
9.21041e-17
8.83059e-17
8.42122e-17
7.98489e-17
7.52437e-17
7.04262e-17
6.54279e-17
6.02826e-17
5.50268e-17
4.97006e-17
4.43481e-17
3.90188e-17
3.37681e-17
2.86585e-17
2.37602e-17
1.91502e-17
1.49113e-17
1.11276e-17
7.87698e-18
5.21962e-18
3.18301e-18
1.74813e-18
8.42753e-19
3.48977e-19
1.89879e-19
1.14477e-19
5.74457e-20
2.13901e-20
4.44089e-21
4.44089e-21
2.13895e-20
5.74159e-20
1.14003e-19
1.86317e-19
5.10033e-19
1.25744e-18
2.60352e-18
4.71147e-18
7.68756e-18
1.15708e-17
1.63376e-17
2.19155e-17
2.82008e-17
3.50739e-17
4.24109e-17
5.00918e-17
5.80045e-17
6.60468e-17
7.41266e-17
8.21614e-17
9.00773e-17
9.78077e-17
1.05293e-16
1.12478e-16
1.19314e-16
1.25755e-16
1.31761e-16
1.37294e-16
1.4232e-16
1.46809e-16
1.50735e-16
1.54075e-16
1.5681e-16
1.58924e-16
1.60406e-16
1.61248e-16
1.61446e-16
1.61001e-16
1.59915e-16
1.58197e-16
1.55857e-16
1.52911e-16
1.49376e-16
1.45275e-16
1.40633e-16
1.35478e-16
1.29841e-16
1.23758e-16
1.17265e-16
1.10405e-16
1.03221e-16
9.57628e-17
8.80828e-17
8.02394e-17
7.2297e-17
6.43275e-17
5.64111e-17
4.86374e-17
4.11062e-17
3.39269e-17
2.72165e-17
2.10953e-17
1.56788e-17
1.10658e-17
7.32298e-18
4.46823e-18
2.45767e-18
1.18224e-18
4.7928e-19
1.87102e-19
1.14117e-19
5.74242e-20
2.13897e-20
4.44089e-21
4.44089e-21
2.13887e-20
5.73685e-20
1.1319e-19
2.22387e-19
6.91339e-19
1.69833e-18
3.48519e-18
6.25833e-18
1.01593e-17
1.52519e-17
2.15249e-17
2.89042e-17
3.72708e-17
4.64781e-17
5.63674e-17
6.67781e-17
7.75556e-17
8.85554e-17
9.96448e-17
1.10703e-16
1.21621e-16
1.32301e-16
1.42654e-16
1.526e-16
1.62068e-16
1.70992e-16
1.79314e-16
1.8698e-16
1.93944e-16
2.00165e-16
2.05605e-16
2.10234e-16
2.14026e-16
2.1696e-16
2.19021e-16
2.20198e-16
2.20487e-16
2.19887e-16
2.18403e-16
2.16044e-16
2.12825e-16
2.08767e-16
2.03893e-16
1.98232e-16
1.91819e-16
1.84692e-16
1.76894e-16
1.68474e-16
1.59485e-16
1.49984e-16
1.40037e-16
1.29714e-16
1.19094e-16
1.08262e-16
9.73149e-17
8.6359e-17
7.55122e-17
6.49048e-17
5.46787e-17
4.49855e-17
3.59821e-17
2.78235e-17
2.06508e-17
1.45765e-17
9.66701e-18
5.92576e-18
3.28206e-18
1.59034e-18
6.44371e-19
2.07354e-19
1.13448e-19
5.73851e-20
2.13891e-20
4.44089e-21
4.44089e-21
2.13878e-20
5.73109e-20
1.12228e-19
2.92477e-19
9.10053e-19
2.20857e-18
4.47728e-18
7.9635e-18
1.2842e-17
1.92011e-17
2.70428e-17
3.62951e-17
4.68282e-17
5.84742e-17
7.10431e-17
8.43373e-17
9.81602e-17
1.12324e-16
1.26653e-16
1.40985e-16
1.55171e-16
1.69076e-16
1.8258e-16
1.9557e-16
2.0795e-16
2.19628e-16
2.30525e-16
2.4057e-16
2.49698e-16
2.57855e-16
2.64992e-16
2.71067e-16
2.76047e-16
2.79904e-16
2.82619e-16
2.84176e-16
2.8457e-16
2.83801e-16
2.81873e-16
2.78799e-16
2.74598e-16
2.69296e-16
2.62924e-16
2.55521e-16
2.4713e-16
2.37804e-16
2.27598e-16
2.16579e-16
2.04818e-16
1.92395e-16
1.79397e-16
1.65923e-16
1.52082e-16
1.37991e-16
1.23785e-16
1.09608e-16
9.56213e-17
8.19975e-17
6.89221e-17
5.65884e-17
4.51905e-17
3.4913e-17
2.59175e-17
1.83249e-17
1.21975e-17
7.52264e-18
4.20332e-18
2.05936e-18
8.42945e-19
2.70152e-19
1.12544e-19
5.73314e-20
2.13882e-20
4.44089e-21
4.44089e-21
2.13868e-20
5.72523e-20
1.1128e-19
3.76033e-19
1.16265e-18
2.78061e-18
5.56382e-18
9.7981e-18
1.56896e-17
2.33495e-17
3.27935e-17
4.39523e-17
5.66884e-17
7.08156e-17
8.61168e-17
1.0236e-16
1.1931e-16
1.36737e-16
1.54421e-16
1.72158e-16
1.89758e-16
2.07046e-16
2.23866e-16
2.40073e-16
2.55537e-16
2.70142e-16
2.83782e-16
2.96366e-16
3.07809e-16
3.18041e-16
3.26997e-16
3.34626e-16
3.40884e-16
3.45734e-16
3.49152e-16
3.5112e-16
3.51627e-16
3.50676e-16
3.48271e-16
3.44428e-16
3.39171e-16
3.32532e-16
3.24551e-16
3.15278e-16
3.04767e-16
2.93086e-16
2.80309e-16
2.66518e-16
2.51808e-16
2.36283e-16
2.20059e-16
2.03264e-16
1.86039e-16
1.6854e-16
1.5094e-16
1.33425e-16
1.16199e-16
9.94788e-17
8.34915e-17
6.84696e-17
5.46407e-17
4.22154e-17
3.13716e-17
2.22357e-17
1.48639e-17
9.2274e-18
5.20395e-18
2.58052e-18
1.07017e-18
3.44372e-19
1.11651e-19
5.72765e-20
2.13873e-20
4.44089e-21
4.44089e-21
2.13856e-20
5.71779e-20
1.10149e-19
4.72641e-19
1.44429e-18
3.40145e-18
6.721e-18
1.17257e-17
1.86513e-17
2.76302e-17
3.869e-17
5.17639e-17
6.67073e-17
8.33172e-17
1.01352e-16
1.20549e-16
1.40637e-16
1.61345e-16
1.82412e-16
2.03593e-16
2.24656e-16
2.45387e-16
2.6559e-16
2.85086e-16
3.03714e-16
3.21327e-16
3.37794e-16
3.52996e-16
3.66832e-16
3.7921e-16
3.90052e-16
3.99291e-16
4.06873e-16
4.12753e-16
4.16899e-16
4.19289e-16
4.19912e-16
4.18767e-16
4.15861e-16
4.11213e-16
4.04852e-16
3.9682e-16
3.87164e-16
3.75946e-16
3.63235e-16
3.49114e-16
3.33675e-16
3.17024e-16
2.99278e-16
2.80567e-16
2.61038e-16
2.4085e-16
2.20181e-16
1.99225e-16
1.78193e-16
1.57315e-16
1.36836e-16
1.17015e-16
9.81192e-17
8.04173e-17
6.41669e-17
4.96019e-17
3.69139e-17
2.62335e-17
1.76111e-17
1.10022e-17
6.26029e-18
3.14118e-18
1.32081e-18
4.28647e-19
1.10695e-19
5.72142e-20
2.13863e-20
4.44089e-21
4.44089e-21
2.13818e-20
5.69444e-20
1.30258e-19
5.81053e-19
1.74469e-18
4.05122e-18
7.91998e-18
1.37088e-17
2.16801e-17
3.19847e-17
4.46599e-17
5.96396e-17
7.67716e-17
9.58376e-17
1.16573e-16
1.38686e-16
1.61872e-16
1.85822e-16
2.10238e-16
2.34833e-16
2.59334e-16
2.83489e-16
3.07065e-16
3.29846e-16
3.51639e-16
3.72265e-16
3.91566e-16
4.094e-16
4.25641e-16
4.40178e-16
4.52917e-16
4.63776e-16
4.72689e-16
4.79603e-16
4.84478e-16
4.87287e-16
4.88015e-16
4.86665e-16
4.8324e-16
4.77767e-16
4.7028e-16
4.60828e-16
4.49469e-16
4.36278e-16
4.21339e-16
4.04752e-16
3.86629e-16
3.67098e-16
3.46303e-16
3.244e-16
3.01568e-16
2.77998e-16
2.53905e-16
2.29519e-16
2.05093e-16
1.80895e-16
1.57212e-16
1.34343e-16
1.1259e-16
9.22573e-17
7.36286e-17
5.69591e-17
4.24534e-17
3.0246e-17
2.03823e-17
1.28038e-17
7.34173e-18
3.72251e-18
1.58637e-18
5.21862e-19
1.15771e-19
5.70803e-20
2.13842e-20
4.44089e-21
4.44089e-21
2.13777e-20
5.66972e-20
1.59982e-19
6.99954e-19
2.06353e-18
4.72783e-18
9.1537e-18
1.57324e-17
2.47511e-17
3.63762e-17
5.06521e-17
6.7512e-17
8.67953e-17
1.08268e-16
1.31645e-16
1.56606e-16
1.82815e-16
2.09929e-16
2.37613e-16
2.65541e-16
2.93402e-16
3.20906e-16
3.47784e-16
3.73785e-16
3.98682e-16
4.22266e-16
4.44352e-16
4.64771e-16
4.83375e-16
5.00034e-16
5.14636e-16
5.27084e-16
5.37301e-16
5.45224e-16
5.50805e-16
5.54012e-16
5.54829e-16
5.53257e-16
5.49303e-16
5.42995e-16
5.34376e-16
5.23502e-16
5.10445e-16
4.9529e-16
4.78138e-16
4.59107e-16
4.38331e-16
4.15959e-16
3.92161e-16
3.67123e-16
3.41051e-16
3.14173e-16
2.86737e-16
2.5901e-16
2.31282e-16
2.03861e-16
1.77071e-16
1.51247e-16
1.26728e-16
1.03844e-16
8.2908e-17
6.4193e-17
4.79158e-17
3.42156e-17
2.31341e-17
1.46005e-17
8.4264e-18
4.31066e-18
1.85951e-18
6.21599e-19
1.39968e-19
5.68645e-20
2.13807e-20
4.44089e-21
4.44089e-21
2.13738e-20
5.64685e-20
1.92913e-19
8.28203e-19
2.39992e-18
5.43016e-18
1.0419e-17
1.77887e-17
2.78486e-17
4.07785e-17
5.66281e-17
7.53284e-17
9.67095e-17
1.20522e-16
1.46461e-16
1.74179e-16
2.0331e-16
2.33482e-16
2.64321e-16
2.95466e-16
3.2657e-16
3.57308e-16
3.87372e-16
4.16481e-16
4.44374e-16
4.70814e-16
4.95586e-16
5.18499e-16
5.39382e-16
5.58084e-16
5.74477e-16
5.8845e-16
5.99912e-16
6.08792e-16
6.15035e-16
6.18606e-16
6.19483e-16
6.17671e-16
6.13175e-16
6.06032e-16
5.96289e-16
5.84012e-16
5.69283e-16
5.52203e-16
5.32888e-16
5.11474e-16
4.88115e-16
4.62985e-16
4.36277e-16
4.08206e-16
3.7901e-16
3.48945e-16
3.18293e-16
2.87359e-16
2.56466e-16
2.25958e-16
1.96195e-16
1.67544e-16
1.40377e-16
1.15052e-16
9.1904e-17
7.12241e-17
5.32412e-17
3.80992e-17
2.58372e-17
1.63745e-17
9.50457e-18
4.90107e-18
2.13794e-18
7.25832e-19
1.662e-19
5.66561e-20
2.13772e-20
4.44089e-21
4.44089e-21
2.13702e-20
5.62615e-20
2.28625e-19
9.64566e-19
2.75154e-18
6.15428e-18
1.17091e-17
1.98663e-17
3.09548e-17
4.51652e-17
6.25511e-17
8.30399e-17
1.06453e-16
1.32525e-16
1.6093e-16
1.91298e-16
2.23235e-16
2.56335e-16
2.90194e-16
3.24415e-16
3.58618e-16
3.92441e-16
4.25546e-16
4.57616e-16
4.88362e-16
5.17518e-16
5.44844e-16
5.70123e-16
5.93162e-16
6.13795e-16
6.31875e-16
6.47277e-16
6.59901e-16
6.69665e-16
6.76509e-16
6.80392e-16
6.81293e-16
6.79215e-16
6.74167e-16
6.6619e-16
6.5534e-16
6.41691e-16
6.25337e-16
6.06392e-16
5.84988e-16
5.6128e-16
5.35441e-16
5.07669e-16
4.78181e-16
4.47218e-16
4.15045e-16
3.81952e-16
3.48251e-16
3.14277e-16
2.80389e-16
2.46962e-16
2.14389e-16
1.83069e-16
1.534e-16
1.25766e-16
1.00523e-16
7.79787e-17
5.83735e-17
4.18561e-17
2.8464e-17
1.81079e-17
1.05655e-17
5.48744e-18
2.41795e-18
8.32433e-19
1.93578e-19
5.64698e-20
2.1374e-20
4.44089e-21
4.44089e-21
2.1367e-20
5.60747e-20
2.66739e-19
1.10767e-18
3.11514e-18
6.89402e-18
1.30137e-17
2.19493e-17
3.40464e-17
4.9505e-17
6.83807e-17
9.05971e-17
1.15965e-16
1.44207e-16
1.74974e-16
2.07874e-16
2.42486e-16
2.78373e-16
3.15101e-16
3.52239e-16
3.89376e-16
4.26116e-16
4.62089e-16
4.96949e-16
5.30377e-16
5.62082e-16
5.91797e-16
6.19284e-16
6.44332e-16
6.66754e-16
6.8639e-16
7.03103e-16
7.16781e-16
7.27336e-16
7.34701e-16
7.38833e-16
7.3971e-16
7.37335e-16
7.31721e-16
7.22915e-16
7.10979e-16
6.95997e-16
6.78076e-16
6.57342e-16
6.33943e-16
6.08051e-16
5.7986e-16
5.49587e-16
5.17474e-16
4.83788e-16
4.48818e-16
4.12884e-16
3.76325e-16
3.39508e-16
3.02821e-16
2.6667e-16
2.31476e-16
1.97665e-16
1.65662e-16
1.35872e-16
1.08671e-16
8.43822e-17
6.32546e-17
4.54426e-17
3.09828e-17
1.97789e-17
1.15948e-17
6.06085e-18
2.69454e-18
9.39093e-19
2.21388e-19
5.63064e-20
2.13712e-20
4.44089e-21
4.44089e-21
2.13641e-20
5.59059e-20
3.06864e-19
1.25601e-18
3.48683e-18
7.6415e-18
1.43192e-17
2.40173e-17
3.70956e-17
5.37621e-17
7.40737e-17
9.79498e-17
1.25192e-16
1.55505e-16
1.88523e-16
2.2383e-16
2.60978e-16
2.99503e-16
3.38937e-16
3.78822e-16
4.18712e-16
4.58183e-16
4.96835e-16
5.34293e-16
5.70211e-16
6.04273e-16
6.36191e-16
6.65706e-16
6.92588e-16
7.16635e-16
7.37673e-16
7.55556e-16
7.70162e-16
7.81396e-16
7.89188e-16
7.93492e-16
7.94287e-16
7.91576e-16
7.85378e-16
7.75745e-16
7.62747e-16
7.46479e-16
7.27056e-16
7.0462e-16
6.79333e-16
6.51384e-16
6.20985e-16
5.88373e-16
5.53813e-16
5.17592e-16
4.80028e-16
4.41461e-16
4.02261e-16
3.6282e-16
3.23553e-16
2.84893e-16
2.47286e-16
2.11184e-16
1.77034e-16
1.45261e-16
1.16257e-16
9.03578e-17
6.7823e-17
4.88111e-17
3.33582e-17
2.13623e-17
1.25756e-17
6.61096e-18
2.96208e-18
1.04335e-18
2.48912e-19
5.61647e-20
2.13688e-20
4.44089e-21
4.44089e-21
2.13615e-20
5.57528e-20
3.4861e-19
1.40783e-18
3.86178e-18
8.38673e-18
1.5609e-17
2.60459e-17
4.00708e-17
5.78986e-17
7.95874e-17
1.05051e-16
1.34081e-16
1.66366e-16
2.01522e-16
2.39107e-16
2.78648e-16
3.19653e-16
3.61625e-16
4.04075e-16
4.46529e-16
4.88533e-16
5.29658e-16
5.69506e-16
6.07704e-16
6.43914e-16
6.77828e-16
7.09168e-16
7.3769e-16
7.63178e-16
7.85446e-16
8.04338e-16
8.19727e-16
8.31512e-16
8.39621e-16
8.44008e-16
8.44651e-16
8.41557e-16
8.34752e-16
8.24292e-16
8.10256e-16
7.92747e-16
7.71895e-16
7.47851e-16
7.20793e-16
6.90925e-16
6.58476e-16
6.23703e-16
5.86888e-16
5.48341e-16
5.08401e-16
4.67431e-16
4.25824e-16
3.83996e-16
3.42386e-16
3.01451e-16
2.6166e-16
2.23484e-16
1.87391e-16
1.53823e-16
1.23186e-16
9.58283e-17
7.20162e-17
5.19123e-17
3.55531e-17
2.28314e-17
1.34902e-17
7.12682e-18
3.21472e-18
1.14267e-18
2.75403e-19
5.6043e-20
2.13666e-20
4.44089e-21
4.44089e-21
2.13597e-20
5.56069e-20
3.91613e-19
1.56077e-18
4.23314e-18
9.11642e-18
1.68625e-17
2.80084e-17
4.29404e-17
6.188e-17
8.48852e-17
1.11864e-16
1.42596e-16
1.76753e-16
2.13931e-16
2.53664e-16
2.95452e-16
3.38776e-16
3.8311e-16
4.27937e-16
4.72755e-16
5.17082e-16
5.60465e-16
6.02479e-16
6.42732e-16
6.80864e-16
7.1655e-16
7.49497e-16
7.79446e-16
8.0617e-16
8.29476e-16
8.492e-16
8.6521e-16
8.77404e-16
8.85706e-16
8.90073e-16
8.90486e-16
8.86954e-16
8.7951e-16
8.68219e-16
8.53166e-16
8.34465e-16
8.12256e-16
7.86703e-16
7.57998e-16
7.26359e-16
6.9203e-16
6.55284e-16
6.16421e-16
5.7577e-16
5.33688e-16
4.9056e-16
4.46798e-16
4.02838e-16
3.59139e-16
3.16179e-16
2.74446e-16
2.34429e-16
1.96613e-16
1.61454e-16
1.2937e-16
1.00719e-16
7.57727e-17
5.46979e-17
3.75305e-17
2.41598e-17
1.43205e-17
7.59748e-18
3.44658e-18
1.23448e-18
3.00107e-19
5.59403e-20
2.13648e-20
4.44089e-21
4.44089e-21
2.13553e-20
5.52793e-20
4.35163e-19
1.71011e-18
4.59015e-18
9.81383e-18
1.80589e-17
2.98817e-17
4.5681e-17
6.56837e-17
8.99462e-17
1.18369e-16
1.50717e-16
1.86648e-16
2.25731e-16
2.6748e-16
3.11366e-16
3.56844e-16
4.03359e-16
4.50369e-16
4.97342e-16
5.43773e-16
5.89185e-16
6.33132e-16
6.75201e-16
7.15015e-16
7.52233e-16
7.86551e-16
8.17698e-16
8.45439e-16
8.69574e-16
8.89936e-16
9.0639e-16
9.18832e-16
9.27191e-16
9.31423e-16
9.31514e-16
9.2748e-16
9.19361e-16
9.07228e-16
8.91177e-16
8.71331e-16
8.4784e-16
8.20881e-16
7.90657e-16
7.574e-16
7.21368e-16
6.82848e-16
6.42156e-16
5.99636e-16
5.55662e-16
5.10634e-16
4.64982e-16
4.19158e-16
3.73641e-16
3.28921e-16
2.85504e-16
2.43896e-16
2.0459e-16
1.68058e-16
1.34726e-16
1.04959e-16
7.9035e-17
5.71218e-17
3.92556e-17
2.53221e-17
1.50496e-17
8.01246e-18
3.65202e-18
1.31633e-18
3.22287e-19
5.58555e-20
2.13634e-20
4.44089e-21
4.44089e-21
2.13337e-20
6.02297e-20
4.76478e-19
1.84869e-18
4.92308e-18
1.04692e-17
1.919e-17
3.16601e-17
4.82895e-17
6.93086e-17
9.47709e-17
1.24567e-16
1.58448e-16
1.96051e-16
2.36924e-16
2.80554e-16
3.26387e-16
3.73849e-16
4.2236e-16
4.7135e-16
5.20263e-16
5.68571e-16
6.15774e-16
6.61406e-16
7.05039e-16
7.46281e-16
7.84778e-16
8.20215e-16
8.52315e-16
8.80837e-16
9.05577e-16
9.26368e-16
9.43073e-16
9.55592e-16
9.63854e-16
9.67825e-16
9.67494e-16
9.62885e-16
9.54045e-16
9.41055e-16
9.2402e-16
9.03073e-16
8.78375e-16
8.50113e-16
8.18502e-16
7.83786e-16
7.46236e-16
7.0615e-16
6.63858e-16
6.19715e-16
5.74109e-16
5.27454e-16
4.80191e-16
4.32788e-16
3.85735e-16
3.39536e-16
2.94709e-16
2.51769e-16
2.11222e-16
1.73547e-16
1.39179e-16
1.08487e-16
8.17513e-17
5.9143e-17
4.06966e-17
2.62953e-17
1.56618e-17
8.36207e-18
3.82579e-18
1.3859e-18
3.41251e-19
5.5788e-20
2.13623e-20
4.44089e-21
4.44089e-21
2.13118e-20
6.69306e-20
5.17347e-19
1.98264e-18
5.24206e-18
1.10955e-17
2.02707e-17
3.33599e-17
5.07829e-17
7.27727e-17
9.93776e-17
1.30477e-16
1.65806e-16
2.0498e-16
2.47525e-16
2.92899e-16
3.40524e-16
3.89798e-16
4.40115e-16
4.90877e-16
5.41508e-16
5.91455e-16
6.402e-16
6.87261e-16
7.32194e-16
7.74596e-16
8.14104e-16
8.50395e-16
8.83188e-16
9.12241e-16
9.37348e-16
9.58342e-16
9.75092e-16
9.87501e-16
9.95502e-16
9.99072e-16
9.98209e-16
9.92941e-16
9.83329e-16
9.6946e-16
9.51451e-16
9.29444e-16
9.03612e-16
8.74153e-16
8.41291e-16
8.0528e-16
7.66402e-16
7.24966e-16
6.8131e-16
6.35801e-16
5.88835e-16
5.40836e-16
4.92256e-16
4.43571e-16
3.9528e-16
3.47896e-16
3.01944e-16
2.57948e-16
2.16421e-16
1.77846e-16
1.42664e-16
1.11247e-16
8.38771e-17
6.07256e-17
4.18262e-17
2.70594e-17
1.61433e-17
8.63775e-18
3.96323e-18
1.44113e-18
3.56372e-19
5.57369e-20
2.13613e-20
4.44089e-21
4.44089e-21
2.12911e-20
7.37948e-20
5.58232e-19
2.11462e-18
5.5534e-18
1.17033e-17
2.13154e-17
3.49987e-17
5.31818e-17
7.60982e-17
1.0379e-16
1.36124e-16
1.72817e-16
2.13462e-16
2.57558e-16
3.0454e-16
3.538e-16
4.04709e-16
4.56635e-16
5.08957e-16
5.61075e-16
6.12417e-16
6.62447e-16
7.10669e-16
7.56628e-16
7.9991e-16
8.40148e-16
8.77015e-16
9.10227e-16
9.39545e-16
9.64764e-16
9.85724e-16
1.0023e-15
1.0144e-15
1.02196e-15
1.02498e-15
1.02346e-15
1.01745e-15
1.007e-15
9.92226e-16
9.73248e-16
9.50223e-16
9.2333e-16
8.92778e-16
8.58802e-16
8.21664e-16
7.81655e-16
7.3909e-16
6.94316e-16
6.47707e-16
5.99664e-16
5.50617e-16
5.01025e-16
4.51367e-16
4.02147e-16
3.53885e-16
3.07107e-16
2.62343e-16
2.20108e-16
1.80888e-16
1.45125e-16
1.13193e-16
8.53747e-17
6.18399e-17
4.26214e-17
2.75974e-17
1.64827e-17
8.83228e-18
4.06038e-18
1.48027e-18
3.6712e-19
5.57028e-20
2.1361e-20
4.44089e-21
4.44089e-21
2.12718e-20
8.08054e-20
5.99248e-19
2.24554e-18
5.85981e-18
1.22979e-17
2.23331e-17
3.65892e-17
5.55022e-17
7.93048e-17
1.08031e-16
1.41533e-16
1.79507e-16
2.21522e-16
2.67053e-16
3.15504e-16
3.6624e-16
4.18605e-16
4.71941e-16
5.25605e-16
5.78973e-16
6.31458e-16
6.82507e-16
7.31613e-16
7.78311e-16
8.22183e-16
8.62857e-16
9.00007e-16
9.33353e-16
9.62656e-16
9.87721e-16
1.00839e-15
1.02456e-15
1.03613e-15
1.04308e-15
1.04539e-15
1.04308e-15
1.03622e-15
1.02487e-15
1.00916e-15
9.89216e-16
9.65208e-16
9.37326e-16
9.05789e-16
8.70838e-16
8.32745e-16
7.91805e-16
7.4834e-16
7.02701e-16
6.55265e-16
6.06437e-16
5.56649e-16
5.06359e-16
4.5605e-16
4.06225e-16
3.57402e-16
3.10111e-16
2.64878e-16
2.22218e-16
1.82617e-16
1.46516e-16
1.14288e-16
8.62134e-17
6.24618e-17
4.30639e-17
2.78961e-17
1.66707e-17
8.93988e-18
4.11407e-18
1.50188e-18
3.73058e-19
5.56832e-20
2.13605e-20
4.44089e-21
4.44089e-21
2.12536e-20
8.79587e-20
6.40446e-19
2.37578e-18
6.16259e-18
1.28825e-17
2.33292e-17
3.81401e-17
5.77563e-17
8.24084e-17
1.1212e-16
1.46727e-16
1.85902e-16
2.29191e-16
2.76038e-16
3.25821e-16
3.77874e-16
4.31514e-16
4.86059e-16
5.4084e-16
5.95217e-16
6.48584e-16
7.00378e-16
7.50081e-16
7.97221e-16
8.4138e-16
8.82186e-16
9.19317e-16
9.52495e-16
9.81493e-16
1.00612e-15
1.02625e-15
1.04176e-15
1.05258e-15
1.05871e-15
1.06014e-15
1.05692e-15
1.0491e-15
1.03678e-15
1.02009e-15
9.99183e-16
9.74228e-16
9.45429e-16
9.13012e-16
8.77229e-16
8.38355e-16
7.96689e-16
7.52559e-16
7.06314e-16
6.58334e-16
6.09021e-16
5.58806e-16
5.08144e-16
4.57514e-16
4.07415e-16
3.58362e-16
3.10877e-16
2.65484e-16
2.22693e-16
1.82985e-16
1.46797e-16
1.14498e-16
8.63679e-17
6.25717e-17
4.31392e-17
2.7945e-17
1.67005e-17
8.95634e-18
4.12203e-18
1.50501e-18
3.73898e-19
5.56803e-20
2.13604e-20
4.44089e-21
4.44089e-21
2.12365e-20
9.52578e-20
6.81889e-19
2.50566e-18
6.46274e-18
1.34593e-17
2.43081e-17
3.96582e-17
5.99547e-17
8.54232e-17
1.16075e-16
1.51727e-16
1.92029e-16
2.36497e-16
2.84546e-16
3.35523e-16
3.88734e-16
4.43466e-16
4.99013e-16
5.54685e-16
6.09823e-16
6.63807e-16
7.16062e-16
7.66065e-16
8.13343e-16
8.57476e-16
8.98098e-16
9.34892e-16
9.67592e-16
9.95982e-16
1.01989e-15
1.03919e-15
1.05379e-15
1.06363e-15
1.06874e-15
1.06913e-15
1.06483e-15
1.05595e-15
1.04258e-15
1.02488e-15
1.003e-15
9.77129e-16
9.47485e-16
9.143e-16
8.77831e-16
8.38356e-16
7.96177e-16
7.5162e-16
7.05036e-16
6.56798e-16
6.07308e-16
5.56988e-16
5.06287e-16
4.55675e-16
4.05644e-16
3.56697e-16
3.09349e-16
2.64113e-16
2.21491e-16
1.81957e-16
1.45939e-16
1.13802e-16
8.58203e-17
6.21564e-17
4.28377e-17
2.77378e-17
1.65678e-17
8.87927e-18
4.08305e-18
1.48913e-18
3.69502e-19
5.56949e-20
2.13609e-20
4.44089e-21
4.44089e-21
2.12203e-20
1.02713e-19
7.23667e-19
2.63554e-18
6.76127e-18
1.40305e-17
2.52738e-17
4.11504e-17
6.21072e-17
8.8363e-17
1.19914e-16
1.56556e-16
1.97912e-16
2.43467e-16
2.92606e-16
3.44641e-16
3.9885e-16
4.54491e-16
5.10831e-16
5.67163e-16
6.22808e-16
6.77135e-16
7.29561e-16
7.79559e-16
8.26659e-16
8.70445e-16
9.10555e-16
9.46687e-16
9.78589e-16
1.00606e-15
1.02894e-15
1.04714e-15
1.06056e-15
1.0692e-15
1.07308e-15
1.07222e-15
1.06671e-15
1.05665e-15
1.04216e-15
1.0234e-15
1.00055e-15
9.73815e-16
9.43405e-16
9.09565e-16
8.72555e-16
8.32658e-16
7.90177e-16
7.45436e-16
6.9878e-16
6.50578e-16
6.01221e-16
5.51123e-16
5.00721e-16
4.50471e-16
4.00852e-16
3.52354e-16
3.05477e-16
2.6072e-16
2.18574e-16
1.79499e-16
1.43915e-16
1.12177e-16
8.45539e-17
6.12037e-17
4.21513e-17
2.72694e-17
1.62701e-17
8.70738e-18
3.99666e-18
1.45414e-18
3.59852e-19
5.57253e-20
2.13612e-20
4.44089e-21
4.44089e-21
2.12049e-20
1.10342e-19
7.65901e-19
2.76588e-18
7.05931e-18
1.45985e-17
2.62306e-17
4.26235e-17
6.42239e-17
9.12415e-17
1.23655e-16
1.61236e-16
2.03577e-16
2.50131e-16
3.00248e-16
3.53207e-16
4.08253e-16
4.64617e-16
5.2154e-16
5.78294e-16
6.34187e-16
6.88576e-16
7.40875e-16
7.90557e-16
8.37154e-16
8.80258e-16
9.19523e-16
9.54659e-16
9.85433e-16
1.01167e-15
1.03322e-15
1.05002e-15
1.06199e-15
1.06919e-15
1.07162e-15
1.06936e-15
1.06249e-15
1.05113e-15
1.03545e-15
1.01561e-15
9.91794e-16
9.64222e-16
9.3312e-16
8.98737e-16
8.61338e-16
8.21205e-16
7.78641e-16
7.33962e-16
6.87508e-16
6.39637e-16
5.90728e-16
5.41181e-16
4.91416e-16
4.41874e-16
3.93015e-16
3.4531e-16
2.99241e-16
2.55288e-16
2.13926e-16
1.756e-16
1.40715e-16
1.09617e-16
8.25652e-17
5.97124e-17
4.10802e-17
2.6541e-17
1.58088e-17
8.44214e-18
3.8639e-18
1.4006e-18
3.45147e-19
5.57737e-20
2.13619e-20
4.44089e-21
4.44089e-21
2.11901e-20
1.18171e-19
8.08744e-19
2.8972e-18
7.35816e-18
1.51659e-17
2.7183e-17
4.40847e-17
6.63153e-17
9.40728e-17
1.27316e-16
1.65787e-16
2.09048e-16
2.56514e-16
3.07499e-16
3.61248e-16
4.1697e-16
4.73867e-16
5.31158e-16
5.88093e-16
6.43968e-16
6.98134e-16
7.50001e-16
7.99045e-16
8.44805e-16
8.86889e-16
9.24966e-16
9.58766e-16
9.8808e-16
1.01275e-15
1.03267e-15
1.04777e-15
1.05805e-15
1.06357e-15
1.06435e-15
1.06049e-15
1.05212e-15
1.03937e-15
1.02242e-15
1.00146e-15
9.76684e-16
9.48324e-16
9.16615e-16
8.81812e-16
8.44181e-16
8.04004e-16
7.61576e-16
7.1721e-16
6.71233e-16
6.2399e-16
5.75844e-16
5.27177e-16
4.78389e-16
4.29901e-16
3.82147e-16
3.35579e-16
2.90653e-16
2.47828e-16
2.07558e-16
1.70269e-16
1.3635e-16
1.06132e-16
7.98635e-17
5.76913e-17
3.96327e-17
2.55598e-17
1.51895e-17
8.08749e-18
3.68715e-18
1.32966e-18
3.2577e-19
5.58415e-20
2.1363e-20
4.44089e-21
4.44089e-21
2.11758e-20
1.26228e-19
8.52372e-19
3.03005e-18
7.65918e-18
1.57354e-17
2.81357e-17
4.55411e-17
6.83916e-17
9.68705e-17
1.30913e-16
1.7023e-16
2.14347e-16
2.62641e-16
3.14385e-16
3.68786e-16
4.2502e-16
4.82259e-16
5.39697e-16
5.96566e-16
6.52152e-16
7.05799e-16
7.56921e-16
8.04998e-16
8.49586e-16
8.90305e-16
9.26848e-16
9.5897e-16
9.86488e-16
1.00928e-15
1.02725e-15
1.04036e-15
1.04871e-15
1.0523e-15
1.05123e-15
1.04561e-15
1.0356e-15
1.02136e-15
1.00309e-15
9.80979e-16
9.55262e-16
9.2617e-16
8.93948e-16
8.58853e-16
8.21153e-16
7.81126e-16
7.39061e-16
6.95259e-16
6.50034e-16
6.03715e-16
5.56646e-16
5.09185e-16
4.61711e-16
4.14616e-16
3.6831e-16
3.23216e-16
2.79764e-16
2.38386e-16
1.99511e-16
1.63543e-16
1.30851e-16
1.01749e-16
7.64736e-17
5.51617e-17
3.78264e-17
2.43394e-17
1.44224e-17
7.65007e-18
3.47026e-18
1.24312e-18
3.02284e-19
5.593e-20
2.13645e-20
4.44089e-21
4.44089e-21
2.11621e-20
1.34548e-19
8.96972e-19
3.16504e-18
7.96376e-18
1.63096e-17
2.90933e-17
4.69999e-17
7.04625e-17
9.96473e-17
1.34462e-16
1.74583e-16
2.19494e-16
2.68531e-16
3.20923e-16
3.75838e-16
4.32416e-16
4.89799e-16
5.47157e-16
6.03707e-16
6.58725e-16
7.11554e-16
7.61611e-16
8.0839e-16
8.51462e-16
8.9047e-16
9.25133e-16
9.55235e-16
9.80624e-16
1.00121e-15
1.01692e-15
1.02781e-15
1.03395e-15
1.03539e-15
1.03228e-15
1.02475e-15
1.01298e-15
9.97166e-16
9.77519e-16
9.54264e-16
9.27636e-16
8.9788e-16
8.65249e-16
8.30001e-16
7.92402e-16
7.52726e-16
7.11251e-16
6.68267e-16
6.24069e-16
5.78968e-16
5.33283e-16
4.87349e-16
4.41515e-16
3.96145e-16
3.51619e-16
3.08327e-16
2.6667e-16
2.27048e-16
1.89862e-16
1.55491e-16
1.24279e-16
9.65207e-17
7.24388e-17