/*--------------------------------*- C++ -*----------------------------------*\
  =========                 |
  \\      /  F ield         | OpenFOAM: The Open Source CFD Toolbox
   \\    /   O peration     | Website:  https://openfoam.org
    \\  /    A nd           | Version:  12
     \\/     M anipulation  |
\*---------------------------------------------------------------------------*/
FoamFile
{
    format      ascii;
    class       surfaceScalarField;
    location    "8.5";
    object      phi;
}
// * * * * * * * * * * * * * * * * * * * * * * * * * * * * * * * * * * * * * //

dimensions      [0 3 -1 0 0 0 0];

internalField   nonuniform List<scalar> 
11100
(
-1.3739e-11
1.37474e-11
-3.00862e-11
1.6348e-11
-3.50248e-11
4.93802e-12
-2.13847e-11
-1.36415e-11
1.41816e-11
-3.55678e-11
7.27465e-11
-5.85668e-11
1.53963e-10
-8.12179e-11
2.56605e-10
-1.02645e-10
3.7893e-10
-1.22327e-10
5.18902e-10
-1.39975e-10
6.74347e-10
-1.55448e-10
8.43042e-10
-1.68698e-10
1.02278e-09
-1.79742e-10
1.21141e-09
-1.88632e-10
1.40685e-09
-1.95443e-10
1.60712e-09
-2.00269e-10
1.81032e-09
-2.03206e-10
2.01468e-09
-2.0436e-10
2.21851e-09
-2.03834e-10
2.42024e-09
-2.01734e-10
2.6184e-09
-1.98161e-10
2.81161e-09
-1.93218e-10
2.99861e-09
-1.87001e-10
3.17822e-09
-1.79608e-10
3.34934e-09
-1.7113e-10
3.511e-09
-1.61656e-10
3.66227e-09
-1.51275e-10
3.80233e-09
-1.40069e-10
3.93045e-09
-1.28121e-10
4.04596e-09
-1.15509e-10
4.14827e-09
-1.02311e-10
4.23686e-09
-8.86023e-11
4.31132e-09
-7.44562e-11
4.37126e-09
-5.99453e-11
4.4164e-09
-4.51411e-11
4.44651e-09
-3.01144e-11
4.46144e-09
-1.49355e-11
4.46111e-09
3.25414e-13
4.4455e-09
1.55978e-11
4.41469e-09
3.08108e-11
4.36879e-09
4.58928e-11
4.30801e-09
6.07711e-11
4.23263e-09
7.53718e-11
4.143e-09
8.96195e-11
4.03956e-09
1.03437e-10
3.9228e-09
1.16746e-10
3.79333e-09
1.29466e-10
3.6518e-09
1.41513e-10
3.49899e-09
1.52802e-10
3.33573e-09
1.63246e-10
3.16297e-09
1.72755e-10
2.98172e-09
1.81237e-10
2.79311e-09
1.88598e-10
2.59835e-09
1.94741e-10
2.39877e-09
1.99568e-10
2.19578e-09
2.02978e-10
1.9909e-09
2.04871e-10
1.78574e-09
2.05144e-10
1.58203e-09
2.03694e-10
1.3816e-09
2.00423e-10
1.18635e-09
1.95232e-10
9.98308e-10
1.88032e-10
8.19554e-10
1.7874e-10
6.52246e-10
1.67295e-10
4.98574e-10
1.53659e-10
3.60728e-10
1.37835e-10
2.40825e-10
1.1989e-10
1.40825e-10
9.99902e-11
6.23647e-11
7.84497e-11
6.54065e-12
5.58166e-11
-2.64607e-11
3.29938e-11
-3.78882e-11
1.14239e-11
-3.12714e-11
-6.62039e-12
-1.39683e-11
-1.73051e-11
-1.39686e-11
-5.03951e-15
1.37525e-11
1.98472e-11
-3.50436e-12
7.44165e-11
-4.96322e-11
1.72952e-10
-1.12178e-10
3.2037e-10
-1.82987e-10
5.18424e-10
-2.56622e-10
7.66584e-10
-3.2938e-10
1.0627e-09
-3.98761e-10
1.40349e-09
-4.6312e-10
1.78493e-09
-5.21416e-10
2.20251e-09
-5.7303e-10
2.65145e-09
-6.17641e-10
3.12684e-09
-6.55135e-10
3.62376e-09
-6.85546e-10
4.13732e-09
-7.0901e-10
4.66278e-09
-7.25731e-10
5.19554e-09
-7.35965e-10
5.73118e-09
-7.39998e-10
6.26548e-09
-7.38136e-10
6.79444e-09
-7.307e-10
7.3143e-09
-7.18014e-10
7.82149e-09
-7.00407e-10
8.31269e-09
-6.78203e-10
8.78481e-09
-6.51726e-10
9.23497e-09
-6.21294e-10
9.66054e-09
-5.87219e-10
1.00591e-08
-5.49806e-10
1.04284e-08
-5.09355e-10
1.07664e-08
-4.66158e-10
1.10714e-08
-4.20501e-10
1.13418e-08
-3.72666e-10
1.15761e-08
-3.22929e-10
1.17732e-08
-2.7156e-10
1.19321e-08
-2.18829e-10
1.20519e-08
-1.64999e-10
1.21322e-08
-1.10335e-10
1.21723e-08
-5.50978e-11
1.21722e-08
4.48947e-13
1.21318e-08
5.60425e-11
1.20512e-08
1.11418e-10
1.19307e-08
1.66308e-10
1.17711e-08
2.20442e-10
1.15729e-08
2.73544e-10
1.13372e-08
3.25337e-10
1.10651e-08
3.75534e-10
1.0758e-08
4.23846e-10
1.04175e-08
4.69976e-10
1.00454e-08
5.13623e-10
9.64371e-09
5.54477e-10
9.21473e-09
5.92226e-10
8.76094e-09
6.26548e-10
8.28506e-09
6.57118e-10
7.79005e-09
6.83608e-10
7.27911e-09
7.05685e-10
6.75566e-09
7.23015e-10
6.22338e-09
7.35264e-10
5.68615e-09
7.42103e-10
5.14808e-09
7.43209e-10
4.6135e-09
7.38271e-10
4.08693e-09
7.26996e-10
3.57304e-09
7.09119e-10
3.07666e-09
6.84414e-10
2.60269e-09
6.52711e-10
2.15606e-09
6.13916e-10
1.74167e-09
5.68047e-10
1.36423e-09
5.15274e-10
1.02814e-09
4.55983e-10
7.37266e-10
3.90862e-10
4.94685e-10
3.21028e-10
3.02298e-10
2.48202e-10
1.60335e-10
1.74955e-10
6.67078e-11
1.05049e-10
1.61316e-11
4.39542e-11
-1.06985e-12
-1.05136e-13
-1.50396e-11
2.35533e-11
-9.80066e-12
1.02707e-10
-8.26586e-11
2.44609e-10
-1.91534e-10
4.54037e-10
-3.21607e-10
7.33369e-10
-4.62321e-10
1.08276e-09
-6.06012e-10
1.50047e-09
-7.47093e-10
1.98325e-09
-8.81538e-10
2.52664e-09
-1.00652e-09
3.12533e-09
-1.1201e-09
3.77334e-09
-1.22105e-09
4.46431e-09
-1.30861e-09
5.1916e-09
-1.38243e-09
5.94849e-09
-1.44243e-09
6.72824e-09
-1.48876e-09
7.52419e-09
-1.52169e-09
8.32986e-09
-1.54163e-09
9.13893e-09
-1.54907e-09
9.94534e-09
-1.54455e-09
1.07433e-08
-1.52865e-09
1.15273e-08
-1.50199e-09
1.22921e-08
-1.4652e-09
1.30328e-08
-1.41889e-09
1.37448e-08
-1.36372e-09
1.44238e-08
-1.30032e-09
1.50659e-08
-1.2293e-09
1.56674e-08
-1.15129e-09
1.62249e-08
-1.06691e-09
1.67355e-08
-9.76746e-10
1.71964e-08
-8.81399e-10
1.76052e-08
-7.81452e-10
1.79598e-08
-6.77479e-10
1.82583e-08
-5.7005e-10
1.84992e-08
-4.59726e-10
1.86813e-08
-3.47067e-10
1.88036e-08
-2.32629e-10
1.88654e-08
-1.16966e-10
1.88665e-08
-6.33401e-13
1.88068e-08
1.15811e-10
1.86864e-08
2.31805e-10
1.85059e-08
3.46784e-10
1.82662e-08
4.60174e-10
1.79684e-08
5.71395e-10
1.76139e-08
6.79857e-10
1.72045e-08
7.8496e-10
1.67422e-08
8.86096e-10
1.62296e-08
9.82645e-10
1.56692e-08
1.07398e-09
1.50643e-08
1.15945e-09
1.44181e-08
1.23842e-09
1.37344e-08
1.31023e-09
1.30173e-08
1.37421e-09
1.22713e-08
1.4297e-09
1.15009e-08
1.47603e-09
1.07114e-08
1.51255e-09
9.9081e-09
1.5386e-09
9.09667e-09
1.55354e-09
8.28311e-09
1.55678e-09
7.47366e-09
1.54774e-09
6.67477e-09
1.5259e-09
5.89308e-09
1.49082e-09
5.13535e-09
1.44215e-09
4.4084e-09
1.37967e-09
3.71901e-09
1.30333e-09
3.07378e-09
1.21329e-09
2.47903e-09
1.11003e-09
1.94062e-09
9.9441e-10
1.46368e-09
8.67807e-10
1.05244e-09
7.32286e-10
7.09827e-10
5.9082e-10
4.37223e-10
4.47566e-10
2.34039e-10
3.08238e-10
9.73991e-11
1.80597e-10
2.20404e-11
7.52537e-11
6.9981e-12
4.73973e-11
-5.71972e-11
1.88073e-10
-2.23334e-10
4.21236e-10
-4.24697e-10
7.45919e-10
-6.46291e-10
1.1603e-09
-8.76708e-10
1.66148e-09
-1.10719e-09
2.24542e-09
-1.33103e-09
2.90704e-09
-1.54316e-09
3.64038e-09
-1.73986e-09
4.43874e-09
-1.91846e-09
5.29486e-09
-2.07717e-09
6.20107e-09
-2.21483e-09
7.14948e-09
-2.33084e-09
8.13203e-09
-2.42498e-09
9.14066e-09
-2.49739e-09
1.01674e-08
-2.5484e-09
1.12043e-08
-2.57858e-09
1.22439e-08
-2.58861e-09
1.32786e-08
-2.57929e-09
1.43015e-08
-2.55149e-09
1.53056e-08
-2.50615e-09
1.62846e-08
-2.44421e-09
1.72324e-08
-2.36669e-09
1.81433e-08
-2.27457e-09
1.90118e-08
-2.16886e-09
1.98331e-08
-2.05057e-09
2.06025e-08
-1.92069e-09
2.13158e-08
-1.78023e-09
2.19693e-08
-1.63015e-09
2.25593e-08
-1.47144e-09
2.30829e-08
-1.30504e-09
2.35373e-08
-1.13191e-09
2.39203e-08
-9.52984e-10
2.42297e-08
-7.69205e-10
2.44642e-08
-5.81498e-10
2.46224e-08
-3.90789e-10
2.47034e-08
-1.98004e-10
2.47068e-08
-4.07038e-12
2.46326e-08
1.9008e-10
2.44809e-08
3.83508e-10
2.42524e-08
5.75267e-10
2.39482e-08
7.64399e-10
2.35697e-08
9.49934e-10
2.31187e-08
1.13089e-09
2.25974e-08
1.30627e-09
2.20084e-08
1.47505e-09
2.13549e-08
1.63622e-09
2.06401e-08
1.78872e-09
1.98681e-08
1.93152e-09
1.9043e-08
2.06353e-09
1.81695e-08
2.18369e-09
1.72528e-08
2.29091e-09
1.62984e-08
2.38414e-09
1.53122e-08
2.46229e-09
1.43004e-08
2.52432e-09
1.32698e-08
2.5692e-09
1.22274e-08
2.59595e-09
1.11806e-08
2.60364e-09
1.01369e-08
2.59142e-09
9.10435e-09
2.55852e-09
8.09087e-09
2.50432e-09
7.10469e-09
2.42835e-09
6.15402e-09
2.33037e-09
5.24698e-09
2.21038e-09
4.39155e-09
2.06874e-09
3.59535e-09
1.90625e-09
2.86556e-09
1.72421e-09
2.20872e-09
1.52467e-09
1.63055e-09
1.31047e-09
1.1358e-09
1.08558e-09
7.28098e-10
8.55278e-10
4.09856e-10
6.26487e-10
1.82303e-10
4.08155e-10
4.57051e-11
2.11853e-10
5.27014e-11
6.88521e-11
-1.26048e-10
2.66591e-10
-4.21072e-10
5.85923e-10
-7.44029e-10
1.02043e-09
-1.0808e-09
1.56387e-09
-1.42015e-09
2.20977e-09
-1.75309e-09
2.95126e-09
-2.07251e-09
3.78095e-09
-2.37285e-09
4.69098e-09
-2.6499e-09
5.67307e-09
-2.90055e-09
6.71856e-09
-3.12266e-09
7.81854e-09
-3.31481e-09
8.96394e-09
-3.47623e-09
1.01456e-08
-3.60665e-09
1.13544e-08
-3.70621e-09
1.25814e-08
-3.77536e-09
1.38176e-08
-3.81482e-09
1.50545e-08
-3.8255e-09
1.62837e-08
-3.80848e-09
1.74971e-08
-3.76493e-09
1.86871e-08
-3.69613e-09
1.98463e-08
-3.60342e-09
2.09678e-08
-3.48816e-09
2.2045e-08
-3.35178e-09
2.30718e-08
-3.19568e-09
2.40425e-08
-3.02129e-09
2.49519e-08
-2.83002e-09
2.57949e-08
-2.62331e-09
2.65673e-08
-2.40255e-09
2.7265e-08
-2.16915e-09
2.78845e-08
-1.92448e-09
2.84225e-08
-1.66993e-09
2.88764e-08
-1.40686e-09
2.92438e-08
-1.13663e-09
2.95229e-08
-8.60589e-10
2.97122e-08
-5.80099e-10
2.98107e-08
-2.9651e-10
2.98178e-08
-1.11801e-11
2.97333e-08
2.74524e-10
2.95576e-08
5.59227e-10
2.92913e-08
8.41539e-10
2.89357e-08
1.12006e-09
2.84922e-08
1.39335e-09
2.79631e-08
1.66e-09
2.73509e-08
1.91852e-09
2.66585e-08
2.16744e-09
2.58894e-08
2.40526e-09
2.50477e-08
2.63047e-09
2.41376e-08
2.84153e-09
2.31643e-08
3.03689e-09
2.21329e-08
3.21501e-09
2.10495e-08
3.37434e-09
1.99203e-08
3.51334e-09
1.87521e-08
3.63049e-09
1.75521e-08
3.7243e-09
1.63279e-08
3.79333e-09
1.50877e-08
3.83621e-09
1.38397e-08
3.85164e-09
1.25926e-08
3.83847e-09
1.13555e-08
3.79567e-09
1.01374e-08
3.7224e-09
8.94768e-09
3.61806e-09
7.7957e-09
3.48235e-09
6.69077e-09
3.31531e-09
5.6421e-09
3.11742e-09
4.65865e-09
2.8897e-09
3.74903e-09
2.63383e-09
2.92143e-09
2.35227e-09
2.1835e-09
2.04841e-09
1.54228e-09
1.7268e-09
1.00425e-09
1.39332e-09
5.75325e-10
1.05541e-09
2.61104e-10
7.2238e-10
6.72092e-11
4.0575e-10
1.19912e-10
8.75027e-11
-2.1355e-10
3.36001e-10
-6.69569e-10
7.33171e-10
-1.1412e-09
1.26798e-09
-1.61561e-09
1.93012e-09
-2.08228e-09
2.70961e-09
-2.53259e-09
3.59663e-09
-2.95953e-09
4.5813e-09
-3.35753e-09
5.65367e-09
-3.72227e-09
6.80367e-09
-4.05055e-09
8.02113e-09
-4.34012e-09
9.29584e-09
-4.58952e-09
1.06176e-08
-4.79797e-09
1.19762e-08
-4.96526e-09
1.33616e-08
-5.09162e-09
1.47639e-08
-5.1777e-09
1.61735e-08
-5.22443e-09
1.7581e-08
-5.233e-09
1.89773e-08
-5.20479e-09
2.03537e-08
-5.14133e-09
2.17018e-08
-5.04427e-09
2.30137e-08
-4.91534e-09
2.42819e-08
-4.75634e-09
2.54992e-08
-4.5691e-09
2.6659e-08
-4.35548e-09
2.77551e-08
-4.11735e-09
2.87816e-08
-3.85658e-09
2.97333e-08
-3.57505e-09
3.06054e-08
-3.27463e-09
3.13934e-08
-2.95716e-09
3.20934e-08
-2.62449e-09
3.27019e-08
-2.27845e-09
3.32159e-08
-1.92087e-09
3.36328e-08
-1.55357e-09
3.39506e-08
-1.17837e-09
3.41675e-08
-7.97072e-10
3.42825e-08
-4.11505e-10
3.42948e-08
-2.34955e-11
3.42042e-08
3.65118e-10
3.40109e-08
7.52481e-10
3.37157e-08
1.13672e-09
3.33198e-08
1.51594e-09
3.28249e-08
1.88822e-09
3.22333e-08
2.25162e-09
3.15476e-08
2.60417e-09
3.07711e-08
2.94387e-09
2.99077e-08
3.2687e-09
2.89615e-08
3.57662e-09
2.79374e-08
3.86558e-09
2.68408e-08
4.1335e-09
2.56774e-08
4.3783e-09
2.44538e-08
4.59793e-09
2.31768e-08
4.79032e-09
2.18538e-08
4.95347e-09
2.04927e-08
5.08539e-09
1.91018e-08
5.1842e-09
1.76899e-08
5.24808e-09
1.62662e-08
5.27535e-09
1.48401e-08
5.26448e-09
1.34216e-08
5.21414e-09
1.20208e-08
5.12324e-09
1.06478e-08
4.99098e-09
9.31325e-09
4.81692e-09
8.02748e-09
4.60106e-09
6.801e-09
4.34388e-09
5.64419e-09
4.0465e-09
4.56727e-09
3.71074e-09
3.58027e-09
3.33925e-09
2.693e-09
2.93567e-09
1.91503e-09
2.50475e-09
1.2558e-09
2.05254e-09
7.24726e-10
1.58649e-09
3.31418e-10
1.11569e-09
8.60686e-11
6.51101e-10
2.05985e-10
1.0361e-10
-3.17158e-10
3.96618e-10
-9.62577e-10
8.62801e-10
-1.60738e-09
1.48732e-09
-2.24013e-09
2.25632e-09
-2.85128e-09
3.15664e-09
-3.43291e-09
4.17561e-09
-3.9785e-09
5.30088e-09
-4.48279e-09
6.52036e-09
-4.94175e-09
7.82215e-09
-5.35234e-09
9.19451e-09
-5.71249e-09
1.06259e-08
-6.0209e-09
1.21049e-08
-6.27699e-09
1.36204e-08
-6.48075e-09
1.51614e-08
-6.63267e-09
1.67174e-08
-6.73366e-09
1.82779e-08
-6.78498e-09
1.98331e-08
-6.78815e-09
2.13732e-08
-6.74492e-09
2.28891e-08
-6.65723e-09
2.4372e-08
-6.52714e-09
2.58134e-08
-6.35681e-09
2.72056e-08
-6.14848e-09
2.85409e-08
-5.90444e-09
2.98124e-08
-5.62702e-09
3.10136e-08
-5.31854e-09
3.21384e-08
-4.98137e-09
3.31812e-08
-4.61783e-09
3.41368e-08
-4.23028e-09
3.50007e-08
-3.82103e-09
3.57686e-08
-3.39241e-09
3.64369e-08
-2.94672e-09
3.70023e-08
-2.48627e-09
3.7462e-08
-2.01334e-09
3.78139e-08
-1.53023e-09
3.8056e-08
-1.03924e-09
3.81872e-08
-5.42666e-10
3.82065e-08
-4.28363e-11
3.81137e-08
4.5792e-10
3.79089e-08
9.57246e-10
3.75928e-08
1.45276e-09
3.71667e-08
1.94205e-09
3.66323e-08
2.42267e-09
3.59917e-08
2.89214e-09
3.52479e-08
3.34796e-09
3.44042e-08
3.78757e-09
3.34644e-08
4.20841e-09
3.24332e-08
4.60787e-09
3.13154e-08
4.98333e-09
3.01167e-08
5.33216e-09
2.88433e-08
5.6517e-09
2.75019e-08
5.93934e-09
2.60997e-08
6.19246e-09
2.46446e-08
6.40851e-09
2.3145e-08
6.58498e-09
2.16097e-08
6.71946e-09
2.00481e-08
6.80967e-09
1.847e-08
6.85347e-09
1.68855e-08
6.8489e-09
1.53054e-08
6.79425e-09
1.37405e-08
6.6881e-09
1.22021e-08
6.52937e-09
1.07016e-08
6.31738e-09
9.2507e-09
6.05193e-09
7.86116e-09
5.7334e-09
6.54486e-09
5.36278e-09
5.31373e-09
4.94185e-09
4.17975e-09
4.47321e-09
3.15494e-09
3.96046e-09
2.25143e-09
3.40825e-09
1.48152e-09
2.82243e-09
8.57846e-10
2.21016e-09
3.93531e-10
1.57999e-09
1.02529e-10
9.42101e-10
3.08518e-10
1.1758e-10
-4.34737e-10
4.4952e-10
-1.29451e-09
9.76453e-10
-2.13431e-09
1.68037e-09
-2.94405e-09
2.54437e-09
-3.71528e-09
3.55243e-09
-4.44097e-09
4.68926e-09
-5.11532e-09
5.94018e-09
-5.73372e-09
7.29105e-09
-6.29262e-09
8.72817e-09
-6.78945e-09
1.02382e-08
-7.22256e-09
1.18084e-08
-7.59104e-09
1.34261e-08
-7.89468e-09
1.50792e-08
-8.13388e-09
1.6756e-08
-8.30951e-09
1.84453e-08
-8.42289e-09
2.0136e-08
-8.4757e-09
2.18178e-08
-8.46989e-09
2.34805e-08
-8.40767e-09
2.51147e-08
-8.29143e-09
2.67113e-08
-8.12368e-09
2.82615e-08
-7.90707e-09
2.97574e-08
-7.64433e-09
3.11911e-08
-7.33821e-09
3.25557e-08
-6.99152e-09
3.38442e-08
-6.60709e-09
3.50506e-08
-6.18773e-09
3.6169e-08
-5.73629e-09
3.71943e-08
-5.25556e-09
3.81217e-08
-4.74836e-09
3.89467e-08
-4.21747e-09
3.96657e-08
-3.66568e-09
4.02752e-08
-3.09577e-09
4.07724e-08
-2.5105e-09
4.11548e-08
-1.91265e-09
4.14206e-08
-1.30499e-09
4.15682e-08
-6.90313e-10
4.15968e-08
-7.14355e-11
4.1506e-08
5.48811e-10
4.12957e-08
1.16756e-09
4.09665e-08
1.78191e-09
4.05197e-08
2.38893e-09
3.99567e-08
2.98562e-09
3.92799e-08
3.56897e-09
3.8492e-08
4.13589e-09
3.75963e-08
4.68328e-09
3.65967e-08
5.20799e-09
3.54978e-08
5.70681e-09
3.43046e-08
6.17653e-09
3.30229e-08
6.61392e-09
3.16589e-08
7.01572e-09
3.02195e-08
7.37871e-09
2.87123e-08
7.69968e-09
2.71453e-08
7.97548e-09
2.55273e-08
8.20301e-09
2.38675e-08
8.37931e-09
2.21756e-08
8.50153e-09
2.04621e-08
8.56701e-09
1.87377e-08
8.57329e-09
1.70137e-08
8.5182e-09
1.5302e-08
8.39988e-09
1.36145e-08
8.21683e-09
1.19639e-08
7.96803e-09
1.03629e-08
7.65293e-09
8.82464e-09
7.27161e-09
7.3626e-09
6.82481e-09
5.99041e-09
6.31403e-09
4.72202e-09
5.7416e-09
3.57164e-09
5.11083e-09
2.55385e-09
4.42603e-09
1.68362e-09
3.69265e-09
9.76465e-10
2.91731e-09
4.4857e-10
2.10788e-09
1.17009e-10
1.27366e-09
4.25526e-10
1.29793e-10
-5.64528e-10
4.95838e-10
-1.66056e-09
1.07609e-09
-2.71456e-09
1.84981e-09
-3.71776e-09
2.79741e-09
-4.66288e-09
3.90034e-09
-5.54388e-09
5.14092e-09
-6.3559e-09
6.50234e-09
-7.09514e-09
7.96852e-09
-7.75879e-09
9.52405e-09
-8.34498e-09
1.11542e-08
-8.85268e-09
1.28448e-08
-9.28161e-09
1.45822e-08
-9.63214e-09
1.63536e-08
-9.9052e-09
1.81463e-08
-1.01023e-08
1.99486e-08
-1.02252e-08
2.1749e-08
-1.02761e-08
2.35367e-08
-1.02576e-08
2.53015e-08
-1.01724e-08
2.70335e-08
-1.00234e-08
2.87235e-08
-9.81368e-09
3.03628e-08
-9.54636e-09
3.19431e-08
-9.22468e-09
3.34569e-08
-8.85192e-09
3.48968e-08
-8.43139e-09
3.62561e-08
-7.9664e-09
3.75286e-08
-7.46026e-09
3.87086e-08
-6.91627e-09
3.97908e-08
-6.33772e-09
4.07704e-08
-5.72788e-09
4.16429e-08
-5.09001e-09
4.24046e-08
-4.42735e-09
4.3052e-08
-3.74314e-09
4.35821e-08
-3.0406e-09
4.39925e-08
-2.32297e-09
4.4281e-08
-1.59349e-09
4.44462e-08
-8.55431e-10
4.44868e-08
-1.12082e-10
4.44024e-08
6.33232e-10
4.41929e-08
1.37714e-09
4.38586e-08
2.11624e-09
4.34005e-08
2.84706e-09
4.28201e-08
3.56607e-09
4.21194e-08
4.2697e-09
4.1301e-08
4.9543e-09
4.03682e-08
5.61618e-09
3.93246e-08
6.25157e-09
3.81748e-08
6.85669e-09
3.69237e-08
7.42768e-09
3.55769e-08
7.96069e-09
3.41409e-08
8.45182e-09
3.26225e-08
8.89719e-09
3.10292e-08
9.29295e-09
2.93695e-08
9.63529e-09
2.7652e-08
9.9205e-09
2.58864e-08
1.01449e-08
2.40828e-08
1.03052e-08
2.2252e-08
1.03979e-08
2.04053e-08
1.042e-08
1.85547e-08
1.03689e-08
1.67126e-08
1.0242e-08
1.4892e-08
1.00374e-08
1.31066e-08
9.7535e-09
1.13702e-08
9.38931e-09
9.69743e-09
8.94441e-09
8.10318e-09
8.41908e-09
6.60285e-09
7.81438e-09
5.21228e-09
7.13218e-09
3.94783e-09
6.37529e-09
2.82637e-09
5.54751e-09
1.86534e-09
4.65369e-09
1.08286e-09
3.69979e-09
4.97799e-10
2.69295e-09
1.29914e-10
1.64154e-09
5.55435e-10
1.4054e-10
-7.05066e-10
5.36483e-10
-2.0565e-09
1.16335e-09
-3.34142e-09
1.99793e-09
-4.55234e-09
3.01824e-09
-5.68318e-09
4.2034e-09
-6.72904e-09
5.53361e-09
-7.68611e-09
6.99008e-09
-8.5516e-09
8.55496e-09
-9.32366e-09
1.02113e-08
-1.00013e-08
1.1943e-08
-1.05844e-08
1.37348e-08
-1.10734e-08
1.55721e-08
-1.14695e-08
1.74412e-08
-1.17743e-08
1.9329e-08
-1.19901e-08
2.12231e-08
-1.21193e-08
2.31119e-08
-1.21649e-08
2.49843e-08
-1.213e-08
2.68297e-08
-1.20179e-08
2.86385e-08
-1.18322e-08
3.04014e-08
-1.15765e-08
3.21096e-08
-1.12546e-08
3.37551e-08
-1.08702e-08
3.53303e-08
-1.04271e-08
3.6828e-08
-9.92908e-09
3.82416e-08
-9.38005e-09
3.95651e-08
-8.78375e-09
4.07928e-08
-8.14396e-09
4.19196e-08
-7.46442e-09
4.29405e-08
-6.74884e-09
4.38515e-08
-6.00092e-09
4.46485e-08
-5.22434e-09
4.53281e-08
-4.42275e-09
4.58873e-08
-3.59981e-09
4.63236e-08
-2.7592e-09
4.66347e-08
-1.9046e-09
4.6819e-08
-1.0397e-09
4.68752e-08
-1.68254e-10
4.68025e-08
7.05946e-10
4.66007e-08
1.57906e-09
4.62698e-08
2.44718e-09
4.58105e-08
3.30632e-09
4.52242e-08
4.15245e-09
4.45125e-08
4.98141e-09
4.36778e-08
5.78902e-09
4.27231e-08
6.57097e-09
4.16518e-08
7.32292e-09
4.04681e-08
8.04042e-09
3.91768e-08
8.71899e-09
3.77834e-08
9.3541e-09
3.62941e-08
9.94119e-09
3.47156e-08
1.04757e-08
3.30556e-08
1.0953e-08
3.13223e-08
1.13687e-08
2.95245e-08
1.17183e-08
2.76721e-08
1.19974e-08
2.57755e-08
1.22019e-08
2.38456e-08
1.23278e-08
2.18944e-08
1.23713e-08
1.99343e-08
1.2329e-08
1.79786e-08
1.21978e-08
1.60411e-08
1.1975e-08
1.41363e-08
1.16583e-08
1.22794e-08
1.12463e-08
1.04861e-08
1.07377e-08
8.77305e-09
1.01322e-08
7.15717e-09
9.43029e-09
5.6562e-09
8.63317e-09
4.28852e-09
7.743e-09
3.07315e-09
6.76289e-09
2.02986e-09
5.69699e-09
1.17916e-09
4.55051e-09
5.42339e-10
3.32977e-09
1.41586e-10
2.0423e-09
6.97016e-10
1.50013e-10
-8.55076e-10
5.72044e-10
-2.47853e-09
1.23926e-09
-4.00864e-09
2.12614e-09
-5.43922e-09
3.20842e-09
-6.76546e-09
4.46313e-09
-7.98374e-09
5.8685e-09
-9.09147e-09
7.40394e-09
-1.0087e-08
9.05002e-09
-1.09697e-08
1.07884e-08
-1.17397e-08
1.26018e-08
-1.23978e-08
1.4474e-08
-1.29455e-08
1.63896e-08
-1.3385e-08
1.83342e-08
-1.37189e-08
2.02944e-08
-1.39502e-08
2.22574e-08
-1.40823e-08
2.42114e-08
-1.41189e-08
2.61452e-08
-1.40638e-08
2.80485e-08
-1.39212e-08
2.99114e-08
-1.36952e-08
3.1725e-08
-1.33901e-08
3.34808e-08
-1.30103e-08
3.51708e-08
-1.25602e-08
3.67877e-08
-1.2044e-08
3.83247e-08
-1.14661e-08
3.97755e-08
-1.08308e-08
4.11342e-08
-1.01424e-08
4.23953e-08
-9.40509e-09
4.35539e-08
-8.62302e-09
4.46054e-08
-7.80031e-09
4.55455e-08
-6.94108e-09
4.63706e-08
-6.04938e-09
4.70771e-08
-5.12925e-09
4.7662e-08
-4.18474e-09
4.81227e-08
-3.2199e-09
4.84569e-08
-2.2388e-09
4.86627e-08
-1.24554e-09
4.87388e-08
-2.44277e-10
4.86839e-08
7.60784e-10
4.84976e-08
1.76535e-09
4.81797e-08
2.76507e-09
4.77306e-08
3.75546e-09
4.71511e-08
4.73198e-09
4.64425e-08
5.68996e-09
4.56069e-08
6.62463e-09
4.46468e-08
7.53113e-09
4.35652e-08
8.40447e-09
4.2366e-08
9.2396e-09
4.10537e-08
1.00313e-08
3.96333e-08
1.07745e-08
3.81107e-08
1.14637e-08
3.64926e-08
1.20938e-08
3.47862e-08
1.26594e-08
3.29998e-08
1.31552e-08
3.11421e-08
1.35759e-08
2.9223e-08
1.39165e-08
2.7253e-08
1.41719e-08
2.52435e-08
1.43373e-08
2.32065e-08
1.44082e-08
2.11552e-08
1.43803e-08
1.91034e-08
1.42496e-08
1.70657e-08
1.40127e-08
1.50576e-08
1.36665e-08
1.30953e-08
1.32085e-08
1.1196e-08
1.2637e-08
9.37752e-09
1.19507e-08
7.65854e-09
1.11493e-08
6.05858e-09
1.02331e-08
4.59792e-09
9.20367e-09
3.29769e-09
8.06313e-09
2.17983e-09
6.81487e-09
1.26709e-09
5.46326e-09
5.83093e-10
4.01377e-09
1.52292e-10
2.4731e-09
8.49309e-10
1.58296e-10
-1.01337e-09
6.02745e-10
-2.92297e-09
1.30414e-09
-4.71003e-09
2.23466e-09
-6.36974e-09
3.36792e-09
-7.89872e-09
4.67892e-09
-9.29475e-09
6.1441e-09
-1.05566e-08
7.74125e-09
-1.16842e-08
9.44953e-09
-1.2678e-08
1.12494e-08
-1.35396e-08
1.31226e-08
-1.4271e-08
1.50521e-08
-1.4875e-08
1.70219e-08
-1.53549e-08
1.90172e-08
-1.57143e-08
2.10244e-08
-1.59574e-08
2.30305e-08
-1.60884e-08
2.50237e-08
-1.61121e-08
2.69931e-08
-1.60332e-08
2.89285e-08
-1.58565e-08
3.08204e-08
-1.55871e-08
3.26601e-08
-1.52299e-08
3.44396e-08
-1.47898e-08
3.61513e-08
-1.42719e-08
3.77884e-08
-1.36811e-08
3.93445e-08
-1.30222e-08
4.08136e-08
-1.23e-08
4.21903e-08
-1.15191e-08
4.34694e-08
-1.06843e-08
4.46463e-08
-9.79996e-09
4.57167e-08
-8.8707e-09
4.66765e-08
-7.90091e-09
4.75221e-08
-6.89499e-09
4.82501e-08
-5.8573e-09
4.88575e-08
-4.79219e-09
4.93417e-08
-3.70404e-09
4.97001e-08
-2.59724e-09
4.99307e-08
-1.47622e-09
5.00319e-08
-3.45483e-10
5.00022e-08
7.90393e-10
4.98408e-08
1.92674e-09
4.95471e-08
3.05877e-09
4.91209e-08
4.18158e-09
4.85627e-08
5.29015e-09
4.78733e-08
6.37932e-09
4.70541e-08
7.44376e-09
4.61072e-08
8.47805e-09
4.5035e-08
9.47658e-09
4.38409e-08
1.04337e-08
4.25288e-08
1.13434e-08
4.11033e-08
1.21999e-08
3.95698e-08
1.29972e-08
3.79346e-08
1.3729e-08
3.62045e-08
1.43894e-08
3.43876e-08
1.4972e-08
3.24926e-08
1.54709e-08
3.0529e-08
1.588e-08
2.85074e-08
1.61934e-08
2.64394e-08
1.64053e-08
2.43373e-08
1.65102e-08
2.22147e-08
1.65029e-08
2.00858e-08
1.63785e-08
1.7966e-08
1.61324e-08
1.58717e-08
1.57607e-08
1.38202e-08
1.526e-08
1.18298e-08
1.46274e-08
9.91969e-09
1.38607e-08
8.11024e-09
1.29587e-08
6.42261e-09
1.19208e-08
4.87898e-09
1.07473e-08
3.50247e-09
9.43964e-09
2.31713e-09
8.00021e-09
1.34792e-09
6.43246e-09
6.20719e-10
4.74098e-09
1.62232e-10
2.93159e-09
1.01155e-09
1.65373e-10
-1.17874e-09
6.28434e-10
-3.38603e-09
1.3575e-09
-5.43909e-09
2.32246e-09
-7.33469e-09
3.49479e-09
-9.07106e-09
4.84763e-09
-1.06476e-08
6.3557e-09
-1.20647e-08
7.99537e-09
-1.33239e-08
9.74457e-09
-1.44272e-08
1.15828e-08
-1.53778e-08
1.34909e-08
-1.61792e-08
1.54515e-08
-1.68355e-08
1.74481e-08
-1.73515e-08
1.94657e-08
-1.7732e-08
2.14908e-08
-1.79824e-08
2.35105e-08
-1.81082e-08
2.55134e-08
-1.8115e-08
2.74887e-08
-1.80085e-08
2.94268e-08
-1.77947e-08
3.13189e-08
-1.74791e-08
3.31567e-08
-1.70677e-08
3.49328e-08
-1.6566e-08
3.66405e-08
-1.59796e-08
3.82733e-08
-1.53139e-08
3.98255e-08
-1.45744e-08
4.12918e-08
-1.37663e-08
4.26673e-08
-1.28946e-08
4.39472e-08
-1.19642e-08
4.51275e-08
-1.09802e-08
4.62039e-08
-9.94722e-09
4.7173e-08
-8.86999e-09
4.80311e-08
-7.75315e-09
4.87751e-08
-6.6013e-09
4.94019e-08
-5.41904e-09
4.99088e-08
-4.21096e-09
5.02932e-08
-2.98169e-09
5.05529e-08
-1.73592e-09
5.06858e-08
-4.78423e-10
5.06902e-08
7.85945e-10
5.05647e-08
2.05219e-09
5.03082e-08
3.31519e-09
4.99201e-08
4.56964e-09
4.94001e-08
5.81011e-09
4.87485e-08
7.03095e-09
4.79658e-08
8.22636e-09
4.70535e-08
9.39033e-09
4.60133e-08
1.05167e-08
4.48479e-08
1.1599e-08
4.35604e-08
1.26308e-08
4.21549e-08
1.36054e-08
4.0636e-08
1.4516e-08
3.90095e-08
1.53555e-08
3.72817e-08
1.6117e-08
3.54602e-08
1.67935e-08
3.35533e-08
1.73778e-08
3.15704e-08
1.78629e-08
2.95219e-08
1.82418e-08
2.74194e-08
1.85078e-08
2.52754e-08
1.86542e-08
2.31036e-08
1.86747e-08
2.09188e-08
1.85632e-08
1.8737e-08
1.83141e-08
1.65754e-08
1.79223e-08
1.44521e-08
1.73832e-08
1.23868e-08
1.66927e-08
1.03999e-08
1.58476e-08
8.51319e-09
1.48454e-08
6.7496e-09
1.36843e-08
5.1331e-09
1.23638e-08
3.68881e-09
1.08839e-08
2.44285e-09
9.24614e-09
1.42241e-09
7.45288e-09
6.55625e-10
5.50776e-09
1.71533e-10
3.41568e-09
1.18309e-09
1.71118e-10
-1.34985e-09
6.48571e-10
-3.86348e-09
1.39805e-09
-6.18857e-09
2.38709e-09
-8.32373e-09
3.58508e-09
-1.0269e-08
4.96333e-09
-1.20258e-08
6.49501e-09
-1.35964e-08
8.15523e-09
-1.49841e-08
9.92089e-09
-1.61929e-08
1.17707e-08
-1.72276e-08
1.36852e-08
-1.80936e-08
1.56463e-08
-1.87967e-08
1.76379e-08
-1.9343e-08
1.9645e-08
-1.97391e-08
2.16542e-08
-1.99916e-08
2.36532e-08
-2.01072e-08
2.56311e-08
-2.00929e-08
2.7578e-08
-1.99554e-08
2.94849e-08
-1.97015e-08
3.13437e-08
-1.93379e-08
3.31471e-08
-1.88711e-08
3.48887e-08
-1.83075e-08
3.65624e-08
-1.76533e-08
3.81628e-08
-1.69143e-08
3.96849e-08
-1.60966e-08
4.11242e-08
-1.52056e-08
4.24765e-08
-1.42468e-08
4.37378e-08
-1.32255e-08
4.49043e-08
-1.21467e-08
4.59726e-08
-1.10155e-08
4.69393e-08
-9.83668e-09
4.78012e-08
-8.61503e-09
4.85551e-08
-7.35529e-09
4.91983e-08
-6.06217e-09
4.97277e-08
-4.7404e-09
5.01407e-08
-3.39473e-09
5.04348e-08
-2.03e-09
5.06075e-08
-6.51136e-10
5.06566e-08
7.36789e-10
5.05803e-08
2.12856e-09
5.03767e-08
3.51877e-09
5.00444e-08
4.90185e-09
4.95826e-08
6.27197e-09
4.89904e-08
7.62309e-09
4.82678e-08
8.94892e-09
4.74152e-08
1.02429e-08
4.64335e-08
1.14984e-08
4.53243e-08
1.27082e-08
4.409e-08
1.38652e-08
4.27336e-08
1.49618e-08
4.1259e-08
1.59905e-08
3.96711e-08
1.69434e-08
3.79757e-08
1.78125e-08
3.61795e-08
1.85897e-08
3.42903e-08
1.92669e-08
3.23172e-08
1.9836e-08
3.02703e-08
2.02888e-08
2.81608e-08
2.06173e-08
2.60014e-08
2.08136e-08
2.38058e-08
2.08702e-08
2.15893e-08
2.07797e-08
1.93682e-08
2.05352e-08
1.71605e-08
2.01301e-08
1.49851e-08
1.95585e-08
1.28628e-08
1.88151e-08
1.08152e-08
1.78951e-08
8.86568e-09
1.67949e-08
7.03868e-09
1.55113e-08
5.36002e-09
1.40424e-08
3.85678e-09
1.23871e-08
2.55723e-09
1.05457e-08
1.49079e-09
8.5193e-09
6.87976e-10
6.31056e-09
1.80256e-10
3.9234e-09
1.36335e-09
1.75305e-10
-1.52516e-09
6.6221e-10
-4.35038e-09
1.42362e-09
-6.94998e-09
2.42465e-09
-9.32475e-09
3.6326e-09
-1.1477e-08
5.01705e-09
-1.34103e-08
6.54977e-09
-1.51291e-08
8.20478e-09
-1.66391e-08
9.95823e-09
-1.79463e-08
1.17884e-08
-1.90577e-08
1.36754e-08
-1.99807e-08
1.56016e-08
-2.07228e-08
1.75507e-08
-2.12922e-08
1.95086e-08
-2.16969e-08
2.14623e-08
-2.19453e-08
2.34004e-08
-2.20454e-08
2.5313e-08
-2.20055e-08
2.71911e-08
-2.18335e-08
2.90268e-08
-2.15373e-08
3.08134e-08
-2.11245e-08
3.25446e-08
-2.06024e-08
3.42151e-08
-1.9978e-08
3.58202e-08
-1.92583e-08
3.73554e-08
-1.84496e-08
3.8817e-08
-1.75582e-08
4.02014e-08
-1.659e-08
4.15052e-08
-1.55506e-08
4.27253e-08
-1.44456e-08
4.38587e-08
-1.32801e-08
4.49024e-08
-1.20593e-08
4.58536e-08
-1.07879e-08
4.67094e-08
-9.4708e-09
4.74669e-08
-8.11275e-09
4.81232e-08
-6.71841e-09
4.86753e-08
-5.29251e-09
4.91204e-08
-3.8398e-09
4.94555e-08
-2.36513e-09
4.96779e-08
-8.7348e-10
4.97847e-08
6.3002e-10
4.97733e-08
2.14003e-09
4.96411e-08
3.65098e-09
4.93859e-08
5.15706e-09
4.90057e-08
6.65219e-09
4.84989e-08
8.12995e-09
4.78642e-08
9.58367e-09
4.71008e-08
1.10063e-08
4.62086e-08
1.23906e-08
4.51881e-08
1.37288e-08
4.40403e-08
1.5013e-08
4.27673e-08
1.62349e-08
4.13719e-08
1.7386e-08
3.98578e-08
1.84575e-08
3.82298e-08
1.94404e-08
3.6494e-08
2.03256e-08
3.46572e-08
2.11037e-08
3.27279e-08
2.17653e-08
3.07156e-08
2.23011e-08
2.86313e-08
2.27016e-08
2.64873e-08
2.29576e-08
2.42975e-08
2.30601e-08
2.20771e-08
2.30001e-08
1.98429e-08
2.27693e-08
1.76134e-08
2.23596e-08
1.54084e-08
2.17635e-08
1.32494e-08
2.09741e-08
1.11595e-08
1.99851e-08
9.16322e-09
1.87912e-08
7.28677e-09
1.73878e-08
5.55774e-09
1.57714e-08
4.00522e-09
1.39397e-08
2.65965e-09
1.18912e-08
1.55282e-09
9.62614e-09
7.17694e-10
7.14568e-09
1.88393e-10
4.4527e-09
1.55174e-09
1.77591e-10
-1.70275e-09
6.6798e-10
-4.84077e-09
1.43112e-09
-7.71312e-09
2.42964e-09
-1.03233e-08
3.6288e-09
-1.26762e-08
4.99654e-09
-1.4778e-08
6.50343e-09
-1.6636e-08
8.12263e-09
-1.82583e-08
9.82982e-09
-1.96535e-08
1.16031e-08
-2.0831e-08
1.34229e-08
-2.18005e-08
1.52718e-08
-2.25717e-08
1.71344e-08
-2.31548e-08
1.89973e-08
-2.35598e-08
2.08488e-08
-2.37967e-08
2.26786e-08
-2.38753e-08
2.44782e-08
-2.3805e-08
2.62401e-08
-2.35954e-08
2.7958e-08
-2.32551e-08
2.96265e-08
-2.27929e-08
3.1241e-08
-2.22169e-08
3.27979e-08
-2.15349e-08
3.42937e-08
-2.07541e-08
3.57257e-08
-1.98815e-08
3.70913e-08
-1.89237e-08
3.83881e-08
-1.78868e-08
3.96141e-08
-1.67766e-08
4.07671e-08
-1.55986e-08
4.18449e-08
-1.43579e-08
4.28454e-08
-1.30597e-08
4.37661e-08
-1.17086e-08
4.46047e-08
-1.03094e-08
4.53584e-08
-8.86647e-09
4.60245e-08
-7.38449e-09
4.66e-08
-5.86793e-09
4.70816e-08
-4.3214e-09
4.74661e-08
-2.74959e-09
4.775e-08
-1.15738e-09
4.79299e-08
4.50163e-10
4.80023e-08
2.06772e-09
4.79636e-08
3.68969e-09
4.78106e-08
5.31014e-09
4.754e-08
6.92279e-09
4.7149e-08
8.52101e-09
4.6635e-08
1.00977e-08
4.59958e-08
1.16456e-08
4.52299e-08
1.31566e-08
4.43362e-08
1.46225e-08
4.33144e-08
1.60348e-08
4.21652e-08
1.73842e-08
4.08898e-08
1.86614e-08
3.94909e-08
1.98565e-08
3.79719e-08
2.09595e-08
3.63375e-08
2.196e-08
3.45939e-08
2.28474e-08
3.27483e-08
2.3611e-08
3.08095e-08
2.42399e-08
2.8788e-08
2.47232e-08
2.66957e-08
2.505e-08
2.45461e-08
2.52098e-08
2.23544e-08
2.51919e-08
2.01377e-08
2.49861e-08
1.79147e-08
2.45827e-08
1.5706e-08
2.39722e-08
1.3534e-08
2.31461e-08
1.14228e-08
2.20963e-08
9.39842e-09
2.08156e-08
7.48851e-09
1.92977e-08
5.72257e-09
1.75374e-08
4.13172e-09
1.55305e-08
2.74869e-09
1.32743e-08
1.60772e-09
1.07671e-08
7.44472e-10
8.00894e-09
1.95871e-10
5.0013e-09
1.7476e-09
1.77517e-10
-1.88026e-09
6.64048e-10
-5.3273e-09
1.41647e-09
-8.46554e-09
2.39486e-09
-1.13017e-08
3.56255e-09
-1.38438e-08
4.88598e-09
-1.61014e-08
6.33474e-09
-1.80848e-08
7.88147e-09
-1.9805e-08
9.50173e-09
-2.12738e-08
1.11739e-08
-2.25032e-08
1.28789e-08
-2.35055e-08
1.46004e-08
-2.42932e-08
1.63241e-08
-2.48785e-08
1.80379e-08
-2.52737e-08
1.97319e-08