/*--------------------------------*- C++ -*----------------------------------*\
  =========                 |
  \\      /  F ield         | OpenFOAM: The Open Source CFD Toolbox
   \\    /   O peration     | Website:  https://openfoam.org
    \\  /    A nd           | Version:  12
     \\/     M anipulation  |
\*---------------------------------------------------------------------------*/
FoamFile
{
    format      ascii;
    class       volVectorField;
    location    "8.5";
    object      U;
}
// * * * * * * * * * * * * * * * * * * * * * * * * * * * * * * * * * * * * * //

dimensions      [0 1 -1 0 0 0 0];

internalField   nonuniform List<vector> 
5625
(
(-2.63318e-07 5.89899e-07 0)
(-9.12746e-07 8.91868e-07 0)
(-1.34133e-06 7.85045e-07 0)
(-1.22255e-06 5.0824e-07 0)
(-3.25666e-07 1.74512e-07 0)
(1.43328e-06 -1.67268e-07 0)
(4.05978e-06 -4.92941e-07 0)
(7.51906e-06 -7.90102e-07 0)
(1.17528e-05 -1.05329e-06 0)
(1.66887e-05 -1.28106e-06 0)
(2.22465e-05 -1.47414e-06 0)
(2.83434e-05 -1.63428e-06 0)
(3.48955e-05 -1.76373e-06 0)
(4.1821e-05 -1.86484e-06 0)
(4.90403e-05 -1.93995e-06 0)
(5.6477e-05 -1.9913e-06 0)
(6.40584e-05 -2.02094e-06 0)
(7.17157e-05 -2.03078e-06 0)
(7.93838e-05 -2.02257e-06 0)
(8.70018e-05 -1.99789e-06 0)
(9.45126e-05 -1.95822e-06 0)
(0.000101863 -1.9049e-06 0)
(0.000109003 -1.83917e-06 0)
(0.000115887 -1.76217e-06 0)
(0.000122473 -1.67496e-06 0)
(0.000128721 -1.57852e-06 0)
(0.000134596 -1.47378e-06 0)
(0.000140066 -1.36159e-06 0)
(0.000145101 -1.24277e-06 0)
(0.000149674 -1.11807e-06 0)
(0.000153763 -9.88236e-07 0)
(0.000157347 -8.53953e-07 0)
(0.000160408 -7.15889e-07 0)
(0.000162931 -5.7469e-07 0)
(0.000164904 -4.30982e-07 0)
(0.000166316 -2.85381e-07 0)
(0.000167162 -1.38492e-07 0)
(0.000167436 9.08354e-09 0)
(0.000167137 1.56731e-07 0)
(0.000166266 3.03861e-07 0)
(0.000164826 4.49853e-07 0)
(0.000162823 5.94069e-07 0)
(0.000160268 7.35868e-07 0)
(0.00015717 8.74581e-07 0)
(0.000153546 1.00952e-06 0)
(0.000149412 1.13996e-06 0)
(0.000144789 1.26516e-06 0)
(0.000139702 1.38433e-06 0)
(0.000134176 1.49664e-06 0)
(0.000128241 1.60122e-06 0)
(0.000121932 1.69716e-06 0)
(0.000115284 1.78347e-06 0)
(0.000108339 1.85914e-06 0)
(0.000101139 1.92305e-06 0)
(9.37331e-05 1.97404e-06 0)
(8.61717e-05 2.01084e-06 0)
(7.85099e-05 2.03211e-06 0)
(7.08067e-05 2.0364e-06 0)
(6.31246e-05 2.02213e-06 0)
(5.55302e-05 1.98761e-06 0)
(4.80937e-05 1.931e-06 0)
(4.08889e-05 1.85035e-06 0)
(3.39928e-05 1.74357e-06 0)
(2.74851e-05 1.60848e-06 0)
(2.14478e-05 1.44293e-06 0)
(1.59634e-05 1.24495e-06 0)
(1.11134e-05 1.01309e-06 0)
(6.97541e-06 7.47044e-07 0)
(3.61834e-06 4.487e-07 0)
(1.09606e-06 1.24065e-07 0)
(-5.61969e-07 -2.13895e-07 0)
(-1.36766e-06 -5.40588e-07 0)
(-1.41235e-06 -8.06945e-07 0)
(-9.34358e-07 -9.00911e-07 0)
(-2.63168e-07 -5.88567e-07 0)
(-1.02232e-07 1.3836e-06 0)
(1.01212e-07 1.45579e-06 0)
(1.40381e-06 -1.91241e-07 0)
(4.21365e-06 -2.78937e-06 0)
(8.7946e-06 -5.85537e-06 0)
(1.52664e-05 -9.08418e-06 0)
(2.3645e-05 -1.22801e-05 0)
(3.38749e-05 -1.53187e-05 0)
(4.58501e-05 -1.81235e-05 0)
(5.94309e-05 -2.06495e-05 0)
(7.44549e-05 -2.28731e-05 0)
(9.07465e-05 -2.47845e-05 0)
(0.000108123 -2.63829e-05 0)
(0.000126398 -2.76737e-05 0)
(0.000145389 -2.8666e-05 0)
(0.000164914 -2.93717e-05 0)
(0.000184797 -2.98038e-05 0)
(0.000204869 -2.99765e-05 0)
(0.000224968 -2.99042e-05 0)
(0.000244941 -2.96017e-05 0)
(0.00026464 -2.90835e-05 0)
(0.000283929 -2.83639e-05 0)
(0.000302678 -2.74572e-05 0)
(0.000320768 -2.63772e-05 0)
(0.000338086 -2.51372e-05 0)
(0.00035453 -2.37503e-05 0)
(0.000370003 -2.22292e-05 0)
(0.000384419 -2.05862e-05 0)
(0.000397699 -1.88332e-05 0)
(0.000409772 -1.69821e-05 0)
(0.000420574 -1.50441e-05 0)
(0.000430048 -1.30303e-05 0)
(0.000438148 -1.09517e-05 0)
(0.000444831 -8.81893e-06 0)
(0.000450064 -6.64266e-06 0)
(0.000453821 -4.43335e-06 0)
(0.000456081 -2.20144e-06 0)
(0.000456833 4.26334e-08 0)
(0.000456072 2.28842e-06 0)
(0.0004538 4.5254e-06 0)
(0.000450027 6.74294e-06 0)
(0.000444769 8.93025e-06 0)
(0.000438052 1.10764e-05 0)
(0.000429907 1.31702e-05 0)
(0.000420374 1.52003e-05 0)
(0.0004095 1.7155e-05 0)
(0.000397342 1.90225e-05 0)
(0.000383962 2.07904e-05 0)
(0.000369434 2.24462e-05 0)
(0.000353837 2.39772e-05 0)
(0.000337261 2.53701e-05 0)
(0.000319804 2.66115e-05 0)
(0.000301571 2.76877e-05 0)
(0.000282679 2.85847e-05 0)
(0.000263251 2.92882e-05 0)
(0.000243421 2.97839e-05 0)
(0.000223331 3.00572e-05 0)
(0.00020313 3.00938e-05 0)
(0.000182977 2.98794e-05 0)
(0.000163038 2.94e-05 0)
(0.000143486 2.86425e-05 0)
(0.000124499 2.75949e-05 0)
(0.000106259 2.62471e-05 0)
(8.89531e-05 2.45917e-05 0)
(7.27653e-05 2.26256e-05 0)
(5.78768e-05 2.0352e-05 0)
(4.44603e-05 1.77838e-05 0)
(3.26731e-05 1.49478e-05 0)
(2.26482e-05 1.18924e-05 0)
(1.44829e-05 8.69775e-06 0)
(8.22269e-06 5.49165e-06 0)
(3.8395e-06 2.47237e-06 0)
(1.19946e-06 -5.41335e-08 0)
(2.19134e-08 -1.60774e-06 0)
(-1.10328e-07 -1.43114e-06 0)
(8.15725e-08 5.41972e-07 0)
(1.86997e-06 -2.1389e-06 0)
(5.9034e-06 -7.38054e-06 0)
(1.2454e-05 -1.41369e-05 0)
(2.16117e-05 -2.16741e-05 0)
(3.34096e-05 -2.94787e-05 0)
(4.78164e-05 -3.7189e-05 0)
(6.47365e-05 -4.45535e-05 0)
(8.40228e-05 -5.14008e-05 0)
(0.000105489 -5.76189e-05 0)
(0.000128922 -6.31382e-05 0)
(0.000154089 -6.79197e-05 0)
(0.000180743 -7.19469e-05 0)
(0.000208634 -7.52193e-05 0)
(0.000237508 -7.77478e-05 0)
(0.000267113 -7.95514e-05 0)
(0.000297203 -8.0655e-05 0)
(0.000327537 -8.10875e-05 0)
(0.000357882 -8.08804e-05 0)
(0.000388017 -8.00669e-05 0)
(0.000417728 -7.86812e-05 0)
(0.000446814 -7.67581e-05 0)
(0.000475086 -7.43324e-05 0)
(0.000502366 -7.14388e-05 0)
(0.000528486 -6.81114e-05 0)
(0.000553292 -6.4384e-05 0)
(0.000576642 -6.02899e-05 0)
(0.000598404 -5.58617e-05 0)
(0.000618458 -5.11311e-05 0)
(0.000636698 -4.61297e-05 0)
(0.000653026 -4.08882e-05 0)
(0.000667357 -3.54369e-05 0)
(0.000679618 -2.98056e-05 0)
(0.000689744 -2.40239e-05 0)
(0.000697686 -1.81208e-05 0)
(0.0007034 -1.21255e-05 0)
(0.000706858 -6.06693e-06 0)
(0.000708041 2.60213e-08 0)
(0.00070694 6.12429e-06 0)
(0.000703559 1.21986e-05 0)
(0.000697912 1.82195e-05 0)
(0.000690025 2.41571e-05 0)
(0.000679933 2.99811e-05 0)
(0.000667687 3.56608e-05 0)
(0.000653346 4.11647e-05 0)
(0.000636981 4.6461e-05 0)
(0.000618678 5.15172e-05 0)
(0.000598533 5.63e-05 0)
(0.000576653 6.07759e-05 0)
(0.000553161 6.49104e-05 0)
(0.00052819 6.86686e-05 0)
(0.000501887 7.20153e-05 0)
(0.00047441 7.49147e-05 0)
(0.000445932 7.7331e-05 0)
(0.000416636 7.92282e-05 0)
(0.000386718 8.05708e-05 0)
(0.000356388 8.13237e-05 0)
(0.000325862 8.1453e-05 0)
(0.000295372 8.09262e-05 0)
(0.000265155 7.97135e-05 0)
(0.000235457 7.77883e-05 0)
(0.00020653 7.51286e-05 0)
(0.000178629 7.17191e-05 0)
(0.00015201 6.75536e-05 0)
(0.000126926 6.26378e-05 0)
(0.00010362 5.69945e-05 0)
(8.2322e-05 5.0669e-05 0)
(6.32405e-05 4.37385e-05 0)
(4.65537e-05 3.63227e-05 0)
(3.23984e-05 2.86005e-05 0)
(2.08575e-05 2.0831e-05 0)
(1.19476e-05 1.33821e-05 0)
(5.61733e-06 6.77153e-06 0)
(1.75494e-06 1.73365e-06 0)
(6.98126e-08 -6.90809e-07 0)
(2.50865e-07 -2.13013e-06 0)
(3.67236e-06 -1.04084e-05 0)
(1.05635e-05 -2.14746e-05 0)
(2.10252e-05 -3.42036e-05 0)
(3.49143e-05 -4.77479e-05 0)
(5.21171e-05 -6.14724e-05 0)
(7.25058e-05 -7.49011e-05 0)
(9.59116e-05 -8.76828e-05 0)
(0.000122127 -9.95641e-05 0)
(0.000150911 -0.000110368 0)
(0.000182002 -0.000119977 0)
(0.000215119 -0.000128319 0)
(0.000249968 -0.000135356 0)
(0.000286248 -0.000141077 0)
(0.000323657 -0.000145491 0)
(0.000361894 -0.000148623 0)
(0.00040066 -0.000150508 0)
(0.000439665 -0.00015119 0)
(0.000478625 -0.000150718 0)
(0.00051727 -0.000149148 0)
(0.000555338 -0.000146536 0)
(0.000592581 -0.000142941 0)
(0.000628764 -0.000138424 0)
(0.000663665 -0.000133045 0)
(0.000697077 -0.000126865 0)
(0.000728805 -0.000119944 0)
(0.000758672 -0.000112341 0)
(0.00078651 -0.000104117 0)
(0.000812171 -9.53278e-05 0)
(0.000835516 -8.60324e-05 0)
(0.000856424 -7.62872e-05 0)
(0.000874785 -6.61482e-05 0)
(0.000890506 -5.56708e-05 0)
(0.000903506 -4.49099e-05 0)
(0.000913717 -3.39202e-05 0)
(0.000921088 -2.27558e-05 0)
(0.00092558 -1.14711e-05 0)
(0.000927167 -1.20375e-07 0)
(0.000925838 1.12418e-05 0)
(0.000921597 2.25605e-05 0)
(0.000914461 3.37803e-05 0)
(0.000904462 4.48452e-05 0)
(0.000891645 5.56983e-05 0)
(0.000876073 6.62821e-05 0)
(0.000857819 7.6538e-05 0)
(0.000836976 8.64066e-05 0)
(0.000813649 9.58275e-05 0)
(0.000787959 0.000104739 0)
(0.000760044 0.00011308 0)
(0.000730056 0.000120787 0)
(0.000698162 0.000127795 0)
(0.000664548 0.000134042 0)
(0.000629411 0.000139464 0)
(0.000592967 0.000143995 0)
(0.000555444 0.000147573 0)
(0.000517086 0.000150137 0)
(0.000478151 0.000151626 0)
(0.000438908 0.000151983 0)
(0.000399638 0.000151155 0)
(0.000360634 0.000149095 0)
(0.000322195 0.000145762 0)
(0.000284625 0.000141127 0)
(0.000248232 0.000135171 0)
(0.000213325 0.000127894 0)
(0.000180206 0.000119316 0)
(0.000149169 0.000109483 0)
(0.000120492 9.84813e-05 0)
(9.44354e-05 8.64394e-05 0)
(7.12299e-05 7.35477e-05 0)
(5.10733e-05 6.00724e-05 0)
(3.41207e-05 4.63781e-05 0)
(2.04831e-05 3.29527e-05 0)
(1.02529e-05 2.04417e-05 0)
(3.54549e-06 9.70015e-06 0)
(2.37546e-07 1.85683e-06 0)
(3.92708e-07 -6.52766e-06 0)
(5.30633e-06 -2.31945e-05 0)
(1.48768e-05 -4.23229e-05 0)
(2.90529e-05 -6.28221e-05 0)
(4.74624e-05 -8.38293e-05 0)
(6.98298e-05 -0.000104667 0)
(9.591e-05 -0.000124804 0)
(0.000125441 -0.000143833 0)
(0.000158136 -0.000161448 0)
(0.000193693 -0.000177427 0)
(0.000231792 -0.000191617 0)
(0.000272104 -0.00020392 0)
(0.00031429 -0.00021428 0)
(0.000358008 -0.000222677 0)
(0.000402914 -0.00022912 0)
(0.000448669 -0.000233638 0)
(0.000494936 -0.000236278 0)
(0.000541386 -0.0002371 0)
(0.000587701 -0.000236172 0)
(0.000633574 -0.000233572 0)
(0.000678708 -0.000229381 0)
(0.000722822 -0.000223685 0)
(0.000765648 -0.000216573 0)
(0.000806932 -0.000208134 0)
(0.000846438 -0.000198458 0)
(0.000883943 -0.000187636 0)
(0.000919241 -0.000175757 0)
(0.000952142 -0.000162913 0)
(0.000982472 -0.000149191 0)
(0.00101007 -0.000134679 0)
(0.0010348 -0.000119464 0)
(0.00105653 -0.000103634 0)
(0.00107515 -8.72738e-05 0)
(0.00109057 -7.04683e-05 0)
(0.00110271 -5.33025e-05 0)
(0.0011115 -3.5861e-05 0)
(0.0011169 -1.82284e-05 0)
(0.00111889 -4.89503e-07 0)
(0.00111744 1.72704e-05 0)
(0.00111255 3.49654e-05 0)
(0.00110426 5.2509e-05 0)
(0.00109258 6.98134e-05 0)
(0.00107758 8.67901e-05 0)
(0.00105933 0.000103349 0)
(0.0010379 0.000119399 0)
(0.00101341 0.000134848 0)
(0.000985971 0.000149602 0)
(0.000955729 0.000163565 0)
(0.00092284 0.000176643 0)
(0.000887478 0.000188738 0)
(0.000849837 0.000199753 0)
(0.000810128 0.00020959 0)
(0.00076858 0.000218153 0)
(0.000725438 0.000225344 0)
(0.000680964 0.000231071 0)
(0.000635439 0.00023524 0)
(0.000589155 0.000237765 0)
(0.00054242 0.000238562 0)
(0.000495555 0.000237558 0)
(0.000448892 0.000234685 0)
(0.00040277 0.00022989 0)
(0.000357537 0.000223133 0)
(0.000313542 0.000214395 0)
(0.000271139 0.000203678 0)
(0.000230674 0.000191016 0)
(0.000192489 0.00017648 0)
(0.000156915 0.000160184 0)
(0.000124268 0.000142302 0)
(9.48459e-05 0.000123073 0)
(6.89236e-05 0.000102825 0)
(4.675e-05 8.19842e-05 0)
(2.85525e-05 6.11017e-05 0)
(1.45832e-05 4.08738e-05 0)
(5.18366e-06 2.21801e-05 0)
(3.79341e-07 6.12612e-06 0)
(5.10573e-07 -1.2433e-05 0)
(6.7338e-06 -4.00392e-05 0)
(1.87075e-05 -6.93507e-05 0)
(3.62587e-05 -9.93619e-05 0)
(5.88133e-05 -0.00012925 0)
(8.59426e-05 -0.000158348 0)
(0.000117282 -0.000186117 0)
(0.000152468 -0.000212132 0)
(0.000191132 -0.000236067 0)
(0.000232896 -0.00025768 0)
(0.000277381 -0.0002768 0)
(0.000324205 -0.000293316 0)
(0.000372984 -0.000307165 0)
(0.000423335 -0.000318327 0)
(0.000474878 -0.000326815 0)
(0.00052724 -0.000332667 0)
(0.000580053 -0.000335943 0)
(0.000632959 -0.000336722 0)
(0.000685614 -0.000335095 0)
(0.000737681 -0.000331161 0)
(0.000788842 -0.000325032 0)
(0.000838791 -0.00031682 0)
(0.000887236 -0.000306644 0)
(0.000933903 -0.000294625 0)
(0.000978534 -0.000280886 0)
(0.00102089 -0.000265549 0)
(0.00106074 -0.000248739 0)
(0.00109788 -0.000230577 0)
(0.00113212 -0.000211186 0)
(0.00116328 -0.000190687 0)
(0.00119122 -0.000169202 0)
(0.00121578 -0.00014685 0)
(0.00123685 -0.000123751 0)
(0.00125433 -0.000100022 0)
(0.00126812 -7.5783e-05 0)
(0.00127816 -5.11517e-05 0)
(0.0012844 -2.62467e-05 0)
(0.00128679 -1.18689e-06 0)
(0.00128532 2.39081e-05 0)
(0.00127999 4.89177e-05 0)
(0.00127082 7.37202e-05 0)
(0.00125785 9.81925e-05 0)
(0.00124113 0.00012221 0)
(0.00122073 0.000145647 0)
(0.00119676 0.000168374 0)
(0.00116931 0.000190263 0)
(0.00113852 0.000211182 0)
(0.00110455 0.000230999 0)
(0.00106756 0.000249579 0)
(0.00102774 0.000266789 0)
(0.00098531 0.000282492 0)
(0.000940493 0.000296555 0)
(0.00089354 0.000308842 0)
(0.000844718 0.000319224 0)
(0.000794315 0.000327569 0)
(0.000742634 0.000333755 0)
(0.000689998 0.000337663 0)
(0.000636743 0.000339182 0)
(0.000583219 0.000338212 0)
(0.000529791 0.000334666 0)
(0.000476833 0.000328474 0)
(0.000424727 0.000319583 0)
(0.000373863 0.000307968 0)
(0.000324633 0.000293633 0)
(0.000277431 0.000276616 0)
(0.000232647 0.000257 0)
(0.00019067 0.000234921 0)
(0.000151878 0.000210575 0)
(0.000116646 0.000184231 0)
(8.53334e-05 0.000156245 0)
(5.82918e-05 0.00012707 0)
(3.58678e-05 9.72734e-05 0)
(1.84657e-05 6.75516e-05 0)
(6.62765e-06 3.87545e-05 0)
(4.97955e-07 1.19136e-05 0)
(6.09339e-07 -1.96381e-05 0)
(7.97031e-06 -6.04505e-05 0)
(2.20632e-05 -0.000101883 0)
(4.26202e-05 -0.000143031 0)
(6.88952e-05 -0.00018314 0)
(0.000100323 -0.000221584 0)
(0.000136427 -0.000257852 0)
(0.000176745 -0.000291531 0)
(0.000220821 -0.000322302 0)
(0.000268206 -0.000349928 0)
(0.000318455 -0.000374239 0)
(0.000371133 -0.00039513 0)
(0.000425809 -0.000412544 0)
(0.000482059 -0.000426471 0)
(0.00053947 -0.000436935 0)
(0.000597637 -0.000443993 0)
(0.000656166 -0.000447724 0)
(0.000714677 -0.000448228 0)
(0.000772802 -0.000445623 0)
(0.000830187 -0.000440036 0)
(0.000886494 -0.000431606 0)
(0.000941401 -0.000420478 0)
(0.000994603 -0.000406803 0)
(0.00104581 -0.000390735 0)
(0.00109475 -0.000372431 0)
(0.00114118 -0.000352048 0)
(0.00118484 -0.000329744 0)
(0.00122553 -0.000305676 0)
(0.00126305 -0.000280003 0)
(0.00129721 -0.000252881 0)
(0.00132784 -0.000224466 0)
(0.0013548 -0.000194913 0)
(0.00137796 -0.000164377 0)
(0.0013972 -0.000133011 0)
(0.00141244 -0.00010097 0)
(0.00142359 -6.84071e-05 0)
(0.0014306 -3.54776e-05 0)
(0.00143343 -2.33645e-06 0)
(0.00143205 3.08601e-05 0)
(0.00142647 6.39544e-05 0)
(0.00141669 9.67872e-05 0)
(0.00140276 0.000129197 0)
(0.00138473 0.000161022 0)
(0.00136268 0.000192095 0)
(0.00133669 0.000222249 0)
(0.00130689 0.000251314 0)
(0.00127341 0.00027912 0)
(0.00123641 0.000305491 0)
(0.00119607 0.000330254 0)
(0.00115258 0.000353233 0)
(0.00110617 0.00037425 0)
(0.00105707 0.000393132 0)
(0.00100556 0.000409704 0)
(0.000951912 0.000423795 0)
(0.000896432 0.000435239 0)
(0.000839442 0.000443875 0)
(0.000781286 0.00044955 0)
(0.000722321 0.000452123 0)
(0.000662925 0.000451464 0)
(0.000603489 0.000447461 0)
(0.000544415 0.00044002 0)
(0.000486122 0.000429075 0)
(0.000429034 0.000414584 0)
(0.000373586 0.000396543 0)
(0.000320217 0.000374988 0)
(0.000269371 0.00035 0)
(0.000221494 0.000321719 0)
(0.000177036 0.000290347 0)
(0.000136446 0.000256158 0)
(0.000100176 0.000219511 0)
(6.86759e-05 0.000180857 0)
(4.24058e-05 0.00014075 0)
(2.19067e-05 9.98538e-05 0)
(7.89198e-06 5.89639e-05 0)
(5.98156e-07 1.9022e-05 0)
(6.93577e-07 -2.79658e-05 0)
(9.04442e-06 -8.39791e-05 0)
(2.49968e-05 -0.000139268 0)
(4.82068e-05 -0.000193031 0)
(7.77821e-05 -0.000244593 0)
(0.000113038 -0.00029339 0)
(0.000153394 -0.000338957 0)
(0.000198299 -0.00038092 0)
(0.000247213 -0.000418988 0)
(0.000299614 -0.000452948 0)
(0.000354997 -0.000482656 0)
(0.00041287 -0.000508024 0)
(0.000472757 -0.00052902 0)
(0.000534197 -0.000545654 0)
(0.000596741 -0.000557975 0)
(0.000659959 -0.000566064 0)
(0.000723434 -0.000570029 0)
(0.000786763 -0.000569998 0)
(0.000849565 -0.000566118 0)
(0.00091147 -0.00055855 0)
(0.000972129 -0.000547465 0)
(0.00103121 -0.000533043 0)
(0.0010884 -0.000515467 0)
(0.0011434 -0.000494929 0)
(0.00119593 -0.000471619 0)
(0.00124574 -0.000445731 0)
(0.00129257 -0.000417459 0)
(0.00133621 -0.000386996 0)
(0.00137646 -0.000354535 0)
(0.00141311 -0.00032027 0)
(0.00144601 -0.000284392 0)
(0.00147499 -0.000247092 0)
(0.00149993 -0.00020856 0)
(0.0015207 -0.000168987 0)
(0.00153722 -0.000128562 0)
(0.00154939 -8.74765e-05 0)
(0.00155715 -4.59208e-05 0)
(0.00156046 -4.08776e-06 0)
(0.0015593 3.78289e-05 0)
(0.00155364 7.96331e-05 0)
(0.00154352 0.000121127 0)
(0.00152896 0.00016211 0)
(0.00151001 0.000202378 0)
(0.00148674 0.000241726 0)
(0.00145925 0.000279944 0)
(0.00142765 0.000316821 0)
(0.00139207 0.000352142 0)
(0.00135268 0.000385689 0)
(0.00130965 0.000417246 0)
(0.00126319 0.000446591 0)
(0.00121352 0.000473505 0)
(0.00116089 0.00049777 0)
(0.00110557 0.000519167 0)
(0.00104785 0.000537483 0)
(0.000988047 0.000552511 0)
(0.000926498 0.000564049 0)
(0.000863559 0.000571906 0)
(0.000799609 0.000575904 0)
(0.000735045 0.000575879 0)
(0.00067028 0.000571687 0)
(0.000605749 0.000563208 0)
(0.000541898 0.000550346 0)
(0.000479189 0.00053304 0)
(0.000418099 0.000511267 0)
(0.000359115 0.000485044 0)
(0.000302733 0.000454442 0)
(0.000249461 0.000419587 0)
(0.000199819 0.000380667 0)
(0.000154333 0.000337946 0)
(0.000113541 0.000291763 0)
(7.79902e-05 0.000242546 0)
(4.82433e-05 0.000190815 0)
(2.4962e-05 0.000137187 0)
(9.00607e-06 8.23928e-05 0)
(6.84516e-07 2.72846e-05 0)
(7.66944e-07 -3.72706e-05 0)
(9.98367e-06 -0.000110235 0)
(2.75665e-05 -0.000180916 0)
(5.31069e-05 -0.000248613 0)
(8.55855e-05 -0.000312734 0)
(0.000124211 -0.000372789 0)
(0.000168313 -0.000428373 0)
(0.000217254 -0.000479168 0)
(0.000270419 -0.000524931 0)
(0.000327217 -0.000565494 0)
(0.000387084 -0.00060075 0)
(0.000449477 -0.000630651 0)
(0.000513877 -0.000655199 0)
(0.000579786 -0.000674442 0)
(0.000646727 -0.000688463 0)
(0.000714242 -0.00069738 0)
(0.000781897 -0.000701334 0)
(0.000849273 -0.000700493 0)
(0.000915976 -0.000695038 0)
(0.000981629 -0.000685167 0)
(0.00104588 -0.000671089 0)
(0.00110838 -0.00065302 0)
(0.00116882 -0.000631183 0)
(0.00122691 -0.000605802 0)
(0.00128235 -0.000577109 0)
(0.0013349 -0.000545331 0)
(0.0013843 -0.000510701 0)
(0.00143034 -0.000473446 0)
(0.0014728 -0.000433797 0)
(0.0015115 -0.000391981 0)
(0.00154627 -0.000348226 0)
(0.00157694 -0.000302759 0)
(0.00160339 -0.000255803 0)
(0.0016255 -0.000207586 0)
(0.00164315 -0.000158333 0)
(0.00165627 -0.00010827 0)
(0.00166479 -5.7625e-05 0)
(0.00166866 -6.62659e-06 0)
(0.00166784 4.44936e-05 0)
(0.00166233 9.55016e-05 0)
(0.00165213 0.00014616 0)
(0.00163726 0.00019623 0)
(0.00161777 0.000245465 0)
(0.00159373 0.000293619 0)
(0.00156522 0.00034044 0)
(0.00153235 0.000385672 0)
(0.00149526 0.000429057 0)
(0.00145409 0.000470333 0)
(0.00140902 0.000509235 0)
(0.00136025 0.000545498 0)
(0.00130801 0.000578855 0)
(0.00125255 0.00060904 0)
(0.00119413 0.00063579 0)
(0.00113306 0.000658843 0)
(0.00106965 0.000677947 0)
(0.00100425 0.000692855 0)
(0.000937229 0.000703332 0)
(0.00086898 0.000709157 0)
(0.000799917 0.000710126 0)
(0.000730477 0.000706056 0)
(0.000661119 0.000696789 0)
(0.00059232 0.000682196 0)
(0.000524578 0.000662182 0)
(0.000458411 0.000636694 0)
(0.000394352 0.000605721 0)
(0.000332953 0.000569305 0)
(0.000274783 0.000527545 0)
(0.000220428 0.000480603 0)
(0.000170492 0.00042871 0)
(0.000125596 0.000372175 0)
(8.63735e-05 0.000311386 0)
(5.34845e-05 0.000246817 0)
(2.76974e-05 0.000179031 0)
(9.99979e-06 0.000108691 0)
(7.60763e-07 3.65683e-05 0)
(8.32092e-07 -4.74329e-05 0)
(1.08096e-05 -0.000138883 0)
(2.98199e-05 -0.000226302 0)
(5.73954e-05 -0.000309086 0)
(9.24025e-05 -0.000386731 0)
(0.000133955 -0.000458826 0)
(0.000181298 -0.000525043 0)
(0.000233719 -0.000585131 0)
(0.000290533 -0.000638913 0)
(0.000351085 -0.000686277 0)
(0.000414758 -0.000727175 0)
(0.000480963 -0.000761611 0)
(0.000549141 -0.000789639 0)
(0.000618762 -0.000811354 0)
(0.000689323 -0.000826888 0)
(0.000760347 -0.000836405 0)
(0.000831383 -0.000840092 0)
(0.000902005 -0.000838158 0)
(0.000971809 -0.000830832 0)
(0.00104042 -0.000818352 0)
(0.00110747 -0.000800968 0)
(0.00117263 -0.000778937 0)
(0.00123559 -0.000752522 0)
(0.00129604 -0.000721988 0)
(0.00135372 -0.000687601 0)
(0.00140837 -0.000649629 0)
(0.00145975 -0.000608339 0)
(0.00150763 -0.000563994 0)
(0.00155182 -0.000516861 0)
(0.00159214 -0.000467201 0)
(0.0016284 -0.000415275 0)
(0.00166046 -0.000361344 0)
(0.00168817 -0.000305667 0)
(0.00171143 -0.000248503 0)
(0.00173012 -0.000190111 0)
(0.00174415 -0.000130753 0)
(0.00175345 -7.06891e-05 0)
(0.00175797 -1.01852e-05 0)
(0.00175767 5.04917e-05 0)
(0.00175252 0.000111071 0)
(0.00174252 0.000171277 0)
(0.0017277 0.00023083 0)
(0.00170808 0.000289447 0)
(0.00168373 0.000346837 0)
(0.00165471 0.000402706 0)
(0.00162112 0.000456755 0)
(0.0015831 0.00050868 0)
(0.00154078 0.000558172 0)
(0.00149432 0.00060492 0)
(0.00144393 0.000648608 0)
(0.00138982 0.000688921 0)
(0.00133223 0.000725542 0)
(0.00127144 0.000758158 0)
(0.00120773 0.000786458 0)
(0.00114143 0.000810135 0)
(0.0010729 0.000828895 0)
(0.00100251 0.000842452 0)
(0.00093065 0.000850535 0)
(0.000857767 0.000852891 0)
(0.00078431 0.000849291 0)
(0.000710762 0.000839529 0)
(0.00063763 0.000823432 0)
(0.000565447 0.000800863 0)
(0.00049477 0.000771724 0)
(0.000426179 0.000735964 0)
(0.000360279 0.000693583 0)
(0.000297697 0.000644639 0)
(0.000239088 0.000589253 0)
(0.000185126 0.000527614 0)
(0.000136512 0.000459982 0)
(9.39644e-05 0.000386699 0)
(5.82289e-05 0.000308185 0)
(3.01726e-05 0.000224944 0)
(1.08986e-05 0.000137572 0)
(8.29673e-07 4.67688e-05 0)
(8.90772e-07 -5.83515e-05 0)
(1.15363e-05 -0.000169626 0)
(3.17875e-05 -0.000274945 0)
(6.11188e-05 -0.000373799 0)
(9.82908e-05 -0.000465779 0)
(0.000142329 -0.000550561 0)
(0.000192404 -0.000627903 0)
(0.00024773 -0.000697637 0)
(0.000307561 -0.000759663 0)
(0.000371186 -0.000813945 0)
(0.00043794 -0.000860505 0)
(0.000507192 -0.000899416 0)
(0.000578352 -0.000930797 0)
(0.000650862 -0.000954806 0)
(0.000724199 -0.000971634 0)
(0.000797874 -0.000981501 0)
(0.000871426 -0.000984651 0)
(0.000944423 -0.000981345 0)
(0.00101646 -0.000971861 0)
(0.00108717 -0.000956487 0)
(0.00115618 -0.000935518 0)
(0.00122319 -0.000909256 0)
(0.00128786 -0.000878006 0)
(0.00134994 -0.000842073 0)
(0.00140913 -0.000801763 0)
(0.00146521 -0.00075738 0)
(0.00151794 -0.000709226 0)
(0.00156711 -0.000657601 0)
(0.00161253 -0.000602803 0)
(0.00165401 -0.000545126 0)
(0.00169139 -0.000484864 0)
(0.00172452 -0.000422307 0)
(0.00175327 -0.000357746 0)
(0.00177751 -0.00029147 0)
(0.00179714 -0.00022377 0)
(0.00181206 -0.000154937 0)
(0.0018222 -8.52658e-05 0)
(0.0018275 -1.50531e-05 0)
(0.0018279 5.54002e-05 0)
(0.00182339 0.000125788 0)
(0.00181393 0.0001958 0)
(0.00179954 0.000265119 0)
(0.00178025 0.000333421 0)
(0.00175608 0.000400376 0)
(0.0017271 0.000465648 0)
(0.00169341 0.000528892 0)
(0.00165509 0.000589759 0)
(0.00161229 0.000647893 0)
(0.00156516 0.000702932 0)
(0.00151387 0.000754511 0)
(0.00145863 0.000802262 0)
(0.00139967 0.000845815 0)
(0.00133727 0.000884801 0)
(0.0012717 0.000918854 0)
(0.00120328 0.000947612 0)
(0.00113237 0.000970721 0)
(0.00105935 0.000987841 0)
(0.000984622 0.000998641 0)
(0.000908633 0.00100281 0)
(0.000831853 0.00100007 0)
(0.000754786 0.000990154 0)
(0.000677967 0.00097283 0)
(0.000601959 0.000947909 0)
(0.000527358 0.000915237 0)
(0.000454789 0.000874709 0)
(0.000384908 0.000826273 0)
(0.000318402 0.000769931 0)
(0.000255985 0.000705751 0)
(0.000198406 0.000633866 0)
(0.000146438 0.000554482 0)
(0.000100879 0.000467881 0)
(6.25583e-05 0.000374424 0)
(3.24358e-05 0.000274554 0)
(1.17227e-05 0.000168803 0)
(8.93376e-07 5.78051e-05 0)
(9.4394e-07 -6.99359e-05 0)
(1.21699e-05 -0.000202189 0)
(3.34804e-05 -0.000326385 0)
(6.42893e-05 -0.000442117 0)
(0.000103256 -0.000549074 0)
(0.000149325 -0.000647032 0)
(0.000201592 -0.000735848 0)
(0.000259211 -0.000815447 0)
(0.000321377 -0.000885825 0)
(0.000387332 -0.000947036 0)
(0.000456368 -0.000999187 0)
(0.000527822 -0.00104244 0)
(0.000601077 -0.00107698 0)
(0.000675557 -0.00110305 0)
(0.000750728 -0.00112091 0)
(0.000826092 -0.00113086 0)
(0.000901187 -0.00113319 0)
(0.000975586 -0.00112823 0)
(0.00104889 -0.00111632 0)
(0.00112074 -0.0010978 0)
(0.00119079 -0.00107301 0)
(0.00125872 -0.0010423 0)
(0.00132425 -0.00100602 0)
(0.0013871 -0.000964529 0)
(0.00144703 -0.000918156 0)
(0.0015038 -0.000867248 0)
(0.00155721 -0.00081214 0)
(0.00160705 -0.000753166 0)
(0.00165315 -0.000690652 0)
(0.00169532 -0.000624923 0)
(0.00173342 -0.0005563 0)
(0.00176731 -0.000485101 0)
(0.00179684 -0.000411643 0)
(0.00182191 -0.000336243 0)
(0.0018424 -0.000259217 0)
(0.00185822 -0.000180884 0)
(0.00186928 -0.000101567 0)
(0.00187552 -2.15891e-05 0)
(0.00187687 5.8717e-05 0)
(0.00187329 0.000139015 0)
(0.00186476 0.00021896 0)
(0.00185126 0.0002982 0)
(0.0018328 0.000376376 0)
(0.0018094 0.000453118 0)
(0.00178109 0.000528048 0)
(0.00174796 0.000600779 0)
(0.00171007 0.000670914 0)
(0.00166755 0.000738049 0)
(0.00162051 0.000801773 0)
(0.00156914 0.000861666 0)
(0.0015136 0.000917306 0)
(0.00145413 0.000968265 0)
(0.00139096 0.00101412 0)
(0.00132438 0.00105443 0)
(0.00125469 0.00108878 0)
(0.00118225 0.00111676 0)
(0.00110742 0.00113795 0)
(0.00103063 0.00115197 0)
(0.000952319 0.00115843 0)
(0.000872975 0.00115699 0)
(0.000793119 0.0011473 0)
(0.000713308 0.00112909 0)
(0.000634137 0.00110208 0)
(0.000556236 0.00106607 0)
(0.000480273 0.00102086 0)
(0.000406954 0.000966359 0)
(0.000337019 0.000902488 0)
(0.000271245 0.00082925 0)
(0.000210448 0.000746714 0)
(0.000155475 0.000655019 0)
(0.000107199 0.000554381 0)
(6.6532e-05 0.000445097 0)
(3.45223e-05 0.000327545 0)
(1.24867e-05 0.000202194 0)
(9.53513e-07 6.96137e-05 0)
(9.91851e-07 -8.20978e-05 0)
(1.27086e-05 -0.000236296 0)
(3.48889e-05 -0.000380156 0)
(6.68808e-05 -0.000513379 0)
(0.000107247 -0.000635768 0)
(0.000154849 -0.000747213 0)
(0.00020872 -0.00084768 0)
(0.000267953 -0.00093721 0)
(0.000331693 -0.00101591 0)
(0.000399143 -0.00108393 0)
(0.000469559 -0.00114149 0)
(0.000542255 -0.00118884 0)
(0.000616597 -0.00122627 0)
(0.000692 -0.00125411 0)
(0.000767924 -0.0012727 0)
(0.000843877 -0.00128242 0)
(0.000919404 -0.00128364 0)
(0.00099409 -0.00127676 0)
(0.00106755 -0.00126217 0)
(0.00113945 -0.00124027 0)
(0.00120946 -0.00121148 0)
(0.00127729 -0.00117618 0)
(0.00134267 -0.00113477 0)
(0.00140536 -0.00108764 0)
(0.00146513 -0.00103518 0)
(0.00152178 -0.000977749 0)
(0.0015751 -0.000915729 0)
(0.00162493 -0.000849475 0)
(0.0016711 -0.000779344 0)
(0.00171345 -0.000705684 0)
(0.00175184 -0.000628839 0)
(0.00178613 -0.000549149 0)
(0.0018162 -0.000466953 0)
(0.00184193 -0.000382588 0)
(0.00186321 -0.000296391 0)
(0.00187994 -0.000208703 0)
(0.00189204 -0.000119867 0)
(0.00189942 -3.02341e-05 0)
(0.00190201 5.98414e-05 0)
(0.00189975 0.000149996 0)
(0.0018926 0.000239855 0)
(0.00188052 0.000329037 0)
(0.00186349 0.000417148 0)
(0.00184152 0.00050378 0)
(0.00181461 0.000588518 0)
(0.00178282 0.000670931 0)
(0.00174619 0.000750577 0)
(0.00170481 0.000827003 0)
(0.00165878 0.000899745 0)
(0.00160825 0.00096833 0)
(0.00155336 0.00103228 0)
(0.00149433 0.0010911 0)
(0.00143137 0.0011443 0)
(0.00136475 0.00119138 0)
(0.00129476 0.00123187 0)
(0.00122173 0.00126526 0)
(0.00114604 0.00129107 0)
(0.0010681 0.00130884 0)
(0.000988351 0.00131812 0)
(0.000907296 0.00131847 0)
(0.000825465 0.00130949 0)
(0.000743437 0.00129079 0)
(0.000661832 0.00126205 0)
(0.000581314 0.00122296 0)
(0.000502591 0.00117327 0)
(0.000426412 0.00111278 0)
(0.000353573 0.00104135 0)
(0.000284911 0.000958894 0)
(0.000221305 0.00086541 0)
(0.000163676 0.000760959 0)
(0.000112972 0.000645683 0)
(7.01851e-05 0.000519806 0)
(3.64536e-05 0.000383636 0)
(1.32002e-05 0.000237579 0)
(1.01121e-06 8.21428e-05 0)
(1.03411e-06 -9.47441e-05 0)
(1.31426e-05 -0.000271651 0)
(3.59819e-05 -0.000435748 0)
(6.88271e-05 -0.000586863 0)
(0.000110145 -0.000724926 0)
(0.000158721 -0.000849959 0)
(0.000213524 -0.00096206 0)
(0.000273596 -0.0010614 0)
(0.000338038 -0.00114821 0)
(0.00040602 -0.00122277 0)
(0.000476776 -0.00128541 0)
(0.000549604 -0.00133651 0)
(0.000623863 -0.00137647 0)
(0.000698971 -0.00140571 0)
(0.000774396 -0.00142467 0)
(0.000849659 -0.00143382 0)
(0.000924325 -0.00143362 0)
(0.000998003 -0.00142454 0)
(0.00107034 -0.00140704 0)
(0.00114102 -0.00138161 0)
(0.00120975 -0.00134868 0)
(0.00127628 -0.00130872 0)
(0.00134037 -0.00126217 0)
(0.0014018 -0.00120946 0)
(0.0014604 -0.001151 0)
(0.00151596 -0.0010872 0)
(0.00156835 -0.00101846 0)
(0.00161739 -0.000945164 0)
(0.00166294 -0.000867689 0)
(0.00170488 -0.000786401 0)
(0.00174306 -0.000701661 0)
(0.00177738 -0.000613825 0)
(0.0018077 -0.000523244 0)
(0.00183393 -0.000430271 0)
(0.00185594 -0.000335255 0)
(0.00187363 -0.000238553 0)
(0.00188691 -0.000140522 0)
(0.00189569 -4.153e-05 0)
(0.00189987 5.80501e-05 0)
(0.00189937 0.000157833 0)
(0.00189414 0.000257423 0)
(0.0018841 0.00035641 0)
(0.00186922 0.000454369 0)
(0.00184946 0.000550864 0)
(0.00182481 0.000645438 0)
(0.00179527 0.000737622 0)
(0.00176086 0.000826928 0)
(0.00172164 0.000912856 0)
(0.00167768 0.000994887 0)
(0.00162907 0.00107249 0)
(0.00157594 0.00114513 0)
(0.00151847 0.00121224 0)
(0.00145685 0.00127327 0)
(0.00139132 0.00132765 0)
(0.00132214 0.00137481 0)
(0.00124963 0.00141419 0)
(0.00117415 0.00144522 0)
(0.00109611 0.00146734 0)
(0.00101594 0.00148003 0)
(0.000934152 0.00148275 0)
(0.000851277 0.00147502 0)
(0.000767912 0.00145635 0)
(0.000684698 0.00142633 0)
(0.00060233 0.00138455 0)
(0.00052155 0.00133067 0)
(0.000443152 0.00126439 0)
(0.000367983 0.00118549 0)
(0.000296937 0.00109379 0)
(0.00023096 0.000989186 0)
(0.00017104 0.000871663 0)
(0.000118205 0.000741274 0)
(7.35274e-05 0.000598163 0)
(3.82379e-05 0.000442564 0)
(1.38675e-05 0.000274811 0)
(1.06711e-06 9.53475e-05 0)
(1.06967e-06 -0.000107768 0)
(1.34542e-05 -0.000307917 0)