/*--------------------------------*- C++ -*----------------------------------*\
  =========                 |
  \\      /  F ield         | OpenFOAM: The Open Source CFD Toolbox
   \\    /   O peration     | Website:  https://openfoam.org
    \\  /    A nd           | Version:  12
     \\/     M anipulation  |
\*---------------------------------------------------------------------------*/
FoamFile
{
    format      ascii;
    class       volScalarField;
    location    "1.5";
    object      epsilon;
}
// * * * * * * * * * * * * * * * * * * * * * * * * * * * * * * * * * * * * * //

dimensions      [0 2 -3 0 0 0 0];

internalField   nonuniform List<scalar> 
5625
(
1.01117e-06
5.04809e-06
1.10155e-05
1.81212e-05
2.59892e-05
3.43808e-05
4.31164e-05
5.20504e-05
6.10606e-05
7.00433e-05
7.89114e-05
8.75922e-05
9.60276e-05
0.000104173
0.000111995
0.000119476
0.000126605
0.000133382
0.000139814
0.000145916
0.000151702
0.000157191
0.000162401
0.000167348
0.000172045
0.000176501
0.000180718
0.000184697
0.000188428
0.0001919
0.000195094
0.000197989
0.000200558
0.000202771
0.000204596
0.000206
0.000206945
0.000207394
0.000207343
0.000206746
0.000205576
0.000203813
0.00020144
0.000198451
0.000194844
0.000190625
0.00018581
0.000180422
0.000174493
0.000168061
0.000161174
0.000153885
0.000146251
0.000138336
0.000130204
0.000121921
0.000113553
0.000105165
9.6816e-05
8.85634e-05
8.0458e-05
7.25451e-05
6.48633e-05
5.74451e-05
5.03171e-05
4.35005e-05
3.70137e-05
3.08708e-05
2.50872e-05
1.96823e-05
1.46837e-05
1.01363e-05
6.11942e-06
2.7935e-06
5.59033e-07
5.05411e-06
4.11711e-06
6.1766e-06
9.21595e-06
1.27665e-05
1.66313e-05
2.06946e-05
2.4874e-05
2.9105e-05
3.33346e-05
3.75192e-05
4.16228e-05
4.56165e-05
4.9478e-05
5.31915e-05
5.67464e-05
6.01377e-05
6.33645e-05
6.64295e-05
6.93382e-05
7.20977e-05
7.47159e-05
7.72008e-05
7.95595e-05
8.17975e-05
8.39185e-05
8.59241e-05
8.7813e-05
8.95817e-05
9.1224e-05
9.27314e-05
9.40934e-05
9.52975e-05
9.63297e-05
9.71753e-05
9.78184e-05
9.82422e-05
9.84306e-05
9.83799e-05
9.80704e-05
9.74901e-05
9.66295e-05
9.54821e-05
9.40448e-05
9.23175e-05
9.0304e-05
8.80119e-05
8.54525e-05
8.26408e-05
7.95954e-05
7.63383e-05
7.2894e-05
6.92899e-05
6.55548e-05
6.17187e-05
5.78125e-05
5.38663e-05
4.991e-05
4.59716e-05
4.20774e-05
3.82513e-05
3.45145e-05
3.08854e-05
2.73796e-05
2.40103e-05
2.07883e-05
1.77235e-05
1.48244e-05
1.2101e-05
9.56713e-06
7.2444e-06
5.1725e-06
3.43717e-06
2.27719e-06
2.79175e-06
1.10824e-05
6.21896e-06
6.36429e-06
7.86378e-06
9.98685e-06
1.24617e-05
1.51508e-05
1.79694e-05
2.08576e-05
2.37699e-05
2.66703e-05
2.95296e-05
3.23249e-05
3.50381e-05
3.76561e-05
4.017e-05
4.25744e-05
4.48676e-05
4.705e-05
4.91243e-05
5.10943e-05
5.29646e-05
5.47398e-05
5.64241e-05
5.80206e-05
5.95313e-05
6.09566e-05
6.22953e-05
6.35445e-05
6.46995e-05
6.57544e-05
6.67015e-05
6.75323e-05
6.82373e-05
6.88062e-05
6.92288e-05
6.94922e-05
6.95886e-05
6.95141e-05
6.92563e-05
6.88078e-05
6.81631e-05
6.73187e-05
6.62732e-05
6.50276e-05
6.35852e-05
6.1952e-05
6.01363e-05
5.8149e-05
5.60031e-05
5.37139e-05
5.12983e-05
4.87748e-05
4.61631e-05
4.34836e-05
4.07568e-05
3.80034e-05
3.52433e-05
3.24957e-05
2.97784e-05
2.71079e-05
2.44991e-05
2.1965e-05
1.95173e-05
1.71661e-05
1.49209e-05
1.27907e-05
1.07855e-05
8.91801e-06
7.20726e-06
5.68536e-06
4.41371e-06
3.52896e-06
3.42274e-06
6.09943e-06
1.83843e-05
9.37e-06
7.95951e-06
8.40435e-06
9.65926e-06
1.13596e-05
1.3331e-05
1.54725e-05
1.77172e-05
2.00167e-05
2.23341e-05
2.46403e-05
2.69122e-05
2.91321e-05
3.12861e-05
3.33648e-05
3.53615e-05
3.72729e-05
3.90977e-05
4.08365e-05
4.2491e-05
4.40638e-05
4.55575e-05
4.69745e-05
4.83165e-05
4.95844e-05
5.07779e-05
5.18953e-05
5.2934e-05
5.38898e-05
5.47575e-05
5.55311e-05
5.62034e-05
5.6767e-05
5.72139e-05
5.75361e-05
5.77214e-05
5.77687e-05
5.76721e-05
5.74231e-05
5.70166e-05
5.64491e-05
5.57184e-05
5.48242e-05
5.37681e-05
5.25535e-05
5.11858e-05
4.96721e-05
4.80216e-05
4.62453e-05
4.43554e-05
4.23658e-05
4.02914e-05
3.81479e-05
3.59515e-05
3.37189e-05
3.14663e-05
2.92097e-05
2.69645e-05
2.47451e-05
2.2565e-05
2.04365e-05
1.83709e-05
1.63786e-05
1.44695e-05
1.26533e-05
1.09406e-05
9.34444e-06
7.88248e-06
6.5819e-06
5.48864e-06
4.68951e-06
4.37732e-06
5.11898e-06
1.00538e-05
2.66816e-05
1.31435e-05
1.0257e-05
9.81648e-06
1.04043e-05
1.15521e-05
1.30434e-05
1.47568e-05
1.66147e-05
1.85623e-05
2.05585e-05
2.25712e-05
2.45752e-05
2.65506e-05
2.84818e-05
3.03573e-05
3.21689e-05
3.39113e-05
3.55813e-05
3.71779e-05
3.8701e-05
4.01516e-05
4.15308e-05
4.28398e-05
4.40792e-05
4.52491e-05
4.63486e-05
4.73758e-05
4.83278e-05
4.92007e-05
4.99898e-05
5.06895e-05
5.12936e-05
5.17957e-05
5.21889e-05
5.24665e-05
5.26156e-05
5.26407e-05
5.25338e-05
5.22882e-05
5.18997e-05
5.13657e-05
5.06847e-05
4.98567e-05
4.88835e-05
4.77683e-05
4.65163e-05
4.51341e-05
4.36301e-05
4.20141e-05
4.02975e-05
3.84927e-05
3.66133e-05
3.46735e-05
3.2688e-05
3.06717e-05
2.86396e-05
2.66061e-05
2.45852e-05
2.25902e-05
2.06335e-05
1.87268e-05
1.68809e-05
1.51064e-05
1.34136e-05
1.18137e-05
1.03197e-05
8.94804e-06
7.72206e-06
6.67734e-06
5.87387e-06
5.42489e-06
5.58199e-06
7.11196e-06
1.44588e-05
3.58413e-05
1.73894e-05
1.30132e-05
1.17557e-05
1.1772e-05
1.24744e-05
1.36016e-05
1.50106e-05
1.66102e-05
1.83365e-05
2.01433e-05
2.19944e-05
2.38607e-05
2.57192e-05
2.75516e-05
2.9344e-05
3.10859e-05
3.27697e-05
3.43907e-05
3.59459e-05
3.74339e-05
3.88542e-05
4.02069e-05
4.14922e-05
4.27099e-05
4.38594e-05
4.49395e-05
4.59478e-05
4.68815e-05
4.77368e-05
4.85091e-05
4.9193e-05
4.97829e-05
5.02728e-05
5.06562e-05
5.0927e-05
5.10721e-05
5.10977e-05
5.09965e-05
5.07609e-05
5.03872e-05
4.98725e-05
4.92153e-05
4.84156e-05
4.74748e-05
4.63959e-05
4.51836e-05
4.38443e-05
4.2386e-05
4.08183e-05
3.91524e-05
3.74005e-05
3.55761e-05
3.36934e-05
3.17672e-05
2.98125e-05
2.78443e-05
2.58772e-05
2.39254e-05
2.20024e-05
2.01209e-05
1.8293e-05
1.65302e-05
1.48437e-05
1.32453e-05
1.17477e-05
1.03665e-05
9.12183e-06
8.04239e-06
7.17241e-06
6.58592e-06
6.42214e-06
6.99666e-06
9.29901e-06
1.91952e-05
4.57915e-05
2.20407e-05
1.61208e-05
1.40679e-05
1.35629e-05
1.38825e-05
1.47144e-05
1.58902e-05
1.73059e-05
1.88899e-05
2.05883e-05
2.23589e-05
2.4168e-05
2.59888e-05
2.77995e-05
2.95832e-05
3.13269e-05
3.30209e-05
3.46584e-05
3.62349e-05
3.77477e-05
3.91953e-05
4.05767e-05
4.18914e-05
4.31387e-05
4.43177e-05
4.54267e-05
4.64635e-05
4.7425e-05
4.83075e-05
4.91063e-05
4.98165e-05
5.04323e-05
5.09477e-05
5.13566e-05
5.16527e-05
5.18231e-05
5.18703e-05
5.17915e-05
5.15769e-05
5.12221e-05
5.07238e-05
5.00797e-05
4.92892e-05
4.83531e-05
4.72737e-05
4.60554e-05
4.47043e-05
4.32283e-05
4.16373e-05
3.99426e-05
3.81573e-05
3.62956e-05
3.43728e-05
3.24048e-05
3.04079e-05
2.83985e-05
2.63924e-05
2.44053e-05
2.24519e-05
2.05461e-05
1.87012e-05
1.693e-05
1.52451e-05
1.36598e-05
1.21889e-05
1.08505e-05
9.66843e-06
8.67684e-06
7.92803e-06
7.50988e-06
7.58928e-06
8.55081e-06
1.16232e-05
2.41786e-05
5.64907e-05
2.70627e-05
1.95258e-05
1.66743e-05
1.56728e-05
1.56476e-05
1.62297e-05
1.72239e-05
1.85103e-05
2.00066e-05
2.16509e-05
2.33955e-05
2.52019e-05
2.70385e-05
2.88801e-05
3.07063e-05
3.25013e-05
3.4253e-05
3.59528e-05
3.75946e-05
3.91745e-05
4.06899e-05
4.21394e-05
4.35218e-05
4.48363e-05
4.60815e-05
4.72558e-05
4.83569e-05
4.93817e-05
5.03264e-05
5.11866e-05
5.19571e-05
5.26321e-05
5.32053e-05
5.36702e-05
5.402e-05
5.42435e-05
5.43333e-05
5.42959e-05
5.41169e-05
5.37909e-05
5.33133e-05
5.26807e-05
5.18912e-05
5.09446e-05
4.98426e-05
4.85887e-05
4.71889e-05
4.56512e-05
4.39857e-05
4.22048e-05
4.03227e-05
3.8355e-05
3.63191e-05
3.42327e-05
3.21146e-05
2.99832e-05
2.7857e-05
2.57537e-05
2.36902e-05
2.16827e-05
1.97464e-05
1.78958e-05
1.61453e-05
1.45102e-05
1.30075e-05
1.1658e-05
1.04891e-05
9.54009e-06
8.87131e-06
8.58479e-06
8.87627e-06
1.02037e-05
1.40471e-05
2.93445e-05
6.79143e-05
3.2436e-05
2.31982e-05
1.95308e-05
1.80414e-05
1.76961e-05
1.80598e-05
1.89087e-05
2.01058e-05
2.15568e-05
2.31918e-05
2.49558e-05
2.68044e-05
2.87011e-05
3.06163e-05
3.2526e-05
3.44115e-05
3.62583e-05
3.80558e-05
3.97966e-05
4.14758e-05
4.309e-05
4.46374e-05
4.61166e-05
4.75266e-05
4.88662e-05
5.01337e-05
5.1327e-05
5.2443e-05
5.34779e-05
5.44273e-05
5.52857e-05
5.60471e-05
5.67047e-05
5.72511e-05
5.76785e-05
5.79784e-05
5.8133e-05
5.8153e-05
5.80252e-05
5.77395e-05
5.72898e-05
5.66709e-05
5.58795e-05
5.4914e-05
5.37748e-05
5.24651e-05
5.09902e-05
4.93583e-05
4.75802e-05
4.56694e-05
4.36415e-05
4.15144e-05
3.93077e-05
3.7042e-05
3.4739e-05
3.24203e-05
3.01074e-05
2.78214e-05
2.55821e-05
2.34083e-05
2.13181e-05
1.93282e-05
1.74556e-05
1.57175e-05
1.41335e-05
1.2727e-05
1.15291e-05
1.05841e-05
9.96059e-06
9.7749e-06
1.02531e-05
1.19294e-05
1.65439e-05
3.46433e-05
8.00463e-05
3.81485e-05
2.712e-05
2.261e-05
2.06327e-05
1.99821e-05
2.01503e-05
2.08826e-05
2.20222e-05
2.34624e-05
2.51235e-05
2.69429e-05
2.88694e-05
3.08611e-05
3.28836e-05
3.49092e-05
3.6916e-05
3.88871e-05
4.08101e-05
4.26764e-05
4.448e-05
4.62174e-05
4.78864e-05
4.94858e-05
5.10145e-05
5.24717e-05
5.38559e-05
5.51652e-05
5.63966e-05
5.75464e-05
5.86098e-05
5.95813e-05
6.0454e-05
6.12206e-05
6.18727e-05
6.24011e-05
6.27965e-05
6.30421e-05
6.31323e-05
6.30706e-05
6.28373e-05
6.24239e-05
6.18234e-05
6.10304e-05
6.00417e-05
5.88566e-05
5.74772e-05
5.59085e-05
5.41588e-05
5.22394e-05
5.01652e-05
4.79535e-05
4.56245e-05
4.32006e-05
4.07058e-05
3.81652e-05
3.56043e-05
3.30485e-05
3.05225e-05
2.80501e-05
2.56536e-05
2.33542e-05
2.11719e-05
1.91262e-05
1.72372e-05
1.55268e-05
1.40217e-05
1.27563e-05
1.17803e-05
1.11708e-05
1.10583e-05
1.17005e-05
1.37105e-05
1.90941e-05
4.00377e-05
9.28742e-05
4.41914e-05
3.1279e-05
2.58946e-05
2.3423e-05
2.24755e-05
2.24659e-05
2.31045e-05
2.42137e-05
2.56725e-05
2.73904e-05
2.9296e-05
3.13311e-05
3.34476e-05
3.56061e-05
3.77747e-05
3.99284e-05
4.20479e-05
4.4119e-05
4.61321e-05
4.80807e-05
4.9961e-05
5.17709e-05
5.35094e-05
5.5176e-05
5.67701e-05
5.82907e-05
5.97361e-05
6.11035e-05
6.23891e-05
6.35881e-05
6.46943e-05
6.57002e-05
6.65973e-05
6.7376e-05
6.80256e-05
6.85348e-05
6.88912e-05
6.90683e-05
6.90837e-05
6.89144e-05
6.85463e-05
6.797e-05
6.71781e-05
6.61657e-05
6.49304e-05
6.34732e-05
6.17987e-05
5.9915e-05
5.78341e-05
5.55718e-05
5.31474e-05
5.05836e-05
4.79058e-05
4.51414e-05
4.23195e-05
3.94699e-05
3.66224e-05
3.38063e-05
3.10498e-05
2.83794e-05
2.58203e-05
2.33962e-05
2.11299e-05
1.90446e-05
1.71654e-05
1.55218e-05
1.41524e-05
1.3112e-05
1.24868e-05
1.24215e-05
1.32066e-05
1.55353e-05
2.16843e-05
4.5501e-05
0.000106386
5.05571e-05
3.56662e-05
2.9372e-05
2.63963e-05
2.51551e-05
2.49823e-05
2.55465e-05
2.66488e-05
2.8152e-05
2.99539e-05
3.19732e-05
3.41439e-05
3.64112e-05
3.87304e-05
4.10653e-05
4.33874e-05
4.56753e-05
4.79133e-05
5.00907e-05
5.22008e-05
5.42399e-05
5.62063e-05
5.80994e-05
5.99194e-05
6.16662e-05
6.33394e-05
6.49376e-05
6.64582e-05
6.78973e-05
6.92497e-05
7.05086e-05
7.16657e-05
7.27113e-05
7.36341e-05
7.44219e-05
7.50612e-05
7.55386e-05
7.58266e-05
7.59233e-05
7.58295e-05
7.55158e-05
7.49709e-05
7.41852e-05
7.31516e-05
7.18662e-05
7.03288e-05
6.8543e-05
6.65166e-05
6.4262e-05
6.17959e-05
5.91392e-05
5.63169e-05
5.33573e-05
5.02916e-05
4.71528e-05
4.39755e-05
4.07944e-05
3.76438e-05
3.45569e-05
3.15655e-05
2.86993e-05
2.59865e-05
2.34539e-05
2.11283e-05
1.90385e-05
1.72175e-05
1.5708e-05
1.45704e-05
1.39003e-05
1.38569e-05
1.47641e-05
1.73969e-05
2.43059e-05
5.10163e-05
0.000120567
5.72376e-05
4.02734e-05
3.30324e-05
2.95402e-05
2.80065e-05
2.76818e-05
2.81885e-05
2.93047e-05
3.08757e-05
3.27859e-05
3.49437e-05
3.72741e-05
3.97153e-05
4.22167e-05
4.47376e-05
4.72465e-05
4.97194e-05
5.21394e-05
5.44952e-05
5.67799e-05
5.89904e-05
6.11253e-05
6.31852e-05
6.51707e-05
6.70827e-05
6.89213e-05
7.06853e-05
7.23724e-05
7.39787e-05
7.54984e-05
7.6924e-05
7.82462e-05
7.94538e-05
8.05341e-05
8.14728e-05
8.22546e-05
8.28636e-05
8.32767e-05
8.34637e-05
8.34533e-05
8.32031e-05
8.26978e-05
8.19254e-05
8.08769e-05
7.95464e-05
7.79321e-05
7.60365e-05
7.38667e-05
7.1435e-05
6.87584e-05
6.58592e-05
6.27641e-05
5.95043e-05
5.61142e-05
5.26313e-05
4.90946e-05
4.55443e-05
4.20201e-05
3.85612e-05
3.52049e-05
3.19866e-05
2.89396e-05
2.60958e-05
2.34864e-05
2.11441e-05
1.91063e-05
1.74203e-05
1.61523e-05
1.54081e-05
1.53613e-05
1.63701e-05
1.92922e-05
2.69552e-05
5.65763e-05
0.000135399
6.42234e-05
4.50923e-05
3.68669e-05
3.28443e-05
3.10183e-05
3.05507e-05
3.10149e-05
3.21638e-05
3.38238e-05
3.58648e-05
3.81834e-05
4.06951e-05
4.33304e-05
4.60326e-05
4.87566e-05
5.14672e-05
5.41386e-05
5.67525e-05
5.92974e-05
6.17667e-05
6.41576e-05
6.64701e-05
6.87053e-05
7.0865e-05
7.29509e-05
7.49637e-05
7.69027e-05
7.87657e-05
8.05484e-05
8.22447e-05
8.38462e-05
8.53425e-05
8.67209e-05
8.79672e-05
8.90651e-05
8.99975e-05
9.07457e-05
9.12894e-05
9.15864e-05
9.16573e-05
9.14806e-05
9.10246e-05
9.02753e-05
8.92217e-05
8.78561e-05
8.61745e-05
8.4178e-05
8.18725e-05
7.92693e-05
7.63855e-05
7.32436e-05
6.98718e-05
6.63033e-05
6.25756e-05
5.87298e-05
5.481e-05
5.08616e-05
4.69304e-05
4.30619e-05
3.93e-05
3.56865e-05
3.22611e-05
2.90613e-05
2.6124e-05
2.34868e-05
2.1192e-05
1.9292e-05
1.78595e-05
1.70111e-05
1.69351e-05
1.80244e-05
2.12212e-05
2.96326e-05
6.21818e-05
0.000150859
7.15026e-05
5.01139e-05
4.08669e-05
3.62998e-05
3.41804e-05
3.35779e-05
3.40129e-05
3.52118e-05
3.69803e-05
3.91723e-05
4.16717e-05
4.43839e-05
4.7231e-05
5.01501e-05
5.3091e-05
5.60154e-05
5.88955e-05
6.17122e-05
6.44537e-05
6.7114e-05
6.96913e-05
7.21865e-05
7.46021e-05
7.69409e-05
7.92054e-05
8.13971e-05
8.35157e-05
8.5559e-05
8.75225e-05
8.93995e-05
9.11808e-05
9.28548e-05
9.44076e-05
9.58233e-05
9.70839e-05
9.81707e-05
9.90628e-05
9.97386e-05
0.000100158
0.000100313
0.000100218
9.98222e-05
9.91083e-05
9.80635e-05
9.66778e-05
9.49452e-05
9.28645e-05
9.04398e-05
8.76807e-05
8.46033e-05
8.12296e-05
7.75881e-05
7.37133e-05
6.96449e-05
6.54274e-05
6.11093e-05
5.67413e-05
5.23757e-05
4.80648e-05
4.38598e-05
3.98102e-05
3.59629e-05
3.23626e-05
2.90526e-05
2.60767e-05
2.3483e-05
2.133e-05
1.96976e-05
1.87134e-05
1.85815e-05
1.97301e-05
2.31868e-05
3.23417e-05
6.78408e-05
0.000166915
7.90606e-05
5.53274e-05
4.50232e-05
3.98977e-05
3.74838e-05
3.67533e-05
3.71713e-05
3.84359e-05
4.03304e-05
4.26916e-05
4.53898e-05
4.83192e-05
5.13933e-05
5.45423e-05
5.77112e-05
6.08585e-05
6.39546e-05
6.69795e-05
6.99218e-05
7.27762e-05
7.5542e-05
7.82215e-05
8.08185e-05
8.3337e-05
8.57806e-05
8.81512e-05
9.0449e-05
9.26719e-05
9.48151e-05
9.68713e-05
9.88305e-05
0.00010068
0.000102405
0.000103988
0.000105409
0.000106649
0.000107685
0.000108494
0.000109042
0.000109287
0.000109281
0.000108956
0.000108293
0.000107274
0.000105889
0.000104128
0.000101988
9.9469e-05
9.65796e-05
9.33331e-05
8.97499e-05
8.58576e-05
8.16906e-05
7.72899e-05
7.27026e-05
6.79808e-05
6.31804e-05
5.83601e-05
5.35796e-05
4.88983e-05
4.43741e-05
4.00627e-05
3.60171e-05
3.22887e-05
2.89288e-05
2.59926e-05
2.35455e-05
2.16755e-05
2.05225e-05
2.03069e-05
2.14926e-05
2.51945e-05
3.50899e-05
7.35683e-05
0.000183529
8.68794e-05
6.07206e-05
4.93258e-05
4.36288e-05
4.09192e-05
4.00669e-05
4.0479e-05
4.18235e-05
4.38598e-05
4.64064e-05
4.9319e-05
5.24799e-05
5.57933e-05
5.91825e-05
6.25875e-05
6.59637e-05
6.92795e-05
7.25149e-05
7.56587e-05
7.87065e-05
8.16593e-05
8.45207e-05
8.72959e-05
8.99904e-05
9.26085e-05
9.5153e-05
9.76244e-05
0.000100021
0.000102336
0.000104564
0.000106694
0.00010871
0.000110599
0.000112341
0.000113917
0.000115305
0.00011648
0.000117419
0.000118095
0.00011845
0.000118527
0.000118287
0.000117691
0.00011672
0.00011536
0.000113599
0.000111431
0.000108853
0.000105868
0.000102488
9.87293e-05
9.46172e-05
9.01847e-05
8.54727e-05
8.05294e-05
7.54097e-05
7.01741e-05
6.48875e-05
5.96171e-05
5.44312e-05
4.93974e-05
4.45814e-05
4.00463e-05
3.5853e-05
3.20622e-05
2.87375e-05
2.59529e-05
2.38057e-05
2.24483e-05
2.21197e-05
2.33195e-05
2.72522e-05
3.78871e-05
7.93856e-05
0.000200656
9.49375e-05
6.62787e-05
5.37631e-05
4.7483e-05
4.44769e-05
4.35085e-05
4.39247e-05
4.53617e-05
4.75537e-05
5.02997e-05
5.34397e-05
5.68437e-05
6.0406e-05
6.40427e-05
6.76887e-05
7.12964e-05
7.48327e-05
7.82772e-05
8.16194e-05
8.48564e-05
8.79905e-05
9.10271e-05
9.3973e-05
9.68348e-05
9.96181e-05
0.000102326
0.00010496
0.000107517
0.000109993
0.000112379
0.000114664
0.000116835
0.000118873
0.000120762
0.00012248
0.000124005
0.000125313
0.000126379
0.000127177
0.000127652
0.000127814
0.000127673
0.000127162
0.000126261
0.000124955
0.000123229
0.00012107
0.000118474
0.000115439
0.00011197
0.000108081
0.000103793
9.91344e-05
9.41453e-05
8.8873e-05
8.33739e-05
7.7712e-05
7.19577e-05
6.61858e-05
6.04739e-05
5.49002e-05
4.9542e-05
4.44741e-05
3.97693e-05
3.54992e-05
3.17381e-05
2.857e-05
2.6103e-05
2.45033e-05
2.40307e-05
2.52204e-05
2.93696e-05
4.0746e-05
8.53184e-05
0.00021824
0.00010321
7.19851e-05
5.83223e-05
5.14494e-05
4.81463e-05
4.70672e-05
4.74964e-05
4.90369e-05
5.13964e-05
5.43533e-05
5.77311e-05
6.13868e-05
6.52046e-05
6.90929e-05
7.29817e-05
7.68201e-05
8.05738e-05
8.42225e-05
8.77565e-05
9.11743e-05
9.448e-05
9.76809e-05
0.000100785
0.000103801
0.000106735
0.000109591
0.00011237
0.000115071
0.000117688
0.000120213
0.000122635
0.000124939
0.000127109
0.000129126
0.000130971
0.00013262
0.000134049
0.000135233
0.000136148
0.000136751
0.000137005
0.000136971
0.000136563
0.000135759
0.000134537
0.000132881
0.000130775
0.000128208
0.000125173
0.000121671
0.000117706
0.000113296
0.000108464
0.000103246
9.76857e-05
9.18397e-05
8.57738e-05
7.95627e-05
7.32884e-05
6.70378e-05
6.09007e-05
5.49671e-05
4.93258e-05
4.40633e-05
3.92646e-05
3.5017e-05
3.14169e-05
2.85848e-05
2.67022e-05
2.60524e-05
2.72065e-05
3.15579e-05
4.36809e-05
9.13963e-05
0.000236221
0.000111667
7.78206e-05
6.2989e-05
5.55157e-05
5.19159e-05
5.07308e-05
5.11807e-05
5.28338e-05
5.53702e-05
5.85469e-05
6.21701e-05
6.60832e-05
7.01597e-05
7.43005e-05
7.84303e-05
8.24953e-05
8.64601e-05
9.03044e-05
9.40196e-05
9.7606e-05
0.000101069
0.000104419
0.000107665
0.000110817
0.000113882
0.000116865
0.000119768
0.00012259
0.000125324
0.000127964
0.000130499
0.000132913
0.000135191
0.000137315
0.000139266
0.000141021
0.000142558
0.000143851
0.000144876
0.000145607
0.000145974
0.000146043
0.000145758
0.000145073
0.000143968
0.00014242
0.000140411
0.000137924
0.000134945
0.000131468
0.000127492
0.000123025
0.000118084
0.000112696
0.000106903
0.000100758
9.43252e-05
8.76826e-05
8.0918e-05
7.41274e-05
6.74123e-05
6.08768e-05
5.46254e-05
4.87609e-05
4.33845e-05
3.8599e-05
3.45158e-05
3.12706e-05
2.90613e-05
2.81989e-05
2.92904e-05
3.38297e-05
4.67074e-05
9.76514e-05
0.000254525
0.000120277
8.37639e-05
6.77468e-05
5.96683e-05
5.57728e-05
5.44863e-05
5.49631e-05
5.67358e-05
5.94561e-05
6.28584e-05
6.67315e-05
7.09042e-05
7.52395e-05
7.96302e-05
8.39959e-05
8.82799e-05
9.24457e-05
9.64733e-05
0.000100355
0.000104094
0.000107698
0.000111177
0.000114543
0.000117808
0.00012098
0.000124065
0.000127066
0.000129981
0.000132806
0.000135532
0.000138151
0.000140648
0.000143009
0.000145216
0.000147252
0.000149095
0.000150724
0.000152115
0.000153246
0.000154092
0.000154593
0.000154764
0.000154619
0.000154077
0.000153117
0.000151714
0.000149845
0.000147488
0.000144623
0.000141235
0.000137315
0.000132862
0.000127884
0.000122401
0.000116444
0.000110061
0.000103315
9.62819e-05
8.90545e-05
8.17363e-05
7.44403e-05
6.72856e-05
6.0394e-05
5.38869e-05
4.78848e-05
4.25095e-05
3.78904e-05
3.41812e-05
3.15985e-05
3.04857e-05
3.14855e-05
3.6198e-05
4.9842e-05
0.000104117
0.000273075
0.000129003
8.97912e-05
7.25781e-05
6.38921e-05
5.97031e-05
5.83189e-05
5.88274e-05
6.07245e-05
6.36327e-05
6.72636e-05
7.13875e-05
7.58189e-05
8.04094e-05
8.5044e-05
8.96371e-05
9.41289e-05
9.84821e-05
0.000102677
0.000106708
0.00011058
0.000114301
0.000117886
0.000121348
0.0001247
0.000127952
0.00013111
0.000134178
0.000137156
0.00014004
0.000142823
0.000145496
0.000148047
0.000150463
0.000152729
0.000154827
0.000156739
0.000158445
0.000159923
0.000161152
0.000162109
0.000162752
0.000163036
0.000163037
0.000162657
0.000161868
0.000160643
0.000158953
0.000156773
0.000154076
0.000150839
0.000147044
0.000142681
0.000137745
0.000132246
0.000126206
0.000119662
0.000112671
0.000105306
9.76605e-05
8.98435e-05
8.19784e-05
7.41993e-05
6.66464e-05
5.94624e-05
5.27901e-05
4.67737e-05
4.15648e-05
3.73386e-05
3.43325e-05
3.2929e-05
3.3806e-05
3.86765e-05
5.3101e-05
0.000110826
0.000291784
0.000137805
9.58766e-05
7.74634e-05
6.81711e-05
6.36914e-05
6.22128e-05
6.2756e-05
6.47799e-05
6.7877e-05
7.1736e-05
7.61083e-05
8.07937e-05
8.56325e-05
9.05015e-05
9.53098e-05
9.99949e-05
0.000104519
0.000108862
0.000113021
0.000117002
0.000120817
0.000124481
0.000128011
0.00013142
0.00013472
0.00013792
0.000141024
0.000144032
0.000146943
0.000149751
0.000152449
0.000155025
0.00015747
0.000159771
0.00016191
0.000163873
0.000165641
0.000167195
0.000168515
0.000169578
0.000170359
0.000170796
0.000170924
0.000170725
0.000170128
0.000169106
0.000167629
0.000165666
0.000163185
0.000160156
0.000156551
0.000152349
0.000147536
0.000142106
0.00013607
0.000129454
0.000122301
0.00011468
0.000106679
9.84104e-05
9.00055e-05
8.1612e-05
7.33892e-05
6.55029e-05
5.81214e-05
5.14152e-05
4.55625e-05
4.07645e-05
3.72829e-05
3.55458e-05
3.62664e-05
4.12788e-05
5.65005e-05
0.00011781
0.000310557
0.000146641
0.000101992
8.23819e-05
7.24875e-05
6.7721e-05
6.61506e-05
6.67299e-05
6.88801e-05
7.21641e-05
7.62471e-05
8.08619e-05
8.5793e-05
9.08696e-05
9.596e-05
0.000100968
0.000105829
0.000110503
0.000114973
0.000119236
0.0001233
0.00012718
0.000130895
0.000134462
0.000137897
0.000141213
0.000144422
0.000147528
0.000150535
0.000153441
0.000156244
0.000158937
0.000161513
0.000163963
0.000166277
0.00016844
0.000170439
0.000172258
0.00017388
0.000175286
0.000176455
0.000177365
0.000177972
0.000178236
0.000178222
0.000177832
0.000177034
0.000175794
0.000174079
0.000171851
0.000169076
0.000165717
0.000161742
0.000157126
0.00015185
0.000145909
0.000139314
0.000132095
0.000124307
0.000116032
0.000107378
9.84824e-05
8.95027e-05
8.06171e-05
7.20153e-05
6.3894e-05
5.64544e-05
4.99055e-05
4.44797e-05
4.047e-05
3.83532e-05
3.88811e-05
4.40179e-05
6.00555e-05
0.0001251
0.000329297
0.000155465
0.000108108
8.73112e-05
7.68225e-05
7.17742e-05
7.0114e-05
7.07286e-05
7.3002e-05
7.64675e-05
8.0767e-05
8.56144e-05
9.07795e-05
9.60797e-05
0.000101375
0.000106565
0.000111581
0.000116383
0.000120954
0.000125295
0.000129414
0.000133331
0.000137065
0.000140637
0.000144065
0.000147366
0.00015055
0.000153627
0.000156601
0.000159473
0.000162243
0.000164907
0.000167459
0.000169895
0.000172205
0.000174379
0.000176404
0.000178268
0.000179954
0.000181444
0.00018272
0.000183758
0.000184532
0.000184982
0.000185125
0.000184954
0.000184391
0.000183404
0.000181956
0.000180008
0.000177518
0.000174446
0.000170751
0.000166395
0.000161349
0.000155589
0.000149111
0.000141926
0.000134074
0.000125621
0.000116668
0.00010735
9.78333e-05
8.83106e-05
7.89959e-05
7.01161e-05
6.19067e-05
5.46132e-05
4.85048e-05
4.3912e-05
4.13675e-05
4.16639e-05
4.69062e-05
6.37799e-05
0.000132721
0.000347899
0.000164229
0.000114194
9.22279e-05
8.11565e-05
7.58321e-05
7.40832e-05
7.47306e-05
7.71213e-05
8.07595e-05
8.52642e-05
9.0331e-05
9.57145e-05
0.000101221
0.000106702
0.000112052
0.0001172
0.000122105
0.000126752
0.000131141
0.000135287
0.000139209
0.000142931
0.000146476
0.000149866
0.000153119
0.000156249
0.000159267
0.00016218
0.000164992
0.000167705
0.000170319
0.000172832
0.00017524
0.000177536
0.000179714
0.000181762
0.000183669
0.000185421
0.000187001
0.000188388
0.000189561
0.000190494
0.000191152
0.00019147
0.000191507
0.000191186
0.000190458
0.000189285
0.000187627
0.000185441
0.00018268
0.000179298
0.00017525
0.000170492
0.000164989
0.000158715
0.000151664
0.000143853
0.00013533
0.00012618
0.00011653
0.000106546
9.64335e-05
8.64273e-05
7.67854e-05
6.7781e-05
5.97012e-05
5.2858e-05
4.76266e-05
4.46036e-05
4.4628e-05
4.99549e-05
6.76854e-05
0.000140696
0.000366255
0.000172885
0.000120217
9.71078e-05
8.54687e-05
7.98752e-05
7.80381e-05
7.87136e-05
8.12127e-05
8.50115e-05
8.97067e-05
9.49758e-05
0.000100559
0.000106251
0.000111896
0.000117382
0.000122637
0.000127619
0.000132313
0.000136722
0.000140864
0.000144761
0.000148441
0.000151929
0.00015525
0.000158425
0.000161472
0.000164405
0.000167233
0.000169965
0.000172605
0.000175155
0.000177618
0.000179991
0.000182272
0.000184454
0.00018653
0.000188488
0.000190314
0.000191993
0.000193503
0.000194822
0.000195923
0.000196777
0.000197327
0.000197546
0.000197469
0.000197
0.000196102
0.000194732
0.000192849
0.000190404
0.000187348
0.000183631
0.0001792
0.000174007
0.000168011
0.000161182
0.000153515
0.000145034
0.0001358
0.000125924
0.000115565
0.000104932
9.42771e-05
8.38881e-05
7.40776e-05
6.51789e-05
5.75543e-05
5.16315e-05
4.80724e-05
4.77854e-05
5.31741e-05
7.17819e-05
0.000149043
0.000384258
0.000181381
0.000126145
0.000101926
8.97377e-05
8.38831e-05
8.19577e-05
8.26548e-05
8.52507e-05
8.91946e-05
9.4062e-05
9.9513e-05
0.000105274
0.000111128
0.000116912
0.000122509
0.000127844
0.000132875
0.000137588
0.000141989
0.000146097
0.00014994
0.000153547
0.000156949
0.000160174
0.000163246
0.000166187
0.000169013
0.000171739
0.000174375
0.000176931
0.000179411
0.000181821
0.000184161
0.000186431
0.000188627
0.000190742
0.000192766
0.000194684
0.00019648
0.000198131
0.000199614
0.000200898
0.000201954
0.000202745
0.000203197
0.000203328
0.000203119
0.000202488
0.000201396
0.000199802
0.00019766
0.00019492
0.000191531
0.000187437
0.000182582
0.000176909
0.000170372
0.000162938
0.000154604
0.000145403
0.00013542
0.000124795
0.000113733
0.000102496
9.13965e-05
8.07862e-05
7.10487e-05
6.26031e-05
5.59383e-05
5.1788e-05
5.11467e-05
5.65723e-05
7.60771e-05
0.000157774
0.000401798
0.000189669
0.000131943
0.000106656
9.39418e-05
8.78353e-05
8.58208e-05
8.65312e-05
8.92097e-05
9.32801e-05
9.82983e-05
0.000103908
0.000109821
0.000115812
0.000121708
0.000127389
0.000132776
0.000137828
0.000142532
0.000146896
0.000150943
0.000154703
0.000158212
0.000161502
0.000164607
0.000167554
0.000170369
0.000173074
0.000175685
0.000178218
0.000180686
0.000183097
0.000185458
0.000187775
0.000190048
0.000192275
0.000194449
0.000196561
0.000198596
0.000200536
0.000202355
0.000204028
0.000205521
0.0002068
0.000207828
0.000208555
0.000208901
0.000208936
0.000208567
0.000207738
0.000206411
0.000204543
0.00020209
0.000199002
0.000195226
0.000190702
0.000185367
0.000179159
0.000172023
0.000163926
0.000154867
0.000144897
0.000134129
0.000122749
0.000111019
9.92679e-05
8.78846e-05
7.73042e-05
6.80082e-05
6.05556e-05
5.5761e-05
5.47212e-05
6.01562e-05
8.0576e-05
0.000166897
0.000418766
0.000197697
0.00013758
0.000111274
9.80592e-05
9.17111e-05
8.96062e-05
9.032e-05
9.30644e-05
9.72401e-05
0.000102384
0.000108126
0.000114164
0.000120263
0.000126244
0.000131981
0.000137392
0.000142437
0.000147105
0.000151405
0.000155365
0.000159018
0.000162405
0.000165562
0.000168527
0.000171333
0.000174009
0.000176582
0.000179073
0.000181502
0.000183884
0.000186233
0.000188559
0.000190868
0.000193164
0.000195445
0.000197707
0.000199938
0.000202122
0.00020424
0.000206264
0.000208163
0.000209901
0.000211437
0.000212728
0.000213731
0.000214365
0.000214606
0.000214494
0.000213917
0.000212832
0.000211202
0.000208989
0.000206153
0.000202647
0.000198415
0.000193395
0.000187516
0.000180707
0.000172907
0.000164081
0.000154237
0.000143451
0.000131878
0.000119764
0.000107445
9.53378e-05
8.39289e-05
7.37666e-05
6.54882e-05
5.9999e-05
5.85161e-05
6.39308e-05
8.52813e-05
0.000176414
0.000435059
0.000205419
0.000143022
0.000115753
0.000102068
9.54898e-05
9.32931e-05
9.3999e-05
9.67907e-05
0.000101048
0.000106291
0.000112136
0.00011827
0.000124448
0.000130484
0.000136247
0.000141656
0.000146667
0.000151273
0.000155485
0.000159334
0.000162859
0.000166104
0.000169111
0.000171922
0.000174576
0.000177106
0.000179543
0.000181915
0.000184243
0.000186549
0.000188849
0.000191156
0.000193479
0.000195823
0.000198188
0.000200569
0.000202955
0.000205328
0.000207665
0.000209936
0.000212107
0.000214134
0.000215972
0.000217572
0.000218879
0.000219838
0.000220339
0.000220449
0.000220115
0.000219251
0.000217823
0.0002158
0.000213152
0.000209845
0.000205835
0.000201068
0.000195475
0.000188979
0.000181496
0.000172959
0.000163335
0.000152648
0.000141011
0.000128637
0.000115854
0.000103097
9.08959e-05
7.98677e-05
7.07359e-05
6.4506e-05
6.25364e-05
6.78992e-05
9.01932e-05
0.000186323
0.000450577
0.000212786
0.000148238
0.00012007
0.000105947
9.91515e-05
9.68614e-05
9.75472e-05
0.000100366
0.000104678
0.000109992
0.000115908
0.000122107
0.000128333
0.000134395
0.000140157
0.000145535
0.000150489
0.000155008
0.00015911
0.00016283
0.000166209
0.000169297
0.000172141
0.000174789
0.000177285
0.000179666
0.00018197
0.000184227
0.000186465
0.000188708
0.000190977
0.000193286
0.000195648
0.000198068
0.000200549
0.000203084
0.000205662
0.000208264
0.000210865
0.000213431
0.000215922
0.00021829
0.000220483
0.000222442
0.000224107
0.000225415
0.000226263
0.000226602
0.000226519
0.000225869
0.000224615
0.000222735
0.000220208
0.000217016
0.000213133
0.000208524
0.000203132
0.000196885
0.000189691
0.000181458
0.000172109
0.000161618
0.000150039
0.000137538
0.000124414
0.000111102
9.81666e-05
8.62919e-05
7.62923e-05
6.92821e-05
6.67845e-05
7.20623e-05
9.53095e-05
0.000196614
0.000465226
0.000219756
0.000153198
0.000124199
0.000109675
0.000102677
0.000100292
0.000100945
0.000103768
0.000108109
0.000113462
0.000119418
0.000125649
0.000131892
0.000137949
0.000143682
0.000149006
0.000153877
0.00015829
0.000162265
0.000165838
0.000169058
0.000171978
0.000174653
0.000177134
0.00017947
0.000181706
0.000183882
0.000186034
0.000188195
0.000190392
0.000192648
0.000194983
0.000197409
0.000199934
0.000202561
0.000205285
0.000208092
0.000210964
0.000213871
0.000216778
0.000219641
0.000222405
0.000225011
0.00022739
0.000229472
0.000231183
0.000232446
0.000233112
0.000233269
0.000232859
0.00023178
0.000230015
0.000227554
0.000224393
0.000220532
0.00021596
0.000210647
0.00020454
0.000197553
0.000189582
0.000180518
0.000170283
0.000158864
0.000146364