/*--------------------------------*- C++ -*----------------------------------*\
  =========                 |
  \\      /  F ield         | OpenFOAM: The Open Source CFD Toolbox
   \\    /   O peration     | Website:  https://openfoam.org
    \\  /    A nd           | Version:  12
     \\/     M anipulation  |
\*---------------------------------------------------------------------------*/
FoamFile
{
    format      ascii;
    class       volScalarField;
    location    "1.5";
    object      k;
}
// * * * * * * * * * * * * * * * * * * * * * * * * * * * * * * * * * * * * * //

dimensions      [0 2 -2 0 0 0 0];

internalField   nonuniform List<scalar> 
5625
(
4.43879e-10
2.21598e-09
4.83555e-09
7.95472e-09
1.14086e-08
1.50922e-08
1.89268e-08
2.28485e-08
2.68036e-08
3.07466e-08
3.46392e-08
3.84495e-08
4.21521e-08
4.57272e-08
4.91609e-08
5.24443e-08
5.55733e-08
5.85479e-08
6.13714e-08
6.40494e-08
6.65893e-08
6.89989e-08
7.12862e-08
7.34581e-08
7.55204e-08
7.74768e-08
7.93289e-08
8.1076e-08
8.27149e-08
8.42399e-08
8.56433e-08
8.69152e-08
8.8044e-08
8.90166e-08
8.9819e-08
9.04361e-08
9.08521e-08
9.10503e-08
9.10285e-08
9.07671e-08
9.02542e-08
8.94806e-08
8.84396e-08
8.71274e-08
8.55438e-08
8.36917e-08
8.15777e-08
7.9212e-08
7.66085e-08
7.37845e-08
7.07605e-08
6.75597e-08
6.42078e-08
6.07322e-08
5.71614e-08
5.35245e-08
4.98503e-08
4.61671e-08
4.25013e-08
3.88779e-08
3.53192e-08
3.18451e-08
2.84726e-08
2.52159e-08
2.20866e-08
1.90942e-08
1.62467e-08
1.35501e-08
1.10114e-08
8.63898e-09
6.44494e-09
4.44898e-09
2.68589e-09
1.22609e-09
2.45365e-10
2.21863e-09
1.90754e-08
4.29749e-08
7.11852e-08
1.02344e-07
1.35542e-07
1.70082e-07
2.05394e-07
2.40998e-07
2.76486e-07
3.11514e-07
3.45797e-07
3.79104e-07
4.1126e-07
4.42139e-07
4.71662e-07
4.99793e-07
5.26533e-07
5.51912e-07
5.75982e-07
5.98809e-07
6.20465e-07
6.41022e-07
6.60544e-07
6.79082e-07
6.9667e-07
7.13324e-07
7.29036e-07
7.43777e-07
7.57498e-07
7.70128e-07
7.81577e-07
7.91742e-07
8.00504e-07
8.07736e-07
8.13304e-07
8.17063e-07
8.18847e-07
8.18637e-07
8.16267e-07
8.11633e-07
8.04652e-07
7.95266e-07
7.83442e-07
7.69177e-07
7.52498e-07
7.33464e-07
7.12169e-07
6.88737e-07
6.63325e-07
6.36116e-07
6.0732e-07
5.77168e-07
5.45907e-07
5.13792e-07
4.81085e-07
4.48045e-07
4.14925e-07
3.81965e-07
3.49387e-07
3.17392e-07
2.86159e-07
2.55839e-07
2.26561e-07
1.98429e-07
1.71525e-07
1.45917e-07
1.21666e-07
9.88333e-08
7.74913e-08
5.7746e-08
3.97665e-08
2.38449e-08
1.05446e-08
1.22533e-09
4.86492e-09
4.31799e-08
9.81113e-08
1.63206e-07
2.3519e-07
3.11908e-07
3.91728e-07
4.73322e-07
5.55578e-07
6.3755e-07
7.18443e-07
7.97594e-07
8.74472e-07
9.4867e-07
1.0199e-06
1.08798e-06
1.15283e-06
1.21445e-06
1.27292e-06
1.32837e-06
1.38094e-06
1.4308e-06
1.47814e-06
1.52308e-06
1.56576e-06
1.60625e-06
1.64459e-06
1.68075e-06
1.71468e-06
1.74625e-06
1.77529e-06
1.80161e-06
1.82496e-06
1.84506e-06
1.86163e-06
1.87435e-06
1.88289e-06
1.88686e-06
1.88628e-06
1.88072e-06
1.86993e-06
1.85372e-06
1.83197e-06
1.8046e-06
1.7716e-06
1.73304e-06
1.68905e-06
1.63986e-06
1.58575e-06
1.52709e-06
1.46429e-06
1.39786e-06
1.3283e-06
1.25621e-06
1.18217e-06
1.10678e-06
1.03064e-06
9.54329e-07
8.78406e-07
8.03377e-07
7.29707e-07
6.57803e-07
5.88015e-07
5.20635e-07
4.559e-07
3.93999e-07
3.35086e-07
2.79295e-07
2.26761e-07
1.77652e-07
1.32213e-07
9.08417e-08
5.42426e-08
2.37839e-08
2.67711e-09
8.07027e-09
7.21206e-08
1.64558e-07
2.74514e-07
3.96333e-07
5.26271e-07
6.61506e-07
7.9976e-07
9.39124e-07
1.07799e-06
1.21498e-06
1.34898e-06
1.47909e-06
1.6046e-06
1.72504e-06
1.84009e-06
1.94963e-06
2.05367e-06
2.15235e-06
2.24588e-06
2.33454e-06
2.41861e-06
2.4984e-06
2.57415e-06
2.64608e-06
2.71431e-06
2.7789e-06
2.83982e-06
2.89695e-06
2.9501e-06
2.99898e-06
3.04323e-06
3.08246e-06
3.11619e-06
3.14393e-06
3.16517e-06
3.17931e-06
3.18569e-06
3.18446e-06
3.17479e-06
3.15627e-06
3.12861e-06
3.09156e-06
3.04502e-06
2.98898e-06
2.92355e-06
2.84897e-06
2.7656e-06
2.67394e-06
2.57461e-06
2.46833e-06
2.35592e-06
2.23829e-06
2.1164e-06
1.99126e-06
1.86389e-06
1.7353e-06
1.60648e-06
1.47835e-06
1.35178e-06
1.22755e-06
1.10634e-06
9.88738e-07
8.75225e-07
7.66198e-07
6.61969e-07
5.62791e-07
4.68881e-07
3.80464e-07
2.97822e-07
2.21377e-07
1.51828e-07
9.04042e-08
3.94733e-08
4.41279e-09
1.17126e-08
1.04924e-07
2.39949e-07
4.01025e-07
5.79799e-07
7.70685e-07
9.69463e-07
1.17273e-06
1.37763e-06
1.58177e-06
1.78311e-06
1.97998e-06
2.17104e-06
2.35524e-06
2.53188e-06
2.70051e-06
2.86095e-06
3.01323e-06
3.15756e-06
3.29429e-06
3.42382e-06
3.5466e-06
3.66308e-06
3.77363e-06
3.87855e-06
3.97806e-06
4.07223e-06
4.16102e-06
4.24425e-06
4.32163e-06
4.39273e-06
4.45706e-06
4.51399e-06
4.56286e-06
4.60295e-06
4.63351e-06
4.65359e-06
4.66233e-06
4.65998e-06
4.64526e-06
4.61758e-06
4.57649e-06
4.52168e-06
4.45296e-06
4.37034e-06
4.27398e-06
4.16424e-06
4.04166e-06
3.90696e-06
3.76105e-06
3.60501e-06
3.44004e-06
3.26748e-06
3.08876e-06
2.90535e-06
2.71876e-06
2.53048e-06
2.34195e-06
2.15453e-06
1.96949e-06
1.78796e-06
1.61094e-06
1.43926e-06
1.27364e-06
1.11462e-06
9.62665e-07
8.18117e-07
6.81287e-07
5.52498e-07
4.32162e-07
3.2091e-07
2.19787e-07
1.3063e-07
5.6907e-08
6.34623e-09
1.57336e-08
1.41101e-07
3.2311e-07
5.40676e-07
7.82517e-07
1.04101e-06
1.31037e-06
1.5859e-06
1.86368e-06
2.1404e-06
2.41326e-06
2.67995e-06
2.93859e-06
3.1878e-06
3.42656e-06
3.65431e-06
3.87078e-06
4.07606e-06
4.27045e-06
4.45442e-06
4.62858e-06
4.79354e-06
4.94992e-06
5.09826e-06
5.23898e-06
5.37235e-06
5.4985e-06
5.61735e-06
5.72869e-06
5.8321e-06
5.92704e-06
6.0128e-06
6.08857e-06
6.15346e-06
6.20649e-06
6.24667e-06
6.27263e-06
6.28337e-06
6.27926e-06
6.25844e-06
6.22016e-06
6.16383e-06
6.089e-06
5.99545e-06
5.88318e-06
5.75241e-06
5.60362e-06
5.43754e-06
5.25516e-06
5.05772e-06
4.84666e-06
4.62364e-06
4.39047e-06
4.14908e-06
3.90148e-06
3.64972e-06
3.39582e-06
3.14173e-06
2.88929e-06
2.64021e-06
2.39601e-06
2.15801e-06
1.92735e-06
1.70495e-06
1.49155e-06
1.28772e-06
1.09392e-06
9.10543e-07
7.38019e-07
5.76899e-07
4.28039e-07
2.92862e-07
1.7385e-07
7.56351e-08
8.42526e-09
2.01016e-08
1.80381e-07
4.13398e-07
6.92345e-07
1.0028e-06
1.33495e-06
1.68129e-06
2.03571e-06
2.39309e-06
2.74907e-06
3.09998e-06
3.44277e-06
3.77499e-06
4.0948e-06
4.4009e-06
4.69254e-06
4.96942e-06
5.23165e-06
5.47966e-06
5.71411e-06
5.9358e-06
6.14556e-06
6.34422e-06
6.53248e-06
6.71092e-06
6.8799e-06
7.03958e-06
7.1899e-06
7.33055e-06
7.46104e-06
7.58066e-06
7.68852e-06
7.78361e-06
7.86478e-06
7.93082e-06
7.98045e-06
8.01177e-06
8.02392e-06
8.01714e-06
7.98905e-06
7.9387e-06
7.86532e-06
7.76838e-06
7.64758e-06
7.50291e-06
7.33466e-06
7.14345e-06
6.93022e-06
6.69622e-06
6.44304e-06
6.17254e-06
5.88684e-06
5.58829e-06
5.27936e-06
4.96265e-06
4.64078e-06
4.31635e-06
3.99187e-06
3.66971e-06
3.35203e-06
3.04079e-06
2.73767e-06
2.4441e-06
2.16122e-06
1.88997e-06
1.63104e-06
1.385e-06
1.15232e-06
9.33529e-07
7.2932e-07
5.40781e-07
3.69724e-07
2.19297e-07
9.53301e-08
1.06127e-08
2.47986e-08
2.22607e-07
5.1045e-07
8.55401e-07
1.2397e-06
1.65121e-06
2.08057e-06
2.52013e-06
2.96343e-06
3.40495e-06
3.84003e-06
4.26478e-06
4.67608e-06
5.07159e-06
5.44967e-06
5.80938e-06
6.15037e-06
6.47281e-06
6.77729e-06
7.06469e-06
7.33603e-06
7.59242e-06
7.83492e-06
8.06444e-06
8.28172e-06
8.48724e-06
8.68122e-06
8.86359e-06
9.03401e-06
9.19186e-06
9.3363e-06
9.46626e-06
9.5805e-06
9.67764e-06
9.7562e-06
9.81463e-06
9.85036e-06
9.86303e-06
9.85242e-06
9.81568e-06
9.75167e-06
9.65945e-06
9.53837e-06
9.38808e-06
9.20855e-06
9.00016e-06
8.76364e-06
8.50014e-06
8.21122e-06
7.89883e-06
7.56526e-06
7.21312e-06
6.84531e-06
6.46489e-06
6.07507e-06
5.67909e-06
5.28016e-06
4.88138e-06
4.48568e-06
4.09573e-06
3.71393e-06
3.34233e-06
2.98269e-06
2.6364e-06
2.30456e-06
1.98802e-06
1.68743e-06
1.40335e-06
1.13639e-06
8.87383e-07
6.57643e-07
4.49373e-07
2.66389e-07
1.15741e-07
1.28804e-08
2.98135e-08
2.67685e-07
6.1405e-07
1.02948e-06
1.49268e-06
1.98904e-06
2.50725e-06
3.03798e-06
3.57328e-06
4.10637e-06
4.63144e-06
5.14366e-06
5.63916e-06
6.115e-06
6.56919e-06
7.00057e-06
7.40876e-06
7.79401e-06
8.1571e-06
8.49917e-06
8.82154e-06
9.1256e-06
9.41271e-06
9.68402e-06
9.94047e-06
1.01827e-05
1.04109e-05
1.06252e-05
1.08251e-05
1.10099e-05
1.11786e-05
1.133e-05
1.14626e-05
1.15748e-05
1.16648e-05
1.17309e-05
1.17697e-05
1.17817e-05
1.17658e-05
1.17188e-05
1.16394e-05
1.15265e-05
1.13794e-05
1.11975e-05
1.0981e-05
1.07301e-05
1.04459e-05
1.01296e-05
9.7832e-06
9.40889e-06
9.00946e-06
8.58802e-06
8.14801e-06
7.69311e-06
7.22713e-06
6.75397e-06
6.27748e-06
5.80137e-06
5.32915e-06
4.86402e-06
4.40886e-06
3.96613e-06
3.53791e-06
3.12587e-06
2.73129e-06
2.35517e-06
1.99824e-06
1.66116e-06
1.3446e-06
1.04954e-06
7.77488e-07
5.31042e-07
3.14676e-07
1.36673e-07
1.52065e-08
3.51395e-08
3.15552e-07
7.2406e-07
1.21434e-06
1.76139e-06
2.34799e-06
2.96074e-06
3.58852e-06
4.22177e-06
4.85225e-06
5.47289e-06
6.07779e-06
6.66223e-06
7.22262e-06
7.75654e-06
8.26264e-06
8.74049e-06
9.19048e-06
9.61362e-06
1.00113e-05
1.03853e-05
1.07374e-05
1.10691e-05
1.13819e-05
1.16771e-05
1.19554e-05
1.22171e-05
1.24624e-05
1.26907e-05
1.29013e-05
1.30931e-05
1.32646e-05
1.34141e-05
1.35399e-05
1.36399e-05
1.3712e-05
1.37519e-05
1.37617e-05
1.37388e-05
1.36798e-05
1.35832e-05
1.34478e-05
1.32727e-05
1.30574e-05
1.2802e-05
1.25069e-05
1.21731e-05
1.18023e-05
1.13965e-05
1.09585e-05
1.04913e-05
9.99869e-06
9.48453e-06
8.95314e-06
8.40896e-06
7.85652e-06
7.30031e-06
6.74468e-06
6.19373e-06
5.65124e-06
5.12058e-06
4.60464e-06
4.10587e-06
3.62621e-06
3.16718e-06
2.7299e-06
2.31525e-06
1.92392e-06
1.55669e-06
1.21463e-06
8.99472e-07
6.14157e-07
3.6382e-07
1.5798e-07
1.75747e-08
4.07712e-08
3.66163e-07
8.40373e-07
1.40981e-06
2.04558e-06
2.72772e-06
3.44063e-06
4.17122e-06
4.90821e-06
5.64172e-06
6.36329e-06
7.0658e-06
7.74355e-06
8.39225e-06
9.00903e-06
9.5923e-06
1.01416e-05
1.06576e-05
1.11415e-05
1.15951e-05
1.20206e-05
1.24201e-05
1.27956e-05
1.3149e-05
1.34817e-05
1.37947e-05
1.40884e-05
1.43631e-05
1.46181e-05
1.48527e-05
1.50656e-05
1.52553e-05
1.54198e-05
1.55571e-05
1.5665e-05
1.5741e-05
1.57797e-05
1.57857e-05
1.57537e-05
1.56807e-05
1.5565e-05
1.54052e-05
1.52005e-05
1.49503e-05
1.46546e-05
1.43139e-05
1.39295e-05
1.3503e-05
1.3037e-05
1.25343e-05
1.19985e-05
1.14338e-05
1.08446e-05
1.02358e-05
9.61237e-06
8.97949e-06
8.3423e-06
7.70578e-06
7.07464e-06
6.45325e-06
5.8455e-06
5.25476e-06
4.68387e-06
4.13509e-06
3.6102e-06
3.1105e-06
2.63696e-06
2.1904e-06
1.77164e-06
1.38187e-06
1.023e-06
6.98314e-07
4.13581e-07
1.79558e-07
1.99733e-08
4.67031e-08
4.1947e-07
9.62885e-07
1.61573e-06
2.34501e-06
3.12791e-06
3.94649e-06
4.78558e-06
5.63195e-06
6.47396e-06
7.30156e-06
8.10627e-06
8.88131e-06
9.62161e-06
1.03238e-05
1.09861e-05
1.16081e-05
1.21906e-05
1.27353e-05
1.32443e-05
1.37203e-05
1.4166e-05
1.45839e-05
1.4976e-05
1.53443e-05
1.56899e-05
1.60134e-05
1.63151e-05
1.65945e-05
1.68506e-05
1.70822e-05
1.72875e-05
1.74644e-05
1.76107e-05
1.7724e-05
1.78008e-05
1.78361e-05
1.78363e-05
1.77929e-05
1.77038e-05
1.75672e-05
1.73815e-05
1.71458e-05
1.68595e-05
1.65226e-05
1.61358e-05
1.57003e-05
1.5218e-05
1.46917e-05
1.41245e-05
1.35204e-05
1.28839e-05
1.22198e-05
1.15337e-05
1.08309e-05
1.01174e-05
9.39878e-06
8.68075e-06
7.96861e-06
7.26734e-06
6.58138e-06
5.91462e-06
5.27035e-06
4.6512e-06
4.05923e-06
3.49598e-06
2.96256e-06
2.45988e-06
1.98887e-06
1.55079e-06
1.14772e-06
7.83262e-07
4.63808e-07
2.01339e-07
2.23949e-08
5.2929e-08
4.75417e-07
1.09147e-06
1.83187e-06
2.65939e-06
3.54818e-06
4.47784e-06
5.43096e-06
6.39219e-06
7.34794e-06
8.28638e-06
9.19753e-06
1.00734e-05
1.09081e-05
1.16977e-05
1.24403e-05
1.31355e-05
1.37843e-05
1.4389e-05
1.49522e-05
1.54771e-05
1.5967e-05
1.64249e-05
1.68534e-05
1.72546e-05
1.763e-05
1.79805e-05
1.83063e-05
1.8607e-05
1.88816e-05
1.91287e-05
1.93465e-05
1.95328e-05
1.9685e-05
1.98006e-05
1.98749e-05
1.99054e-05
1.98965e-05
1.98395e-05
1.97324e-05
1.95731e-05
1.93602e-05
1.90925e-05
1.87695e-05
1.83912e-05
1.79584e-05
1.74724e-05
1.69352e-05
1.63496e-05
1.57192e-05
1.5048e-05
1.4341e-05
1.36034e-05
1.2841e-05
1.20599e-05
1.12663e-05
1.04667e-05
9.66723e-06
8.87386e-06
8.09218e-06
7.32726e-06
6.58354e-06
5.86481e-06
5.17416e-06
4.51398e-06
3.88609e-06
3.2918e-06
2.73216e-06
2.20818e-06
1.7212e-06
1.27348e-06
8.68895e-07
5.14435e-07
2.23293e-07
2.48363e-08
5.94407e-08
5.33931e-07
1.22596e-06
2.05799e-06
2.98832e-06
3.98802e-06
5.03402e-06
6.10652e-06
7.18788e-06
8.26234e-06
9.31609e-06
1.03375e-05
1.13173e-05
1.22486e-05
1.31271e-05
1.39505e-05
1.47186e-05
1.5433e-05
1.60962e-05
1.67116e-05
1.72831e-05
1.78146e-05
1.83095e-05
1.87712e-05
1.9202e-05
1.96039e-05
1.99778e-05
2.03241e-05
2.06425e-05
2.09319e-05
2.1191e-05
2.14177e-05
2.16097e-05
2.17644e-05
2.18791e-05
2.19475e-05
2.19711e-05
2.19503e-05
2.18774e-05
2.17504e-05
2.15671e-05
2.13259e-05
2.10258e-05
2.06662e-05
2.02471e-05
1.97694e-05
1.92343e-05
1.8644e-05
1.80013e-05
1.731e-05
1.65743e-05
1.57992e-05
1.49904e-05
1.41539e-05
1.32962e-05
1.24242e-05
1.15446e-05
1.06644e-05
9.79001e-06
8.92778e-06
8.0834e-06
7.26194e-06
6.46776e-06
5.70448e-06
4.97492e-06
4.28124e-06
3.62502e-06
3.00747e-06
2.42971e-06
1.89321e-06
1.40033e-06
9.55238e-07
5.65471e-07
2.45423e-07
2.72979e-08
6.62279e-08
5.9492e-07
1.36615e-06
2.29371e-06
3.33131e-06
4.44672e-06
5.61413e-06
6.81115e-06
8.01762e-06
9.21542e-06
1.03886e-05
1.15237e-05
1.26099e-05
1.36395e-05
1.46076e-05
1.55117e-05
1.6352e-05
1.71303e-05
1.78498e-05
1.85148e-05
1.91299e-05
1.96995e-05
2.0228e-05
2.0719e-05
2.11756e-05
2.15999e-05
2.19931e-05
2.23559e-05
2.26878e-05
2.2988e-05
2.32549e-05
2.34866e-05
2.36805e-05
2.38339e-05
2.3944e-05
2.40031e-05
2.40175e-05
2.39822e-05
2.38914e-05
2.37429e-05
2.35346e-05
2.32648e-05
2.29325e-05
2.25372e-05
2.20788e-05
2.15581e-05
2.09764e-05
2.03359e-05
1.96394e-05
1.88906e-05
1.80938e-05
1.72541e-05
1.63774e-05
1.54699e-05
1.45384e-05
1.35901e-05
1.26324e-05
1.16726e-05
1.07179e-05
9.77528e-06
8.85112e-06
7.95121e-06
7.08059e-06
6.24347e-06
5.44323e-06
4.68244e-06
3.96304e-06
3.28646e-06
2.65398e-06
2.06717e-06
1.52852e-06
1.04244e-06
6.16996e-07
2.67761e-07
2.97831e-08
7.3277e-08
6.58262e-07
1.51177e-06
2.53859e-06
3.68768e-06
4.92339e-06
6.21702e-06
7.54338e-06
8.87961e-06
1.0205e-05
1.15012e-05
1.27528e-05
1.39475e-05
1.50765e-05
1.61343e-05
1.71185e-05
1.80293e-05
1.88693e-05
1.96424e-05
2.03537e-05
2.10085e-05
2.16124e-05
2.21702e-05
2.26863e-05
2.31641e-05
2.36063e-05
2.40143e-05
2.43889e-05
2.47298e-05
2.50363e-05
2.53066e-05
2.55389e-05
2.57307e-05
2.58792e-05
2.59803e-05
2.60275e-05
2.60304e-05
2.59783e-05
2.58678e-05
2.56967e-05
2.54631e-05
2.5165e-05
2.48015e-05
2.43721e-05
2.38767e-05
2.33159e-05
2.26911e-05
2.20042e-05
2.12581e-05
2.04561e-05
1.96028e-05
1.8703e-05
1.77626e-05
1.6788e-05
1.57862e-05
1.47646e-05
1.3731e-05
1.26933e-05
1.16594e-05
1.06367e-05
9.63263e-06
8.6536e-06
7.70546e-06
6.79315e-06
5.9207e-06
5.09125e-06
4.30715e-06
3.57016e-06
2.88176e-06
2.24365e-06
1.65844e-06
1.13075e-06
6.69156e-07
2.9037e-07
3.22986e-08
8.05713e-08
7.23807e-07
1.66246e-06
2.79205e-06
4.05659e-06
5.41692e-06
6.84123e-06
8.30139e-06
9.77161e-06
1.12283e-05
1.26507e-05
1.40211e-05
1.53257e-05
1.65545e-05
1.77016e-05
1.87644e-05
1.97436e-05
2.06424e-05
2.14656e-05
2.22193e-05
2.29097e-05
2.35432e-05
2.41256e-05
2.46619e-05
2.51561e-05
2.56111e-05
2.6029e-05
2.64104e-05
2.67555e-05
2.70634e-05
2.73327e-05
2.75612e-05
2.77467e-05
2.78864e-05
2.79742e-05
2.80089e-05
2.79966e-05
2.7926e-05
2.77947e-05
2.76006e-05
2.73418e-05
2.70165e-05
2.66236e-05
2.61625e-05
2.56332e-05
2.50361e-05
2.43724e-05
2.36439e-05
2.28531e-05
2.20033e-05
2.10987e-05
2.0144e-05
1.9145e-05
1.8108e-05
1.704e-05
1.59488e-05
1.48423e-05
1.37288e-05
1.2617e-05
1.1515e-05
1.04308e-05
9.37196e-06
8.34511e-06
7.35606e-06
6.40964e-06
5.50966e-06
4.65903e-06
3.85993e-06
3.11411e-06
2.42342e-06
1.79062e-06
1.22052e-06
7.22146e-07
3.13331e-07
3.48536e-08
8.80906e-08
7.91376e-07
1.81781e-06
3.05339e-06
4.43704e-06
5.92592e-06
7.48498e-06
9.08295e-06
1.06909e-05
1.22822e-05
1.38333e-05
1.53242e-05
1.67395e-05
1.80679e-05
1.93031e-05
2.04425e-05
2.14873e-05
2.24415e-05
2.33108e-05
2.41023e-05
2.48235e-05
2.54817e-05
2.60835e-05
2.66347e-05
2.714e-05
2.76026e-05
2.8025e-05
2.84082e-05
2.87524e-05
2.90569e-05
2.93204e-05
2.95408e-05
2.97159e-05
2.98431e-05
2.99144e-05
2.99357e-05
2.99054e-05
2.9815e-05
2.96624e-05
2.94456e-05
2.91627e-05
2.88119e-05
2.83921e-05
2.79025e-05
2.73431e-05
2.67141e-05
2.60165e-05
2.52516e-05
2.44219e-05
2.35301e-05
2.25801e-05
2.15765e-05
2.05244e-05
1.94303e-05
1.8301e-05
1.71442e-05
1.59681e-05
1.47815e-05
1.35935e-05
1.2413e-05
1.12488e-05
1.01095e-05
9.00268e-06
7.93515e-06
6.9127e-06
5.94e-06
5.02065e-06
4.15736e-06
3.35226e-06
2.60743e-06
1.92573e-06
1.31218e-06
7.7621e-07
3.36749e-07
3.74596e-08
9.58111e-08
8.60753e-07
1.97734e-06
3.32179e-06
4.82782e-06
6.44875e-06
8.14615e-06
9.8854e-06
1.16342e-05
1.33627e-05
1.50444e-05
1.6657e-05
1.8183e-05
1.96103e-05
2.09318e-05
2.21452e-05
2.32523e-05
2.42578e-05
2.51687e-05
2.59932e-05
2.674e-05
2.74175e-05
2.80332e-05
2.85937e-05
2.91044e-05
2.95692e-05
2.99907e-05
3.03704e-05
3.07086e-05
3.1005e-05
3.12582e-05
3.14665e-05
3.16278e-05
3.17385e-05
3.17916e-05
3.17981e-05
3.17483e-05
3.16376e-05
3.1464e-05
3.12254e-05
3.09201e-05
3.05464e-05
3.01028e-05
2.95886e-05
2.90035e-05
2.83475e-05
2.76212e-05
2.68257e-05
2.5963e-05
2.50354e-05
2.40464e-05
2.29999e-05
2.1901e-05
2.07554e-05
1.95699e-05
1.83522e-05
1.71105e-05
1.58538e-05
1.45917e-05
1.33338e-05
1.209e-05
1.08696e-05
9.68145e-06
8.53354e-06
7.43277e-06
6.38482e-06
5.39419e-06
4.46426e-06
3.59765e-06
2.79672e-06
2.06452e-06
1.40621e-06
8.31624e-07
3.60739e-07
4.01293e-08
1.03705e-07
9.31692e-07
2.14048e-06
3.5963e-06
5.22752e-06
6.98351e-06
8.82229e-06
1.07057e-05
1.25979e-05
1.44655e-05
1.62791e-05
1.80136e-05
1.96499e-05
2.11745e-05
2.258e-05
2.38643e-05
2.50298e-05
2.60822e-05
2.70297e-05
2.7882e-05
2.86488e-05
2.93399e-05
2.99637e-05
3.05279e-05
3.10384e-05
3.14997e-05
3.19149e-05
3.22859e-05
3.26134e-05
3.28971e-05
3.3136e-05
3.33287e-05
3.34733e-05
3.35638e-05
3.35997e-05
3.35889e-05
3.35192e-05
3.33887e-05
3.31952e-05
3.29368e-05
3.26116e-05
3.22181e-05
3.17545e-05
3.12199e-05
3.06138e-05
2.99358e-05
2.91864e-05
2.83661e-05
2.74764e-05
2.65192e-05
2.54974e-05
2.44144e-05
2.32746e-05
2.20836e-05
2.08475e-05
1.95738e-05
1.82708e-05
1.69475e-05
1.56138e-05
1.42802e-05
1.29572e-05
1.16553e-05
1.03846e-05
9.15434e-06
7.97276e-06
6.84677e-06
5.78194e-06
4.78253e-06
3.85177e-06
2.99244e-06
2.20778e-06
1.50313e-06
8.88688e-07
3.85428e-07
4.28769e-08
1.11742e-07
1.00391e-06
2.30659e-06
3.87584e-06
5.63455e-06
7.52805e-06
9.51059e-06
1.15403e-05
1.35776e-05
1.55857e-05
1.75316e-05
1.93878e-05
2.11331e-05
2.2753e-05
2.42396e-05
2.55911e-05
2.68106e-05
2.79051e-05
2.88841e-05
2.97585e-05
3.05397e-05
3.12384e-05
3.18646e-05
3.24266e-05
3.29312e-05
3.33836e-05
3.37875e-05
3.4145e-05
3.44572e-05
3.47243e-05
3.49456e-05
3.51197e-05
3.52449e-05
3.53139e-05
3.5334e-05
3.5304e-05
3.52154e-05
3.50665e-05
3.48552e-05
3.45797e-05
3.42379e-05
3.38282e-05
3.33488e-05
3.27984e-05
3.2176e-05
3.14813e-05
3.0714e-05
2.98744e-05
2.89634e-05
2.79824e-05
2.69337e-05
2.58201e-05
2.46456e-05
2.34149e-05
2.21338e-05
2.08094e-05
1.94496e-05
1.80635e-05
1.66614e-05
1.5254e-05
1.38528e-05
1.24693e-05
1.11149e-05
9.80042e-06
8.53545e-06
7.32842e-06
6.18619e-06
5.11409e-06
4.11619e-06
3.19576e-06
2.35636e-06
1.60351e-06
9.47713e-07
4.10948e-07
4.57169e-08
1.19886e-07
1.0771e-06
2.47494e-06
4.15919e-06
6.04715e-06
8.07994e-06
1.02079e-05
1.23854e-05
1.45689e-05
1.67178e-05
1.87957e-05
2.07726e-05
2.26251e-05
2.43376e-05
2.5902e-05
2.73166e-05
2.85855e-05
2.97169e-05
3.07218e-05
3.16126e-05
3.24023e-05
3.31029e-05
3.37256e-05
3.42798e-05
3.47731e-05
3.52115e-05
3.55992e-05
3.59389e-05
3.62322e-05
3.64795e-05
3.66805e-05
3.68345e-05
3.69382e-05
3.69864e-05
3.69913e-05
3.69428e-05
3.68371e-05
3.66723e-05
3.64464e-05
3.61572e-05
3.58028e-05
3.53813e-05
3.48906e-05
3.43289e-05
3.36952e-05
3.29885e-05
3.22081e-05
3.13541e-05
3.04268e-05
2.94271e-05
2.83567e-05
2.72179e-05
2.60139e-05
2.47489e-05
2.34282e-05
2.20582e-05
2.06464e-05
1.92019e-05
1.77347e-05
1.6256e-05
1.47781e-05
1.33134e-05
1.18746e-05
1.04742e-05
9.12332e-06
7.83215e-06
6.60909e-06
5.46082e-06
4.39241e-06
3.40786e-06
2.51109e-06
1.70787e-06
1.00901e-06
4.37429e-07
4.86638e-08
1.28099e-07
1.15092e-06
2.64477e-06
4.44503e-06
6.46337e-06
8.63654e-06
1.09109e-05
1.32368e-05
1.55666e-05
1.78558e-05
2.00649e-05
2.21606e-05
2.41178e-05
2.59198e-05
2.75579e-05
2.90312e-05
3.03446e-05
3.15076e-05
3.25328e-05
3.34344e-05
3.42267e-05
3.49235e-05
3.55371e-05
3.60781e-05
3.65552e-05
3.69749e-05
3.73423e-05
3.76606e-05
3.7932e-05
3.81573e-05
3.83367e-05
3.84696e-05
3.85511e-05
3.85825e-05
3.85716e-05
3.85073e-05
3.83876e-05
3.82106e-05
3.79741e-05
3.76758e-05
3.73135e-05
3.68848e-05
3.63876e-05
3.58195e-05
3.5179e-05
3.44647e-05
3.36756e-05
3.28113e-05
3.18716e-05
3.08572e-05
2.97691e-05
2.86093e-05
2.73803e-05
2.60857e-05
2.473e-05
2.33191e-05
2.18601e-05
2.03613e-05
1.88329e-05
1.7286e-05
1.57333e-05
1.41884e-05
1.26651e-05
1.11773e-05
9.73832e-06
8.35999e-06
7.05261e-06
5.82445e-06
4.6819e-06
3.62985e-06
2.67279e-06
1.81676e-06
1.07288e-06
4.64997e-07
5.17316e-08
1.36341e-07
1.225e-06
2.81521e-06
4.73195e-06
6.88111e-06
9.19501e-06
1.16159e-05
1.40899e-05
1.65653e-05
1.89936e-05
2.13318e-05
2.35439e-05
2.56028e-05
2.74905e-05
2.91983e-05
3.07255e-05
3.20782e-05
3.32674e-05
3.43074e-05
3.52141e-05
3.60035e-05
3.6691e-05
3.72903e-05
3.78133e-05
3.82696e-05
3.86667e-05
3.90105e-05
3.93048e-05
3.95524e-05
3.97546e-05
3.99119e-05
4.00243e-05
4.00856e-05
4.01036e-05
4.00786e-05
4.00024e-05
3.98731e-05
3.96888e-05
3.94469e-05
3.9145e-05
3.87801e-05
3.83497e-05
3.78509e-05
3.72813e-05
3.66383e-05
3.59204e-05
3.5126e-05
3.42545e-05
3.33053e-05
3.22788e-05
3.11758e-05
2.99976e-05
2.87465e-05
2.74255e-05
2.60386e-05
2.45908e-05
2.30886e-05
2.15399e-05
1.9954e-05
1.83424e-05
1.67177e-05
1.50941e-05
1.34866e-05
1.19108e-05
1.03818e-05
8.91351e-06
7.51833e-06
6.20648e-06
4.98594e-06
3.86278e-06
2.8422e-06
1.93066e-06
1.1396e-06
4.9377e-07
5.49333e-08
1.44568e-07
1.29895e-06
2.98537e-06
5.01841e-06
7.29813e-06
9.7523e-06
1.23189e-05
1.49398e-05
1.75592e-05
2.01245e-05
2.25893e-05
2.49146e-05
2.70714e-05
2.90407e-05
3.08135e-05
3.23898e-05
3.37767e-05
3.49868e-05
3.60361e-05
3.69425e-05
3.77238e-05
3.83969e-05
3.89773e-05
3.9478e-05
3.99098e-05
4.02813e-05
4.0599e-05
4.08678e-05
4.10908e-05
4.12702e-05
4.14068e-05
4.15001e-05
4.15451e-05
4.15533e-05
4.15184e-05
4.14355e-05
4.13025e-05
4.11169e-05
4.08761e-05
4.05767e-05
4.02156e-05
3.97893e-05
3.92945e-05
3.87281e-05
3.80871e-05
3.73691e-05
3.65723e-05
3.56957e-05
3.47386e-05
3.37011e-05
3.2584e-05
3.13884e-05
3.01163e-05
2.87704e-05
2.73543e-05
2.58723e-05
2.43301e-05
2.27349e-05
2.10955e-05
1.94227e-05
1.7729e-05
1.60289e-05
1.43386e-05
1.26747e-05
1.10543e-05
9.49366e-06
8.00746e-06
6.60814e-06
5.30565e-06
4.10754e-06
3.01999e-06
2.05002e-06
1.20942e-06
5.23851e-07
5.82804e-08
1.52735e-07
1.37236e-06
3.15432e-06
5.30283e-06
7.71211e-06
1.03053e-05
1.30159e-05
1.57817e-05
1.85424e-05
2.12418e-05
2.38296e-05
2.62643e-05
2.85149e-05
3.05613e-05
3.23943e-05
3.40147e-05
3.54306e-05
3.66564e-05
3.77099e-05
3.8611e-05
3.93793e-05
4.00337e-05
4.05911e-05
4.1066e-05
4.14705e-05
4.18142e-05
4.21048e-05
4.23476e-05
4.25467e-05
4.27048e-05
4.28234e-05
4.2901e-05
4.29351e-05
4.29377e-05
4.2899e-05
4.2816e-05
4.26864e-05
4.25071e-05
4.22747e-05
4.19854e-05
4.16351e-05
4.12196e-05
4.07348e-05
4.01768e-05
3.9542e-05
3.88274e-05
3.80306e-05
3.71502e-05
3.61855e-05
3.51368e-05
3.40047e-05
3.27906e-05
3.14965e-05
3.0125e-05
2.86795e-05
2.7164e-05
2.55834e-05
2.39442e-05
2.22543e-05
2.05236e-05
1.87642e-05
1.69906e-05
1.52191e-05
1.34679e-05
1.17556e-05
1.01008e-05
8.52066e-06
7.03029e-06
5.64189e-06
4.36489e-06
3.20673e-06
2.17521e-06
1.28255e-06
5.55329e-07
6.17828e-08
1.60793e-07
1.4448e-06
3.32108e-06
5.58356e-06
8.12063e-06
1.08506e-05
1.37028e-05
1.66103e-05
1.9509e-05
2.23384e-05
2.50451e-05
2.75847e-05
2.99244e-05
3.2043e-05
3.39315e-05
3.55908e-05
3.70309e-05
3.82674e-05
3.93205e-05
4.02117e-05
4.09629e-05
4.15947e-05
4.21259e-05
4.25725e-05
4.29478e-05
4.32628e-05
4.35259e-05
4.37437e-05
4.39208e-05
4.40604e-05
4.41647e-05
4.42327e-05
4.42625e-05
4.42645e-05
4.42297e-05
4.41548e-05
4.40369e-05
4.38725e-05
4.36573e-05
4.33865e-05
4.30551e-05
4.2658e-05
4.21899e-05
4.16462e-05
4.10223e-05
4.03146e-05
3.952e-05
3.86367e-05
3.76641e-05
3.66024e-05
3.54528e-05
3.42171e-05
3.28975e-05
3.14973e-05
3.00197e-05
2.84689e-05
2.68493e-05
2.51667e-05
2.34279e-05
2.1642e-05
1.98199e-05
1.79756e-05
1.61256e-05
1.42885e-05
1.24845e-05
1.07344e-05
9.0581e-06
7.47339e-06
5.99525e-06
4.63539e-06
3.40289e-06
2.30654e-06
1.35917e-06
5.88273e-07
6.54481e-08
1.68696e-07
1.51585e-06
3.48465e-06
5.85895e-06
8.52124e-06
1.13851e-05
1.43752e-05
1.74206e-05
2.04527e-05
2.34075e-05
2.62281e-05
2.88676e-05
3.12913e-05
3.34771e-05
3.54159e-05
3.71095e-05
3.85689e-05
3.98118e-05
4.086e-05
4.17375e-05
4.24681e-05
4.30745e-05
4.35771e-05
4.39937e-05
4.43391e-05
4.46255e-05
4.48623e-05
4.50571e-05
4.52152e-05
4.53406e-05
4.54357e-05
4.55015e-05
4.55349e-05
4.55426e-05
4.55205e-05
4.5463e-05
4.53666e-05
4.52269e-05
4.50387e-05
4.47961e-05
4.44929e-05
4.41227e-05
4.36791e-05
4.31563e-05
4.25488e-05
4.1852e-05
4.10622e-05
4.0177e-05
3.91955e-05
3.81185e-05
3.69475e-05
3.56851e-05
3.43345e-05
3.28995e-05
3.13843e-05
2.97933e-05
2.81312e-05
2.64032e-05
2.46152e-05
2.27751e-05
2.08926e-05
1.89805e-05
1.70546e-05
1.51337e-05
1.32392e-05
1.13935e-05
9.61931e-06
7.93747e-06
6.36603e-06
4.91941e-06
3.60877e-06
2.44425e-06
1.43941e-06
6.22733e-07
6.9282e-08
1.76396e-07
1.58509e-06
3.64406e-06
6.12732e-06
8.9115e-06
1.19054e-05
1.50291e-05
1.82074e-05
2.13677e-05
2.44423e-05
2.73712e-05
3.0105e-05
3.26072e-05
3.48551e-05
3.68393e-05
3.85624e-05
4.00368e-05
4.12819e-05
4.23217e-05
4.31822e-05
4.38896e-05
4.44685e-05
4.49412e-05
4.53273e-05
4.5643e-05
4.59019e-05
4.61147e-05
4.62898e-05
4.64334e-05
4.655e-05
4.66425e-05
4.67125e-05
4.67594e-05
4.67812e-05
4.67815e-05
4.67516e-05
4.66873e-05
4.65832e-05
4.6433e-05
4.62294e-05
4.59648e-05
4.56313e-05
4.52212e-05
4.47271e-05
4.41423e-05
4.34613e-05
4.26798e-05
4.17944e-05
4.08038e-05
3.97088e-05
3.85119e-05
3.72165e-05
3.5827e-05
3.43488e-05
3.27873e-05
3.11482e-05
2.94366e-05
2.76578e-05
2.58174e-05
2.39219e-05
2.19795e-05
2.00016e-05
1.80024e-05
1.60003e-05
1.40169e-05
1.20762e-05
1.02033e-05
8.42212e-06
6.7542e-06
5.21711e-06
3.82458e-06
2.58846e-06
1.52333e-06
6.58739e-07
7.32877e-08
1.83844e-07
1.65207e-06
3.79832e-06
6.38701e-06
9.289e-06
1.24082e-05
1.56602e-05
1.89657e-05
2.22481e-05
2.54362e-05
2.84672e-05
3.12893e-05
3.38643e-05
3.61689e-05
3.81936e-05
3.99418e-05
4.14272e-05
4.26712e-05
4.36996e-05
4.45408e-05
4.52231e-05
4.57733e-05
4.62158e-05
4.65717e-05
4.68591e-05
4.70929e-05
4.72849e-05
4.74446e-05
4.7579e-05
4.76932e-05
4.77906e-05
4.78729e-05
4.794e-05
4.79911e-05
4.80218e-05
4.80301e-05
4.80093e-05
4.79527e-05
4.78522e-05
4.76994e-05
4.74852e-05
4.71998e-05
4.68339e-05
4.63783e-05
4.58247e-05
4.51661e-05
4.4397e-05
4.35137e-05
4.25142e-05
4.13996e-05
4.01721e-05
3.88366e-05
3.73992e-05
3.58672e-05
3.4248e-05
3.25491e-05
3.07773e-05
2.89388e-05
2.7039e-05
2.50837e-05
2.30797e-05
2.10361e-05
1.89655e-05
1.68846e-05
1.48146e-05
1.27802e-05
1.08084e-05
8.92647e-06
7.15939e-06
5.52842e-06
4.05035e-06
2.73923e-06
1.61097e-06
6.96299e-07
7.74662e-08
1.90996e-07
1.71639e-06
3.94648e-06
6.63643e-06
9.65139e-06
1.28904e-05
1.62647e-05
1.96907e-05
2.30883e-05
2.6383e-05
2.95093e-05
3.24132e-05
3.50552e-05
3.74111e-05
3.94716e-05
4.12409e-05
4.27339e-05
4.39739e-05
4.49887e-05
4.5809e-05
4.64654e-05
4.69867e-05
4.73994e-05
4.77266e-05
4.7988e-05
4.81998e-05
4.83752e-05
4.85246e-05
4.8656e-05
4.8775e-05
4.88852e-05
4.89886e-05
4.9085e-05
4.9173e-05
4.92489e-05
4.93086e-05
4.934e-05
4.93436e-05
4.93049e-05
4.92158e-05
4.90645e-05
4.88399e-05
4.85304e-05
4.81249e-05
4.76132e-05
4.69863e-05
4.62368e-05
4.53602e-05
4.43537e-05
4.32177e-05
4.19559e-05
4.05736e-05
3.90788e-05
3.74809e-05
3.57902e-05
3.4017e-05
3.21705e-05
3.02589e-05
2.82885e-05
2.62652e-05
2.41943e-05
2.20829e-05
1.99411e-05
1.77831e-05
1.56287e-05
1.35025e-05
1.14327e-05
9.44922e-06
7.58093e-06
5.85305e-06
4.286e-06
2.89654e-06
1.70231e-06
7.35401e-07
8.18162e-08
1.97807e-07
1.77766e-06
4.08764e-06
6.87405e-06
9.99647e-06
1.33491e-05
1.68388e-05
2.0378e-05
2.38832e-05
2.7277e-05
3.04912e-05
3.34702e-05
3.61731e-05
3.85751e-05
4.0667e-05
4.24536e-05
4.39514e-05
4.51852e-05
4.6185e-05
4.69837e-05
4.7614e-05
4.81072e-05
4.84917e-05
4.87924e-05
4.90308e-05
4.92247e-05
4.93883e-05
4.95332e-05
4.96681e-05
4.97992e-05
4.99304e-05
5.00638e-05
5.0199e-05
5.03341e-05
5.04648e-05
5.05855e-05
5.06877e-05
5.07626e-05
5.0795e-05
5.07829e-05
5.07077e-05
5.0557e-05
5.03171e-05
4.99747e-05
4.95171e-05
4.8933e-05
4.82134e-05
4.73514e-05
4.63432e-05
4.51886e-05
4.38907e-05
4.24561e-05
4.08949e-05
3.9219e-05
3.74418e-05
3.55772e-05
3.36382e-05
3.1636e-05
2.95795e-05
2.74751e-05
2.53279e-05
2.31431e-05
2.09277e-05
1.8693e-05
1.6456e-05
1.424e-05
1.20735e-05
9.98866e-06
8.01779e-06
6.19046e-06
4.53127e-06
3.06026e-06
1.79729e-06
7.76012e-07
8.6334e-08
2.04237e-07
1.83551e-06
4.22095e-06
7.09845e-06
1.03222e-05
1.37816e-05
1.73792e-05
2.10236e-05
2.46281e-05
2.81128e-05
3.14074e-05
3.44545e-05
3.72121e-05
3.9655e-05
4.17741e-05
4.35749e-05
4.50751e-05
4.63012e-05
4.72854e-05
4.80626e-05
4.86678e-05
4.91344e-05
4.94929e-05
4.97702e-05
4.99895e-05
5.01698e-05
5.0327e-05
5.04734e-05
5.06185e-05
5.07691e-05
5.09293e-05
5.11012e-05
5.12842e-05
5.1476e-05
5.16717e-05
5.18645e-05
5.20456e-05
5.22046e-05
5.23297e-05
5.24e-05
5.24132e-05
5.23499e-05
5.21937e-05
5.19284e-05
5.15389e-05
5.10113e-05
5.03339e-05
4.94978e-05
4.84972e-05
4.73299e-05
4.59983e-05
4.451e-05
4.28761e-05
4.11113e-05
3.92326e-05
3.72585e-05
3.52066e-05
3.30928e-05
3.09298e-05
2.87266e-05
2.64889e-05
2.42205e-05
2.19259e-05
1.96125e-05
1.72936e-05
1.49896e-05