/*--------------------------------*- C++ -*----------------------------------*\
  =========                 |
  \\      /  F ield         | OpenFOAM: The Open Source CFD Toolbox
   \\    /   O peration     | Website:  https://openfoam.org
    \\  /    A nd           | Version:  12
     \\/     M anipulation  |
\*---------------------------------------------------------------------------*/
FoamFile
{
    format      ascii;
    class       volScalarField;
    location    "4";
    object      epsilon;
}
// * * * * * * * * * * * * * * * * * * * * * * * * * * * * * * * * * * * * * //

dimensions      [0 2 -3 0 0 0 0];

internalField   nonuniform List<scalar> 
5625
(
5.27423e-10
9.95927e-10
2.1105e-09
3.44021e-09
4.93717e-09
6.5652e-09
8.2978e-09
1.01145e-08
1.19985e-08
1.39351e-08
1.59114e-08
1.79152e-08
1.99353e-08
2.19612e-08
2.39826e-08
2.599e-08
2.7974e-08
2.99258e-08
3.18368e-08
3.36988e-08
3.55042e-08
3.72453e-08
3.89151e-08
4.05069e-08
4.20145e-08
4.34318e-08
4.47534e-08
4.59743e-08
4.70897e-08
4.80955e-08
4.8988e-08
4.97639e-08
5.04203e-08
5.09549e-08
5.13658e-08
5.16517e-08
5.18116e-08
5.18451e-08
5.17523e-08
5.15336e-08
5.11902e-08
5.07233e-08
5.01351e-08
4.94277e-08
4.86041e-08
4.76675e-08
4.66217e-08
4.54706e-08
4.42188e-08
4.28712e-08
4.1433e-08
3.991e-08
3.83079e-08
3.66333e-08
3.48927e-08
3.30932e-08
3.12419e-08
2.93465e-08
2.74149e-08
2.54553e-08
2.34762e-08
2.14864e-08
1.94952e-08
1.75123e-08
1.55476e-08
1.36119e-08
1.17167e-08
9.87448e-09
8.09912e-09
6.40685e-09
4.81738e-09
3.35635e-09
2.05887e-09
9.71504e-10
5.14466e-10
3.56744e-09
1.93513e-09
1.88074e-09
2.24503e-09
2.80621e-09
3.48499e-09
4.24326e-09
5.05903e-09
5.9178e-09
6.80891e-09
7.72391e-09
8.65568e-09
9.59793e-09
1.0545e-08
1.14916e-08
1.24329e-08
1.33642e-08
1.42812e-08
1.51796e-08
1.60555e-08
1.69051e-08
1.77248e-08
1.85113e-08
1.92612e-08
1.99716e-08
2.06397e-08
2.12628e-08
2.18384e-08
2.23645e-08
2.2839e-08
2.32601e-08
2.36262e-08
2.3936e-08
2.41883e-08
2.43824e-08
2.45175e-08
2.45932e-08
2.46092e-08
2.45656e-08
2.44627e-08
2.43009e-08
2.40809e-08
2.38035e-08
2.347e-08
2.30817e-08
2.26401e-08
2.21469e-08
2.16042e-08
2.10139e-08
2.03786e-08
1.97007e-08
1.89828e-08
1.82278e-08
1.74389e-08
1.66191e-08
1.57718e-08
1.49005e-08
1.4009e-08
1.3101e-08
1.21806e-08
1.1252e-08
1.03197e-08
9.38829e-09
8.46285e-09
7.54878e-09
6.65208e-09
5.77959e-09
4.93944e-09
4.14188e-09
3.40097e-09
2.73804e-09
2.19016e-09
1.83459e-09
1.88758e-09
3.47981e-09
7.93135e-09
3.87764e-09
2.98516e-09
2.81441e-09
2.94711e-09
3.24679e-09
3.65198e-09
4.12927e-09
4.65808e-09
5.22452e-09
5.8185e-09
6.43223e-09
7.05939e-09
7.69464e-09
8.33332e-09
8.97128e-09
9.60474e-09
1.02302e-08
1.08444e-08
1.14444e-08
1.20273e-08
1.25904e-08
1.31313e-08
1.36475e-08
1.4137e-08
1.45975e-08
1.50274e-08
1.54247e-08
1.57881e-08
1.61159e-08
1.64069e-08
1.666e-08
1.68743e-08
1.70489e-08
1.71833e-08
1.72769e-08
1.73294e-08
1.73406e-08
1.73106e-08
1.72396e-08
1.71278e-08
1.69757e-08
1.6784e-08
1.65535e-08
1.62851e-08
1.59799e-08
1.56391e-08
1.52641e-08
1.48565e-08
1.44179e-08
1.39501e-08
1.34551e-08
1.29349e-08
1.23917e-08
1.18278e-08
1.12458e-08
1.06483e-08
1.0038e-08
9.4178e-09
8.79095e-09
8.16079e-09
7.53094e-09
6.90543e-09
6.28873e-09
5.68597e-09
5.10326e-09
4.54811e-09
4.0303e-09
3.56329e-09
3.1671e-09
2.87422e-09
2.74454e-09
2.91108e-09
3.78168e-09
7.73547e-09
1.31201e-08
6.27874e-09
4.54505e-09
3.91208e-09
3.71484e-09
3.74682e-09
3.91936e-09
4.18615e-09
4.51953e-09
4.90137e-09
5.31896e-09
5.7628e-09
6.22551e-09
6.70112e-09
7.18462e-09
7.67172e-09
8.15864e-09
8.642e-09
9.11874e-09
9.58607e-09
1.00414e-08
1.04824e-08
1.09068e-08
1.13127e-08
1.1698e-08
1.20611e-08
1.24003e-08
1.27141e-08
1.30013e-08
1.32606e-08
1.34909e-08
1.36914e-08
1.38611e-08
1.39995e-08
1.4106e-08
1.41801e-08
1.42217e-08
1.42305e-08
1.42066e-08
1.41501e-08
1.40613e-08
1.39406e-08
1.37884e-08
1.36054e-08
1.33925e-08
1.31505e-08
1.28804e-08
1.25835e-08
1.22609e-08
1.19141e-08
1.15446e-08
1.11541e-08
1.07443e-08
1.03171e-08
9.87459e-09
9.41895e-09
8.95252e-09
8.47782e-09
7.99759e-09
7.5148e-09
7.03274e-09
6.55507e-09
6.08595e-09
5.63022e-09
5.19368e-09
4.78346e-09
4.40876e-09
4.08195e-09
3.82062e-09
3.65171e-09
3.62033e-09
3.81281e-09
4.43041e-09
6.12138e-09
1.27923e-08
1.89017e-08
8.98067e-09
6.35995e-09
5.27537e-09
4.77948e-09
4.58397e-09
4.56852e-09
4.67206e-09
4.85911e-09
5.10698e-09
5.40004e-09
5.72689e-09
6.07885e-09
6.44903e-09
6.83179e-09
7.22241e-09
7.61682e-09
8.01148e-09
8.40325e-09
8.7893e-09
9.16708e-09
9.53426e-09
9.88872e-09
1.02285e-08
1.05518e-08
1.08569e-08
1.11424e-08
1.1407e-08
1.16493e-08
1.18682e-08
1.20628e-08
1.22323e-08
1.23758e-08
1.24927e-08
1.25827e-08
1.26452e-08
1.26801e-08
1.26871e-08
1.26665e-08
1.26181e-08
1.25422e-08
1.24393e-08
1.23097e-08
1.21541e-08
1.19732e-08
1.17677e-08
1.15386e-08
1.1287e-08
1.1014e-08
1.07209e-08
1.04092e-08
1.00804e-08
9.73609e-09
9.37815e-09
9.00853e-09
8.62933e-09
8.24288e-09
7.85168e-09
7.45852e-09
7.06647e-09
6.67899e-09
6.30004e-09
5.9342e-09
5.58693e-09
5.26491e-09
4.97657e-09
4.73299e-09
4.54937e-09
4.44777e-09
4.46273e-09
4.65369e-09
5.13781e-09
6.1959e-09
8.7511e-09
1.84205e-08
2.513e-08
1.19021e-08
8.34709e-09
6.80477e-09
6.0203e-09
5.61504e-09
5.4332e-09
5.3971e-09
5.46253e-09
5.60176e-09
5.79602e-09
6.03186e-09
6.29919e-09
6.59012e-09
6.8983e-09
7.21847e-09
7.54619e-09
7.87762e-09
8.20942e-09
8.53863e-09
8.86258e-09
9.17889e-09
9.4854e-09
9.78014e-09
1.00613e-08
1.03273e-08
1.05767e-08
1.0808e-08
1.10202e-08
1.12121e-08
1.13827e-08
1.15313e-08
1.16572e-08
1.17597e-08
1.18383e-08
1.18928e-08
1.19228e-08
1.19283e-08
1.19093e-08
1.18657e-08
1.17979e-08
1.17062e-08
1.1591e-08
1.14529e-08
1.12926e-08
1.11108e-08
1.09084e-08
1.06864e-08
1.04461e-08
1.01885e-08
9.91523e-09
9.62766e-09
9.32747e-09
9.01648e-09
8.69665e-09
8.37015e-09
8.03935e-09
7.70686e-09
7.37561e-09
7.04887e-09
6.73039e-09
6.42451e-09
6.13633e-09
5.87204e-09
5.63928e-09
5.44787e-09
5.31085e-09
5.24646e-09
5.28168e-09
5.4595e-09
5.85549e-09
6.62122e-09
8.12524e-09
1.15893e-08
2.44727e-08
3.16978e-08
1.49882e-08
1.04586e-08
8.44857e-09
7.37782e-09
6.77125e-09
6.43479e-09
6.2727e-09
6.23117e-09
6.27694e-09
6.38783e-09
6.54818e-09
6.74638e-09
6.97348e-09
7.22235e-09
7.48715e-09
7.76301e-09
8.04577e-09
8.33183e-09
8.61802e-09
8.90156e-09
9.17993e-09
9.4509e-09
9.71244e-09
9.96273e-09
1.02001e-08
1.0423e-08
1.06302e-08
1.08205e-08
1.09926e-08
1.11458e-08
1.12792e-08
1.13921e-08
1.14838e-08
1.1554e-08
1.16023e-08
1.16284e-08
1.16322e-08
1.16137e-08
1.15731e-08
1.15104e-08
1.14261e-08
1.13205e-08
1.11943e-08
1.1048e-08
1.08825e-08
1.06987e-08
1.04975e-08
1.02801e-08
1.00478e-08
9.80196e-09
9.54408e-09
9.27588e-09
8.99921e-09
8.7161e-09
8.42879e-09
8.13977e-09
7.85183e-09
7.56807e-09
7.29203e-09
7.0278e-09
6.78011e-09
6.55464e-09
6.3583e-09
6.19976e-09
6.09031e-09
6.04514e-09
6.08578e-09
6.24455e-09
6.57374e-09
7.16636e-09
8.21106e-09
1.01698e-08
1.45795e-08
3.08384e-08
3.85191e-08
1.81964e-08
1.26608e-08
1.01737e-08
8.81629e-09
8.01272e-09
7.52867e-09
7.24921e-09
7.11028e-09
7.07268e-09
7.11054e-09
7.20583e-09
7.3453e-09
7.51886e-09
7.71857e-09
7.93797e-09
8.17172e-09
8.41531e-09
8.66484e-09
8.91696e-09
9.16867e-09
9.41736e-09
9.66065e-09
9.89645e-09
1.01228e-08
1.03381e-08
1.05408e-08
1.07294e-08
1.09028e-08
1.10598e-08
1.11995e-08
1.13211e-08
1.14238e-08
1.15071e-08
1.15704e-08
1.16136e-08
1.16362e-08
1.16382e-08
1.16196e-08
1.15804e-08
1.15209e-08
1.14414e-08
1.13424e-08
1.12244e-08
1.1088e-08
1.09341e-08
1.07636e-08
1.05774e-08
1.03769e-08
1.01631e-08
9.93766e-09
9.70206e-09
9.45806e-09
9.2076e-09
8.95281e-09
8.69603e-09
8.4399e-09
8.18735e-09
7.94173e-09
7.70682e-09
7.48707e-09
7.28765e-09
7.11485e-09
6.97635e-09
6.88195e-09
6.84444e-09
6.88134e-09
7.0177e-09
7.29159e-09
7.76512e-09
8.54983e-09
9.87317e-09
1.22943e-08
1.76771e-08
3.74264e-08
4.55221e-08
2.14921e-08
1.49273e-08
1.19559e-08
1.0311e-08
9.313e-09
8.68598e-09
8.29505e-09
8.06543e-09
7.95163e-09
7.92391e-09
7.96166e-09
8.04994e-09
8.17744e-09
8.33533e-09
8.51651e-09
8.71514e-09
8.92633e-09
9.1459e-09
9.37023e-09
9.59617e-09
9.82091e-09
1.0042e-08
1.02572e-08
1.04645e-08
1.06622e-08
1.08487e-08
1.10226e-08
1.11825e-08
1.13274e-08
1.14562e-08
1.15683e-08
1.16627e-08
1.17389e-08
1.17965e-08
1.18351e-08
1.18544e-08
1.18543e-08
1.18349e-08
1.17962e-08
1.17384e-08
1.16619e-08
1.15672e-08
1.14548e-08
1.13253e-08
1.11797e-08
1.10188e-08
1.08437e-08
1.06556e-08
1.04558e-08
1.02459e-08
1.00274e-08
9.80217e-09
9.57223e-09
9.3398e-09
9.10738e-09
8.87774e-09
8.65401e-09
8.43975e-09
8.23907e-09
8.05673e-09
7.89842e-09
7.771e-09
7.68303e-09
7.64541e-09
7.67261e-09
7.78456e-09
8.01005e-09
8.39312e-09
9.00618e-09
9.97988e-09
1.15816e-08
1.44702e-08
2.08439e-08
4.41579e-08
5.26442e-08
2.48451e-08
1.72363e-08
1.37759e-08
1.18432e-08
1.06527e-08
9.8862e-09
9.3882e-09
9.07289e-09
8.8883e-09
8.80062e-09
8.78658e-09
8.82942e-09
8.91655e-09
9.03823e-09
9.18666e-09
9.3555e-09
9.53943e-09
9.73398e-09
9.93526e-09
1.01399e-08
1.0345e-08
1.05479e-08
1.07463e-08
1.09382e-08
1.11216e-08
1.12949e-08
1.14567e-08
1.16056e-08
1.17405e-08
1.18604e-08
1.19644e-08
1.20517e-08
1.21219e-08
1.21743e-08
1.22087e-08
1.22247e-08
1.22223e-08
1.22015e-08
1.21624e-08
1.21052e-08
1.20303e-08
1.19381e-08
1.18293e-08
1.17045e-08
1.15646e-08
1.14106e-08
1.12435e-08
1.10646e-08
1.08753e-08
1.06772e-08
1.04718e-08
1.02612e-08
1.00475e-08
9.83294e-09
9.62019e-09
9.4122e-09
9.21227e-09
9.02423e-09
8.85246e-09
8.70212e-09
8.57938e-09
8.49176e-09
8.44865e-09
8.46219e-09
8.54855e-09
8.73017e-09
9.03971e-09
9.52736e-09
1.02761e-08
1.1436e-08
1.3315e-08
1.66729e-08
2.40458e-08
5.09617e-08
5.98304e-08
2.82293e-08
1.95688e-08
1.56177e-08
1.33976e-08
1.20168e-08
1.11137e-08
1.05122e-08
1.01152e-08
9.86406e-09
9.72086e-09
9.65956e-09
9.66151e-09
9.71279e-09
9.80269e-09
9.92271e-09
1.0066e-08
1.02267e-08
1.04001e-08
1.05821e-08
1.0769e-08
1.09577e-08
1.11456e-08
1.13301e-08
1.15092e-08
1.16807e-08
1.18432e-08
1.19949e-08
1.21346e-08
1.22611e-08
1.23734e-08
1.24704e-08
1.25516e-08
1.26163e-08
1.2664e-08
1.26943e-08
1.2707e-08
1.2702e-08
1.26793e-08
1.2639e-08
1.25814e-08
1.25069e-08
1.24158e-08
1.2309e-08
1.2187e-08
1.20508e-08
1.19014e-08
1.174e-08
1.15677e-08
1.13861e-08
1.11968e-08
1.10015e-08
1.08022e-08
1.06012e-08
1.04009e-08
1.02041e-08
1.00139e-08
9.83378e-09
9.66781e-09
9.5207e-09
9.39801e-09
9.3064e-09
9.25406e-09
9.25128e-09
9.31142e-09
9.45244e-09
9.69935e-09
1.00887e-08
1.0677e-08
1.15578e-08
1.29007e-08
1.50546e-08
1.88799e-08
2.72516e-08
5.77723e-08
6.70319e-08
3.16214e-08
2.19083e-08
1.74672e-08
1.49617e-08
1.33928e-08
1.23559e-08
1.1654e-08
1.11787e-08
1.08646e-08
1.06695e-08
1.05647e-08
1.05294e-08
1.05485e-08
1.06103e-08
1.07054e-08
1.08264e-08
1.09672e-08
1.11226e-08
1.12882e-08
1.14602e-08
1.16354e-08
1.18107e-08
1.19836e-08
1.21519e-08
1.23136e-08
1.24669e-08
1.26102e-08
1.27421e-08
1.28614e-08
1.29669e-08
1.30579e-08
1.31335e-08
1.31932e-08
1.32363e-08
1.32626e-08
1.32718e-08
1.32639e-08
1.32387e-08
1.31966e-08
1.31377e-08
1.30624e-08
1.29713e-08
1.2865e-08
1.27444e-08
1.26102e-08
1.24635e-08
1.23056e-08
1.21378e-08
1.19616e-08
1.17787e-08
1.15908e-08
1.14002e-08
1.12091e-08
1.10202e-08
1.08362e-08
1.06605e-08
1.04969e-08
1.03496e-08
1.02236e-08
1.01249e-08
1.00608e-08
1.00399e-08
1.00737e-08
1.01766e-08
1.03685e-08
1.06768e-08
1.11422e-08
1.18274e-08
1.28365e-08
1.43587e-08
1.67832e-08
2.10708e-08
3.04322e-08
6.45283e-08
7.42052e-08
3.50008e-08
2.42403e-08
1.93125e-08
1.65244e-08
1.47703e-08
1.36025e-08
1.28032e-08
1.22525e-08
1.18786e-08
1.16347e-08
1.14894e-08
1.142e-08
1.141e-08
1.14465e-08
1.15196e-08
1.16213e-08
1.17448e-08
1.18848e-08
1.20365e-08
1.21959e-08
1.23594e-08
1.25242e-08
1.26874e-08
1.28467e-08
1.30001e-08
1.31456e-08
1.32816e-08
1.34067e-08
1.35196e-08
1.36193e-08
1.37047e-08
1.37751e-08
1.38299e-08
1.38686e-08
1.38908e-08
1.38963e-08
1.3885e-08
1.38569e-08
1.38122e-08
1.37512e-08
1.36743e-08
1.3582e-08
1.34751e-08
1.33543e-08
1.32207e-08
1.30752e-08
1.29191e-08
1.27539e-08
1.25811e-08
1.24024e-08
1.22199e-08
1.20356e-08
1.1852e-08
1.16718e-08
1.14981e-08
1.13343e-08
1.11843e-08
1.10527e-08
1.09449e-08
1.08671e-08
1.08272e-08
1.08347e-08
1.09017e-08
1.1044e-08
1.12833e-08
1.16496e-08
1.21875e-08
1.29658e-08
1.40991e-08
1.57959e-08
1.84851e-08
2.32262e-08
3.35601e-08
7.11715e-08
8.13118e-08
3.83493e-08
2.65519e-08
2.11432e-08
1.80765e-08
1.61405e-08
1.48448e-08
1.39509e-08
1.33277e-08
1.28966e-08
1.26067e-08
1.24236e-08
1.23227e-08
1.22861e-08
1.22999e-08
1.23534e-08
1.2438e-08
1.25465e-08
1.26732e-08
1.28129e-08
1.29615e-08
1.31153e-08
1.32711e-08
1.34261e-08
1.35777e-08
1.37239e-08
1.38627e-08
1.39924e-08
1.41115e-08
1.42187e-08
1.43129e-08
1.43931e-08
1.44586e-08
1.45087e-08
1.45428e-08
1.45608e-08
1.45622e-08
1.45471e-08
1.45155e-08
1.44676e-08
1.44037e-08
1.43242e-08
1.42298e-08
1.41211e-08
1.3999e-08
1.38645e-08
1.37187e-08
1.3563e-08
1.33987e-08
1.32276e-08
1.30514e-08
1.28722e-08
1.26923e-08
1.25141e-08
1.23405e-08
1.21747e-08
1.20204e-08
1.18816e-08
1.17632e-08
1.16709e-08
1.16115e-08
1.15931e-08
1.1626e-08
1.17232e-08
1.1902e-08
1.21854e-08
1.26064e-08
1.32131e-08
1.40805e-08
1.53335e-08
1.71992e-08
2.01454e-08
2.53278e-08
3.6609e-08
7.76466e-08
8.83178e-08
4.16509e-08
2.88319e-08
2.29499e-08
1.96097e-08
1.74957e-08
1.60753e-08
1.50898e-08
1.43968e-08
1.3911e-08
1.35775e-08
1.33589e-08
1.32289e-08
1.31679e-08
1.31611e-08
1.3197e-08
1.32664e-08
1.33618e-08
1.34768e-08
1.36062e-08
1.37456e-08
1.3891e-08
1.40391e-08
1.4187e-08
1.4332e-08
1.44719e-08
1.46048e-08
1.47288e-08
1.48424e-08
1.49443e-08
1.50334e-08
1.51086e-08
1.51692e-08
1.52145e-08
1.5244e-08
1.52573e-08
1.52544e-08
1.5235e-08
1.51993e-08
1.51475e-08
1.50799e-08
1.4997e-08
1.48994e-08
1.47879e-08
1.46633e-08
1.45267e-08
1.43794e-08
1.42226e-08
1.40578e-08
1.38868e-08
1.37115e-08
1.3534e-08
1.33566e-08
1.3182e-08
1.30131e-08
1.28532e-08
1.27063e-08
1.25766e-08
1.24692e-08
1.23901e-08
1.23465e-08
1.23472e-08
1.24029e-08
1.25277e-08
1.274e-08
1.30646e-08
1.35368e-08
1.42086e-08
1.51609e-08
1.65283e-08
1.85563e-08
2.17499e-08
2.73579e-08
3.95539e-08
8.39003e-08
9.51942e-08
4.48917e-08
3.10707e-08
2.4725e-08
2.11172e-08
1.88295e-08
1.7288e-08
1.62137e-08
1.54535e-08
1.49155e-08
1.45406e-08
1.42887e-08
1.41314e-08
1.40479e-08
1.40223e-08
1.40423e-08
1.40982e-08
1.41818e-08
1.42866e-08
1.44071e-08
1.45384e-08
1.46765e-08
1.48179e-08
1.49596e-08
1.50988e-08
1.52331e-08
1.53606e-08
1.54794e-08
1.55879e-08
1.56847e-08
1.57687e-08
1.58389e-08
1.58945e-08
1.59349e-08
1.59594e-08
1.59679e-08
1.596e-08
1.59359e-08
1.58954e-08
1.5839e-08
1.57669e-08
1.56797e-08
1.5578e-08
1.54626e-08
1.53345e-08
1.51947e-08
1.50446e-08
1.48854e-08
1.47188e-08
1.45466e-08
1.43707e-08
1.41933e-08
1.40168e-08
1.38441e-08
1.36782e-08
1.35225e-08
1.33811e-08
1.32586e-08
1.31602e-08
1.30923e-08
1.30624e-08
1.30797e-08
1.31558e-08
1.33057e-08
1.35486e-08
1.39114e-08
1.44315e-08
1.51645e-08
1.61969e-08
1.7673e-08
1.98554e-08
2.32853e-08
2.92999e-08
4.23704e-08
8.98814e-08
1.01916e-07
4.80602e-08
3.32602e-08
2.64618e-08
2.25932e-08
2.01366e-08
1.84775e-08
1.73175e-08
1.64927e-08
1.59048e-08
1.54905e-08
1.52071e-08
1.50243e-08
1.49199e-08
1.48771e-08
1.48827e-08
1.49263e-08
1.49995e-08
1.50952e-08
1.52077e-08
1.53319e-08
1.54636e-08
1.55991e-08
1.57352e-08
1.58691e-08
1.59983e-08
1.61207e-08
1.62345e-08
1.6338e-08
1.64298e-08
1.65088e-08
1.65739e-08
1.66242e-08
1.66593e-08
1.66785e-08
1.66815e-08
1.66683e-08
1.66386e-08
1.65928e-08
1.65309e-08
1.64535e-08
1.63611e-08
1.62543e-08
1.61341e-08
1.60014e-08
1.58573e-08
1.57032e-08
1.55405e-08
1.53708e-08
1.5196e-08
1.50182e-08
1.48395e-08
1.46626e-08
1.44903e-08
1.43258e-08
1.41728e-08
1.40353e-08
1.39181e-08
1.38269e-08
1.37682e-08
1.37499e-08
1.37818e-08
1.38761e-08
1.40484e-08
1.43193e-08
1.47171e-08
1.52816e-08
1.60717e-08
1.71793e-08
1.87575e-08
2.10855e-08
2.47384e-08
3.11375e-08
4.50354e-08
9.55406e-08
1.08465e-07
5.1147e-08
3.53938e-08
2.81549e-08
2.4033e-08
2.14125e-08
1.96397e-08
1.83971e-08
1.75102e-08
1.68744e-08
1.64228e-08
1.61096e-08
1.59029e-08
1.57791e-08
1.57203e-08
1.57126e-08
1.57451e-08
1.58088e-08
1.58964e-08
1.60018e-08
1.61196e-08
1.62455e-08
1.63755e-08
1.65065e-08
1.66354e-08
1.67597e-08
1.68772e-08
1.6986e-08
1.70845e-08
1.71712e-08
1.72448e-08
1.73045e-08
1.73493e-08
1.73786e-08
1.73919e-08
1.73889e-08
1.73696e-08
1.73338e-08
1.72817e-08
1.72136e-08
1.713e-08
1.70315e-08
1.69188e-08
1.67927e-08
1.66543e-08
1.65049e-08
1.63457e-08
1.61783e-08
1.60043e-08
1.58258e-08
1.56447e-08
1.54636e-08
1.52849e-08
1.51116e-08
1.49471e-08
1.47951e-08
1.466e-08
1.45466e-08
1.44609e-08
1.44096e-08
1.44011e-08
1.44455e-08
1.45557e-08
1.4748e-08
1.50442e-08
1.54738e-08
1.6079e-08
1.69217e-08
1.80989e-08
1.97721e-08
2.22359e-08
2.60968e-08
3.28552e-08
4.75263e-08
1.0083e-07
1.14823e-07
5.41449e-08
3.74664e-08
2.98004e-08
2.54329e-08
2.26539e-08
2.07714e-08
1.94491e-08
1.85026e-08
1.78212e-08
1.73339e-08
1.69926e-08
1.67634e-08
1.66213e-08
1.65477e-08
1.65278e-08
1.655e-08
1.66051e-08
1.66852e-08
1.6784e-08
1.68959e-08
1.70164e-08
1.71413e-08
1.72673e-08
1.73914e-08
1.75108e-08
1.76234e-08
1.77272e-08
1.78204e-08
1.79016e-08
1.79696e-08
1.80233e-08
1.8062e-08
1.80849e-08
1.80917e-08
1.80821e-08
1.80558e-08
1.80131e-08
1.79539e-08
1.78787e-08
1.7788e-08
1.76824e-08
1.75626e-08
1.74297e-08
1.72846e-08
1.71287e-08
1.69634e-08
1.67902e-08
1.66108e-08
1.64273e-08
1.62419e-08
1.6057e-08
1.58752e-08
1.56998e-08
1.5534e-08
1.53817e-08
1.52475e-08
1.51364e-08
1.50546e-08
1.5009e-08
1.50085e-08
1.50634e-08
1.51873e-08
1.53972e-08
1.57157e-08
1.6174e-08
1.6816e-08
1.77066e-08
1.89474e-08
2.07077e-08
2.32962e-08
2.73487e-08
3.4438e-08
4.98215e-08
1.05704e-07
1.20982e-07
5.70487e-08
3.94745e-08
3.13952e-08
2.67904e-08
2.38584e-08
2.18701e-08
2.04712e-08
1.94676e-08
1.87425e-08
1.82212e-08
1.78532e-08
1.76027e-08
1.74436e-08
1.7356e-08
1.73246e-08
1.73374e-08
1.73844e-08
1.74576e-08
1.75502e-08
1.76565e-08
1.77718e-08
1.78918e-08
1.80129e-08
1.8132e-08
1.82464e-08
1.83538e-08
1.84522e-08
1.85397e-08
1.8615e-08
1.86768e-08
1.8724e-08
1.87559e-08
1.87717e-08
1.87712e-08
1.8754e-08
1.872e-08
1.86693e-08
1.86021e-08
1.85188e-08
1.842e-08
1.83062e-08
1.81784e-08
1.80375e-08
1.78847e-08
1.77213e-08
1.75486e-08
1.73685e-08
1.71827e-08
1.69931e-08
1.68022e-08
1.66123e-08
1.64264e-08
1.62475e-08
1.60791e-08
1.59253e-08
1.57907e-08
1.56805e-08
1.5601e-08
1.55596e-08
1.55651e-08
1.56287e-08
1.5764e-08
1.59889e-08
1.63271e-08
1.68106e-08
1.74852e-08
1.84188e-08
1.97168e-08
2.15556e-08
2.42567e-08
2.84826e-08
3.58714e-08
5.19002e-08
1.10119e-07
1.26935e-07
5.98557e-08
4.1416e-08
3.29376e-08
2.81039e-08
2.50244e-08
2.29342e-08
2.14619e-08
2.04034e-08
1.96365e-08
1.90829e-08
1.86895e-08
1.84188e-08
1.82435e-08
1.81428e-08
1.81007e-08
1.81045e-08
1.81438e-08
1.82104e-08
1.82971e-08
1.8398e-08
1.85081e-08
1.86231e-08
1.87391e-08
1.88531e-08
1.89622e-08
1.9064e-08
1.91564e-08
1.92378e-08
1.93065e-08
1.93613e-08
1.94012e-08
1.94254e-08
1.94333e-08
1.94245e-08
1.93987e-08
1.93559e-08
1.92963e-08
1.922e-08
1.91275e-08
1.90194e-08
1.88964e-08
1.87594e-08
1.86095e-08
1.84478e-08
1.82756e-08
1.80947e-08
1.79065e-08
1.7713e-08
1.75163e-08
1.73188e-08
1.71229e-08
1.69316e-08
1.67481e-08
1.6576e-08
1.64194e-08
1.6283e-08
1.61723e-08
1.60937e-08
1.60548e-08
1.60648e-08
1.61349e-08
1.62796e-08
1.6517e-08
1.68717e-08
1.73769e-08
1.808e-08
1.9051e-08
2.03993e-08
2.23073e-08
2.51081e-08
2.94875e-08
3.71418e-08
5.37426e-08
1.14032e-07
1.3268e-07
6.25652e-08
4.32905e-08
3.44272e-08
2.93728e-08
2.61514e-08
2.39633e-08
2.24202e-08
2.13092e-08
2.05023e-08
1.99178e-08
1.95002e-08
1.92103e-08
1.90196e-08
1.89065e-08
1.88541e-08
1.88493e-08
1.88814e-08
1.89415e-08
1.90224e-08
1.91179e-08
1.92227e-08
1.93324e-08
1.94431e-08
1.95515e-08
1.96548e-08
1.97504e-08
1.98363e-08
1.99106e-08
1.99719e-08
2.00189e-08
2.00505e-08
2.00661e-08
2.00649e-08
2.00467e-08
2.00113e-08
1.99585e-08
1.98887e-08
1.98021e-08
1.96992e-08
1.95806e-08
1.94472e-08
1.92998e-08
1.91396e-08
1.89678e-08
1.87859e-08
1.85954e-08
1.8398e-08
1.81958e-08
1.79908e-08
1.77855e-08
1.75825e-08
1.73848e-08
1.71955e-08
1.70185e-08
1.68579e-08
1.67186e-08
1.66061e-08
1.6527e-08
1.6489e-08
1.65017e-08
1.65765e-08
1.67282e-08
1.69756e-08
1.73437e-08
1.78669e-08
1.85939e-08
1.95967e-08
2.09878e-08
2.29552e-08
2.58416e-08
3.03531e-08
3.82361e-08
5.53298e-08
1.17403e-07
1.38221e-07
6.51786e-08
4.50989e-08
3.58647e-08
3.05977e-08
2.72396e-08
2.49573e-08
2.33463e-08
2.21848e-08
2.13397e-08
2.07255e-08
2.02847e-08
1.99765e-08
1.97712e-08
1.96461e-08
1.95839e-08
1.95709e-08
1.95958e-08
1.96496e-08
1.97246e-08
1.98144e-08
1.99137e-08
2.00178e-08
2.01227e-08
2.0225e-08
2.03217e-08
2.04104e-08
2.04889e-08
2.05554e-08
2.06082e-08
2.06463e-08
2.06685e-08
2.06742e-08
2.06628e-08
2.06339e-08
2.05875e-08
2.05235e-08
2.04421e-08
2.03439e-08
2.02292e-08
2.00988e-08
1.99535e-08
1.97945e-08
1.96227e-08
1.94396e-08
1.92466e-08
1.90454e-08
1.88377e-08
1.86256e-08
1.84112e-08
1.81971e-08
1.79858e-08
1.77805e-08
1.75844e-08
1.74014e-08
1.72357e-08
1.70921e-08
1.69765e-08
1.68954e-08
1.68569e-08
1.68704e-08
1.69479e-08
1.71044e-08
1.7359e-08
1.77375e-08
1.82749e-08
1.9021e-08
2.00495e-08
2.14757e-08
2.34919e-08
2.64489e-08
3.10697e-08
3.91421e-08
5.6644e-08
1.20195e-07
1.43565e-07
6.76994e-08
4.68434e-08
3.72517e-08
3.17799e-08
2.82901e-08
2.59171e-08
2.42409e-08
2.30309e-08
2.21489e-08
2.15064e-08
2.10434e-08
2.07176e-08
2.04981e-08
2.03616e-08
2.02899e-08
2.02688e-08
2.02866e-08
2.03339e-08
2.04029e-08
2.04869e-08
2.05802e-08
2.06782e-08
2.07767e-08
2.08721e-08
2.09616e-08
2.10424e-08
2.11125e-08
2.11699e-08
2.12132e-08
2.12411e-08
2.12526e-08
2.12471e-08
2.12239e-08
2.11829e-08
2.1124e-08
2.10472e-08
2.09529e-08
2.08414e-08
2.07134e-08
2.05698e-08
2.04113e-08
2.02391e-08
2.00544e-08
1.98586e-08
1.96532e-08
1.944e-08
1.92207e-08
1.89975e-08
1.87726e-08
1.85484e-08
1.83279e-08
1.81139e-08
1.79099e-08
1.77197e-08
1.75477e-08
1.73987e-08
1.72787e-08
1.71943e-08
1.71536e-08
1.71663e-08
1.72445e-08
1.74034e-08
1.76626e-08
1.80481e-08
1.85956e-08
1.93558e-08
2.04038e-08
2.18568e-08
2.39107e-08
2.69225e-08
3.16283e-08
3.98483e-08
5.76687e-08
1.22372e-07
1.48724e-07
7.01329e-08
4.85279e-08
3.85911e-08
3.29217e-08
2.9305e-08
2.68445e-08
2.51053e-08
2.38486e-08
2.29312e-08
2.22613e-08
2.17769e-08
2.14342e-08
2.12011e-08
2.10534e-08
2.09724e-08
2.09433e-08
2.0954e-08
2.09947e-08
2.10574e-08
2.11351e-08
2.1222e-08
2.13133e-08
2.14046e-08
2.14924e-08
2.15735e-08
2.16454e-08
2.17059e-08
2.1753e-08
2.17853e-08
2.18016e-08
2.18009e-08
2.17826e-08
2.17461e-08
2.16913e-08
2.16182e-08
2.1527e-08
2.14179e-08
2.12916e-08
2.11487e-08
2.09901e-08
2.08168e-08
2.06299e-08
2.04308e-08
2.02208e-08
2.00016e-08
1.9775e-08
1.95429e-08
1.93073e-08
1.90707e-08
1.88354e-08
1.86044e-08
1.83806e-08
1.81676e-08
1.79691e-08
1.77896e-08
1.76341e-08
1.75084e-08
1.74192e-08
1.73748e-08
1.7385e-08
1.74619e-08
1.76209e-08
1.78818e-08
1.82709e-08
1.88244e-08
1.95936e-08
2.06544e-08
2.21256e-08
2.42054e-08
2.72554e-08
3.20208e-08
4.03446e-08
5.83889e-08
1.23903e-07
1.53713e-07
7.24867e-08
5.01571e-08
3.98868e-08
3.40263e-08
3.02867e-08
2.77418e-08
2.59417e-08
2.46398e-08
2.36881e-08
2.29918e-08
2.24867e-08
2.21276e-08
2.18813e-08
2.17227e-08
2.16326e-08
2.15954e-08
2.15989e-08
2.16329e-08
2.16889e-08
2.17598e-08
2.18397e-08
2.19235e-08
2.20068e-08
2.20859e-08
2.21576e-08
2.22194e-08
2.22688e-08
2.23042e-08
2.2324e-08
2.2327e-08
2.23124e-08
2.22795e-08
2.22279e-08
2.21575e-08
2.20683e-08
2.19607e-08
2.18351e-08
2.1692e-08
2.15324e-08
2.1357e-08
2.11671e-08
2.09638e-08
2.07486e-08
2.05229e-08
2.02885e-08
2.00471e-08
1.98007e-08
1.95515e-08
1.93018e-08
1.90542e-08
1.88115e-08
1.85769e-08
1.83537e-08
1.81459e-08
1.79578e-08
1.77945e-08
1.76618e-08
1.75666e-08
1.75169e-08
1.75228e-08
1.75963e-08
1.7753e-08
1.80127e-08
1.8402e-08
1.89573e-08
1.973e-08
2.07968e-08
2.22772e-08
2.43708e-08
2.74416e-08
3.224e-08
4.06217e-08
5.87915e-08
1.24759e-07
1.58552e-07
7.47693e-08
5.17373e-08
4.11433e-08
3.50975e-08
3.12388e-08
2.86117e-08
2.67526e-08
2.54069e-08
2.44219e-08
2.37e-08
2.31748e-08
2.27997e-08
2.25405e-08
2.23713e-08
2.2272e-08
2.22269e-08
2.2223e-08
2.22499e-08
2.22988e-08
2.23625e-08
2.24347e-08
2.25101e-08
2.25843e-08
2.26536e-08
2.27147e-08
2.27648e-08
2.28018e-08
2.28238e-08
2.28293e-08
2.28172e-08
2.27867e-08
2.27372e-08
2.26684e-08
2.25803e-08
2.2473e-08
2.2347e-08
2.22026e-08
2.20408e-08
2.18623e-08
2.16683e-08
2.14599e-08
2.12384e-08
2.10053e-08
2.07622e-08
2.05108e-08
2.02531e-08
1.9991e-08
1.97268e-08
1.94628e-08
1.92017e-08
1.89462e-08
1.86995e-08
1.84651e-08
1.82468e-08
1.8049e-08
1.78768e-08
1.77358e-08
1.76331e-08
1.75767e-08
1.75764e-08
1.76446e-08
1.77965e-08
1.80522e-08
1.84381e-08
1.89907e-08
1.97615e-08
2.08273e-08
2.23076e-08
2.44023e-08
2.74759e-08
3.22798e-08
4.06721e-08
5.88652e-08
1.24917e-07
1.63261e-07
7.69912e-08
5.32752e-08
4.23662e-08
3.61398e-08
3.21649e-08
2.94579e-08
2.75411e-08
2.61526e-08
2.51353e-08
2.43883e-08
2.38436e-08
2.3453e-08
2.31811e-08
2.30014e-08
2.28931e-08
2.284e-08
2.28285e-08
2.2848e-08
2.28894e-08
2.29451e-08
2.30087e-08
2.30749e-08
2.3139e-08
2.31972e-08
2.32461e-08
2.32831e-08
2.33059e-08
2.33126e-08
2.33019e-08
2.32726e-08
2.32241e-08
2.31558e-08
2.30675e-08
2.29594e-08
2.28317e-08
2.26848e-08
2.25195e-08
2.23366e-08
2.21371e-08
2.19222e-08
2.16932e-08
2.14515e-08
2.11986e-08
2.09363e-08
2.06664e-08
2.03907e-08
2.01114e-08
1.98307e-08
1.95511e-08
1.92752e-08
1.90057e-08
1.87458e-08
1.8499e-08
1.82692e-08
1.80606e-08
1.78782e-08
1.77279e-08
1.76163e-08
1.75516e-08
1.75436e-08
1.76043e-08
1.77492e-08
1.79979e-08
1.83769e-08
1.89224e-08
1.96857e-08
2.07431e-08
2.22139e-08
2.42968e-08
2.73548e-08
3.2136e-08
4.049e-08
5.86018e-08
1.24359e-07
1.67866e-07
7.91636e-08
5.47788e-08
4.35614e-08
3.71581e-08
3.30694e-08
3.0284e-08
2.83108e-08
2.68804e-08
2.58313e-08
2.50599e-08
2.4496e-08
2.40902e-08
2.3806e-08
2.36159e-08
2.34986e-08
2.34373e-08
2.34181e-08
2.34299e-08
2.34632e-08
2.35103e-08
2.35646e-08
2.36204e-08
2.36732e-08
2.37189e-08
2.37541e-08
2.37762e-08
2.37828e-08
2.37722e-08
2.37431e-08
2.36943e-08
2.36254e-08
2.35358e-08
2.34255e-08
2.32948e-08
2.31441e-08
2.29739e-08
2.27851e-08
2.25786e-08
2.23557e-08
2.21176e-08
2.18658e-08
2.16017e-08
2.1327e-08
2.10435e-08
2.07531e-08
2.04578e-08
2.01597e-08
1.98612e-08
1.95646e-08
1.92725e-08
1.89879e-08
1.87137e-08
1.84535e-08
1.8211e-08
1.79905e-08
1.7797e-08
1.7636e-08
1.75143e-08
1.74399e-08
1.74224e-08
1.74737e-08
1.7609e-08
1.78478e-08
1.82163e-08
1.87501e-08
1.95002e-08
2.05421e-08
2.19935e-08
2.40515e-08
2.70752e-08
3.18047e-08
4.00709e-08
5.79945e-08
1.23071e-07
1.72392e-07
8.12987e-08
5.62561e-08
4.47353e-08
3.81579e-08
3.3957e-08
3.10942e-08
2.90653e-08
2.75936e-08
2.65133e-08
2.57178e-08
2.51352e-08
2.47145e-08
2.44182e-08
2.42179e-08
2.40918e-08
2.40222e-08
2.39951e-08
2.39988e-08
2.40235e-08
2.40613e-08
2.41053e-08
2.41497e-08
2.41898e-08
2.42214e-08
2.42412e-08
2.42463e-08
2.42347e-08
2.42046e-08
2.41545e-08
2.40838e-08
2.39917e-08
2.38781e-08
2.37431e-08
2.3587e-08
2.34104e-08
2.32141e-08
2.2999e-08
2.27663e-08
2.25174e-08
2.22536e-08
2.19764e-08
2.16876e-08
2.1389e-08
2.10823e-08
2.07696e-08
2.0453e-08
2.01345e-08
1.98166e-08
1.95016e-08
1.91922e-08
1.88912e-08
1.86016e-08
1.83269e-08
1.80707e-08
1.78373e-08
1.76315e-08
1.74588e-08
1.73258e-08
1.72403e-08
1.72116e-08
1.72515e-08
1.73749e-08
1.7601e-08
1.79554e-08
1.84732e-08
1.92044e-08
2.02234e-08
2.16459e-08
2.36656e-08
2.66359e-08
3.12849e-08
3.9413e-08
5.70407e-08
1.21046e-07
1.76866e-07
8.3409e-08
5.77159e-08
4.58946e-08
3.91445e-08
3.48324e-08
3.18928e-08
2.98086e-08
2.8296e-08
2.71848e-08
2.63657e-08
2.57647e-08
2.53294e-08
2.50213e-08
2.48111e-08
2.46761e-08
2.45984e-08
2.45632e-08
2.45584e-08
2.4574e-08
2.46016e-08
2.46343e-08
2.46661e-08
2.4692e-08
2.47078e-08
2.47102e-08
2.46964e-08
2.46642e-08
2.46119e-08
2.45383e-08
2.44426e-08
2.43245e-08
2.41839e-08
2.40211e-08
2.38365e-08
2.3631e-08
2.34055e-08
2.31612e-08
2.28994e-08
2.26216e-08
2.23293e-08
2.20244e-08
2.17085e-08
2.13837e-08
2.10518e-08
2.07148e-08
2.0375e-08
2.00345e-08
1.96957e-08
1.9361e-08
1.9033e-08
1.87145e-08
1.84086e-08
1.81184e-08
1.78476e-08
1.76004e-08
1.73814e-08
1.7196e-08
1.70505e-08
1.69525e-08
1.69112e-08
1.69379e-08
1.70472e-08
1.72578e-08
1.75946e-08
1.8092e-08
1.87988e-08
1.97875e-08
2.11715e-08
2.31398e-08
2.60379e-08
3.05772e-08
3.85175e-08
5.57417e-08
1.18289e-07
1.81315e-07
8.5507e-08
5.91664e-08
4.70458e-08
4.01235e-08
3.57003e-08
3.26841e-08
3.05448e-08
2.89915e-08
2.78496e-08
2.70072e-08
2.63882e-08
2.59386e-08
2.5619e-08
2.53991e-08
2.52556e-08
2.51696e-08
2.51262e-08
2.51126e-08
2.51185e-08
2.51353e-08
2.51556e-08
2.51734e-08
2.51835e-08
2.51817e-08
2.51645e-08
2.51293e-08
2.50738e-08
2.49965e-08
2.48964e-08
2.47727e-08
2.46254e-08
2.44544e-08
2.42604e-08
2.40439e-08
2.38062e-08
2.35482e-08
2.32714e-08
2.29774e-08
2.26678e-08
2.23443e-08
2.2009e-08
2.16636e-08
2.13102e-08
2.09509e-08
2.05878e-08
2.02231e-08
1.9859e-08
1.94979e-08
1.91422e-08
1.87945e-08
1.84575e-08
1.81342e-08
1.78277e-08
1.75416e-08
1.72798e-08
1.70468e-08
1.68477e-08
1.66888e-08
1.65772e-08
1.65219e-08
1.65338e-08
1.66269e-08
1.68194e-08
1.71354e-08
1.76082e-08
1.82851e-08
1.92366e-08
2.05725e-08
2.24765e-08
2.52838e-08
2.9685e-08
3.73881e-08
5.41033e-08
1.14809e-07
1.85764e-07
8.76046e-08
6.06159e-08
4.81952e-08
4.11001e-08
3.65653e-08
3.34721e-08
3.12776e-08
2.96836e-08
2.85113e-08
2.76459e-08
2.70092e-08
2.65459e-08
2.62152e-08
2.5986e-08
2.58341e-08
2.57401e-08
2.56883e-08
2.56657e-08
2.56613e-08
2.56663e-08
2.56731e-08
2.56753e-08
2.56678e-08
2.56463e-08
2.56072e-08
2.55478e-08
2.54662e-08
2.53608e-08
2.52308e-08
2.50756e-08
2.48954e-08
2.46905e-08
2.44616e-08
2.42097e-08
2.3936e-08
2.36421e-08
2.33294e-08
2.29999e-08
2.26554e-08
2.22979e-08
2.19293e-08
2.15519e-08
2.11677e-08
2.07789e-08
2.03877e-08
1.99964e-08
1.96072e-08
1.92226e-08
1.88448e-08
1.84764e-08
1.81201e-08
1.77787e-08
1.74553e-08
1.71532e-08
1.68762e-08
1.66286e-08
1.64153e-08
1.62421e-08
1.6116e-08
1.60457e-08
1.60413e-08
1.61163e-08
1.62883e-08
1.65804e-08