/*--------------------------------*- C++ -*----------------------------------*\
  =========                 |
  \\      /  F ield         | OpenFOAM: The Open Source CFD Toolbox
   \\    /   O peration     | Website:  https://openfoam.org
    \\  /    A nd           | Version:  12
     \\/     M anipulation  |
\*---------------------------------------------------------------------------*/
FoamFile
{
    format      ascii;
    class       volScalarField;
    location    "4";
    object      k;
}
// * * * * * * * * * * * * * * * * * * * * * * * * * * * * * * * * * * * * * //

dimensions      [0 2 -2 0 0 0 0];

internalField   nonuniform List<scalar> 
5625
(
1.15412e-13
8.71728e-13
1.8473e-12
3.01119e-12
4.32147e-12
5.74648e-12
7.26301e-12
8.85316e-12
1.05022e-11
1.21973e-11
1.39271e-11
1.5681e-11
1.74493e-11
1.92225e-11
2.09918e-11
2.27489e-11
2.44855e-11
2.61938e-11
2.78665e-11
2.94964e-11
3.10765e-11
3.26005e-11
3.40621e-11
3.54554e-11
3.6775e-11
3.80156e-11
3.91724e-11
4.0241e-11
4.12173e-11
4.20977e-11
4.28789e-11
4.3558e-11
4.41325e-11
4.46005e-11
4.49601e-11
4.52104e-11
4.53503e-11
4.53796e-11
4.52984e-11
4.51071e-11
4.48064e-11
4.43978e-11
4.38829e-11
4.32638e-11
4.25429e-11
4.17231e-11
4.08076e-11
3.98001e-11
3.87044e-11
3.75249e-11
3.62661e-11
3.49329e-11
3.35307e-11
3.20649e-11
3.05414e-11
2.89662e-11
2.73458e-11
2.56868e-11
2.39961e-11
2.22808e-11
2.05485e-11
1.88069e-11
1.70641e-11
1.53284e-11
1.36087e-11
1.19144e-11
1.02556e-11
8.64307e-12
7.08911e-12
5.60788e-12
4.21662e-12
2.93779e-12
1.80212e-12
8.50352e-13
1.12577e-13
7.8064e-13
6.94879e-12
1.58309e-11
2.64474e-11
3.83373e-11
5.12231e-11
6.49095e-11
7.92442e-11
9.40994e-11
1.09363e-10
1.24935e-10
1.4072e-10
1.56632e-10
1.72586e-10
1.88504e-10
2.04311e-10
2.19932e-10
2.35299e-10
2.50345e-10
2.65004e-10
2.79217e-10
2.92923e-10
3.06068e-10
3.186e-10
3.30467e-10
3.41624e-10
3.52027e-10
3.61638e-10
3.70418e-10
3.78335e-10
3.8536e-10
3.91467e-10
3.96634e-10
4.00842e-10
4.04076e-10
4.06327e-10
4.07585e-10
4.07849e-10
4.07118e-10
4.05396e-10
4.02692e-10
3.99017e-10
3.94386e-10
3.88817e-10
3.82334e-10
3.74961e-10
3.66728e-10
3.57667e-10
3.47813e-10
3.37205e-10
3.25884e-10
3.13895e-10
3.01284e-10
2.88101e-10
2.74399e-10
2.60232e-10
2.45658e-10
2.30736e-10
2.15529e-10
2.001e-10
1.84517e-10
1.68849e-10
1.53169e-10
1.37551e-10
1.22075e-10
1.06824e-10
9.18872e-11
7.73616e-11
6.33539e-11
4.99866e-11
3.74065e-11
2.58024e-11
1.54435e-11
6.77838e-12
7.61464e-13
1.73556e-12
1.55649e-11
3.56932e-11
5.9921e-11
8.71661e-11
1.1676e-10
1.48232e-10
1.81215e-10
2.15407e-10
2.50545e-10
2.86393e-10
3.22735e-10
3.59366e-10
3.96096e-10
4.32742e-10
4.69128e-10
5.05089e-10
5.40462e-10
5.75094e-10
6.08837e-10
6.4155e-10
6.73099e-10
7.03354e-10
7.32195e-10
7.59508e-10
7.85185e-10
8.09128e-10
8.31245e-10
8.51451e-10
8.69671e-10
8.85838e-10
8.9989e-10
9.11779e-10
9.21461e-10
9.28903e-10
9.34079e-10
9.36973e-10
9.37577e-10
9.35893e-10
9.31929e-10
9.25704e-10
9.17244e-10
9.06584e-10
8.93768e-10
8.78845e-10
8.61876e-10
8.42928e-10
8.22073e-10
7.99394e-10
7.74979e-10
7.48923e-10
7.21328e-10
6.92303e-10
6.61962e-10
6.30425e-10
5.97818e-10
5.64273e-10
5.29928e-10
4.94924e-10
4.59411e-10
4.23541e-10
3.87476e-10
3.5138e-10
3.15428e-10
2.79803e-10
2.44697e-10
2.10316e-10
1.76887e-10
1.44661e-10
1.13927e-10
8.50385e-11
5.84518e-11
3.48152e-11
1.51811e-11
1.6927e-12
2.87098e-12
2.57898e-11
5.92657e-11
9.96996e-11
1.45297e-10
1.94929e-10
2.47786e-10
3.03238e-10
3.60761e-10
4.19904e-10
4.80261e-10
5.41461e-10
6.03158e-10
6.65026e-10
7.26756e-10
7.88053e-10
8.48632e-10
9.08224e-10
9.66567e-10
1.02341e-09
1.07852e-09
1.13167e-09
1.18264e-09
1.23122e-09
1.27723e-09
1.32048e-09
1.36081e-09
1.39807e-09
1.4321e-09
1.46279e-09
1.49001e-09
1.51368e-09
1.5337e-09
1.55e-09
1.56253e-09
1.57124e-09
1.5761e-09
1.57711e-09
1.57427e-09
1.56758e-09
1.55709e-09
1.54283e-09
1.52486e-09
1.50327e-09
1.47812e-09
1.44953e-09
1.4176e-09
1.38247e-09
1.34426e-09
1.30313e-09
1.25923e-09
1.21275e-09
1.16385e-09
1.11274e-09
1.05961e-09
1.00469e-09
9.48181e-10
8.90328e-10
8.31367e-10
7.7155e-10
7.11135e-10
6.50393e-10
5.89606e-10
5.29067e-10
4.69087e-10
4.09994e-10
3.52141e-10
2.95915e-10
2.41749e-10
1.90145e-10
1.4171e-10
9.72271e-11
5.77909e-11
2.51466e-11
2.79926e-12
4.13613e-12
3.71769e-11
8.55125e-11
1.44002e-10
2.10076e-10
2.82103e-10
3.58905e-10
4.39554e-10
5.23279e-10
6.09407e-10
6.97342e-10
7.86532e-10
8.76469e-10
9.66671e-10
1.05668e-09
1.14607e-09
1.23442e-09
1.32134e-09
1.40643e-09
1.48935e-09
1.56973e-09
1.64725e-09
1.72159e-09
1.79245e-09
1.85956e-09
1.92265e-09
1.98146e-09
2.03579e-09
2.08543e-09
2.13017e-09
2.16987e-09
2.20438e-09
2.23356e-09
2.25732e-09
2.27557e-09
2.28826e-09
2.29533e-09
2.29678e-09
2.29261e-09
2.28284e-09
2.26751e-09
2.24669e-09
2.22046e-09
2.18894e-09
2.15225e-09
2.11053e-09
2.06394e-09
2.01268e-09
1.95693e-09
1.89693e-09
1.83289e-09
1.76508e-09
1.69376e-09
1.61921e-09
1.54172e-09
1.46161e-09
1.37921e-09
1.29484e-09
1.20886e-09
1.12165e-09
1.03357e-09
9.4502e-10
8.56422e-10
7.68204e-10
6.80822e-10
5.94762e-10
5.10546e-10
4.28744e-10
3.49999e-10
2.75051e-10
2.04792e-10
1.40363e-10
8.33443e-11
3.6232e-11
4.03084e-12
5.49903e-12
4.94411e-11
1.13777e-10
1.91709e-10
2.79843e-10
3.76018e-10
4.78663e-10
5.86535e-10
6.98593e-10
8.13931e-10
9.31739e-10
1.05127e-09
1.17184e-09
1.29279e-09
1.41351e-09
1.5334e-09
1.65192e-09
1.76852e-09
1.88268e-09
1.99392e-09
2.10177e-09
2.20578e-09
2.30552e-09
2.4006e-09
2.49064e-09
2.57527e-09
2.65418e-09
2.72706e-09
2.79364e-09
2.85366e-09
2.9069e-09
2.95317e-09
2.99229e-09
3.02413e-09
3.04859e-09
3.06557e-09
3.07502e-09
3.07692e-09
3.07128e-09
3.05812e-09
3.03751e-09
3.00952e-09
2.97429e-09
2.93196e-09
2.88268e-09
2.82666e-09
2.76412e-09
2.6953e-09
2.62048e-09
2.53994e-09
2.45401e-09
2.36301e-09
2.2673e-09
2.16727e-09
2.06331e-09
1.95584e-09
1.8453e-09
1.73214e-09
1.61683e-09
1.49987e-09
1.38178e-09
1.26308e-09
1.14434e-09
1.02613e-09
9.09088e-10
7.93855e-10
6.81143e-10
5.71725e-10
4.66467e-10
3.66364e-10
2.72614e-10
1.86733e-10
1.10813e-10
4.81501e-11
5.35521e-12
6.93621e-12
6.23721e-11
1.43574e-10
2.42e-10
3.53391e-10
4.75032e-10
6.04944e-10
7.41554e-10
8.83543e-10
1.02976e-09
1.17916e-09
1.3308e-09
1.4838e-09
1.63732e-09
1.79057e-09
1.9428e-09
2.0933e-09
2.24137e-09
2.38637e-09
2.52766e-09
2.66464e-09
2.79675e-09
2.92344e-09
3.0442e-09
3.15855e-09
3.26604e-09
3.36625e-09
3.4588e-09
3.54334e-09
3.61954e-09
3.68712e-09
3.74584e-09
3.79548e-09
3.83587e-09
3.86686e-09
3.88836e-09
3.90029e-09
3.90263e-09
3.89539e-09
3.87859e-09
3.85232e-09
3.8167e-09
3.77187e-09
3.71801e-09
3.65535e-09
3.58412e-09
3.50461e-09
3.41714e-09
3.32205e-09
3.2197e-09
3.1105e-09
2.99489e-09
2.8733e-09
2.74624e-09
2.6142e-09
2.47772e-09
2.33735e-09
2.19367e-09
2.0473e-09
1.89885e-09
1.74898e-09
1.59838e-09
1.44776e-09
1.29786e-09
1.14948e-09
1.00346e-09
8.60688e-10
7.2216e-10
5.88975e-10
4.62395e-10
3.43931e-10
2.3549e-10
1.39697e-10
6.06838e-11
6.74816e-12
8.42888e-12
7.58016e-11
1.74517e-10
2.94223e-10
4.2976e-10
5.77845e-10
7.36076e-10
9.02544e-10
1.07564e-09
1.25396e-09
1.43622e-09
1.62128e-09
1.80803e-09
1.99545e-09
2.18259e-09
2.36851e-09
2.55232e-09
2.7332e-09
2.91033e-09
3.08294e-09
3.25029e-09
3.41168e-09
3.56646e-09
3.71399e-09
3.85368e-09
3.98498e-09
4.10738e-09
4.22041e-09
4.32364e-09
4.41668e-09
4.49917e-09
4.57083e-09
4.63139e-09
4.68063e-09
4.71839e-09
4.74454e-09
4.75899e-09
4.76172e-09
4.75274e-09
4.73209e-09
4.69987e-09
4.65621e-09
4.60131e-09
4.53538e-09
4.45869e-09
4.37156e-09
4.27431e-09
4.16734e-09
4.05107e-09
3.92596e-09
3.79248e-09
3.65118e-09
3.50261e-09
3.34736e-09
3.18606e-09
3.01935e-09
2.84791e-09
2.67247e-09
2.49376e-09
2.31255e-09
2.12965e-09
1.94589e-09
1.76215e-09
1.57935e-09
1.39845e-09
1.22048e-09
1.04655e-09
8.77864e-10
7.15757e-10
5.61767e-10
4.17726e-10
2.85942e-10
1.69587e-10
7.36547e-11
8.18977e-12
9.96129e-12
8.95879e-11
2.06281e-10
3.47826e-10
5.08145e-10
6.83368e-10
8.70665e-10
1.06778e-09
1.27281e-09
1.48409e-09
1.70011e-09
1.91949e-09
2.14092e-09
2.3632e-09
2.58516e-09
2.80571e-09
3.02379e-09
3.2384e-09
3.44856e-09
3.65337e-09
3.85195e-09
4.04346e-09
4.2271e-09
4.40214e-09
4.56787e-09
4.72364e-09
4.86882e-09
5.00288e-09
5.12528e-09
5.23558e-09
5.33335e-09
5.41825e-09
5.48997e-09
5.54824e-09
5.59288e-09
5.62372e-09
5.64069e-09
5.64373e-09
5.63288e-09
5.60817e-09
5.56973e-09
5.51772e-09
5.45237e-09
5.37395e-09
5.28277e-09
5.1792e-09
5.06365e-09
4.93657e-09
4.79847e-09
4.64989e-09
4.49142e-09
4.32368e-09
4.14734e-09
3.96311e-09
3.77171e-09
3.57394e-09
3.3706e-09
3.16254e-09
2.95063e-09
2.73582e-09
2.51903e-09
2.30129e-09
2.08362e-09
1.86712e-09
1.65293e-09
1.44228e-09
1.23648e-09
1.03696e-09
8.45287e-10
6.63288e-10
4.93116e-10
3.37485e-10
2.00125e-10
8.69075e-11
9.66278e-12
1.15198e-11
1.03608e-10
2.38582e-10
4.02333e-10
5.87847e-10
7.90659e-10
1.0075e-09
1.23578e-09
1.47328e-09
1.71808e-09
1.96842e-09
2.22269e-09
2.4794e-09
2.73712e-09
2.99451e-09
3.25028e-09
3.50321e-09
3.75212e-09
3.99588e-09
4.23344e-09
4.46377e-09
4.68588e-09
4.89887e-09
5.10186e-09
5.29403e-09
5.47463e-09
5.64294e-09
5.79831e-09
5.94015e-09
6.06792e-09
6.18115e-09
6.27942e-09
6.36238e-09
6.42973e-09
6.48125e-09
6.51676e-09
6.53616e-09
6.5394e-09
6.52652e-09
6.49757e-09
6.45268e-09
6.39207e-09
6.31599e-09
6.22476e-09
6.11874e-09
5.99836e-09
5.8641e-09
5.7165e-09
5.55614e-09
5.38365e-09
5.19972e-09
5.00507e-09
4.80048e-09
4.58676e-09
4.36479e-09
4.13546e-09
3.89971e-09
3.65854e-09
3.41297e-09
3.16406e-09
2.91294e-09
2.66075e-09
2.40871e-09
2.15809e-09
1.91021e-09
1.6665e-09
1.42846e-09
1.19775e-09
9.76199e-10
7.6589e-10
5.69308e-10
3.89578e-10
2.30989e-10
1.00302e-10
1.11516e-11
1.30923e-11
1.17755e-10
2.71172e-10
4.57324e-10
6.68252e-10
8.98892e-10
1.14554e-09
1.40523e-09
1.67547e-09
1.95406e-09
2.23901e-09
2.52848e-09
2.82075e-09
3.11421e-09
3.4073e-09
3.69858e-09
3.98663e-09
4.27011e-09
4.54773e-09
4.81827e-09
5.08057e-09
5.3335e-09
5.57601e-09
5.80711e-09
6.02587e-09
6.23142e-09
6.42294e-09
6.5997e-09
6.76101e-09
6.90627e-09
7.03495e-09
7.14656e-09
7.2407e-09
7.31706e-09
7.37535e-09
7.41541e-09
7.4371e-09
7.44039e-09
7.4253e-09
7.39191e-09
7.34039e-09
7.27096e-09
7.18393e-09
7.07966e-09
6.95856e-09
6.82114e-09
6.66795e-09
6.49958e-09
6.31672e-09
6.12009e-09
5.91047e-09
5.68868e-09
5.45562e-09
5.21223e-09
4.95947e-09
4.6984e-09
4.43007e-09
4.15563e-09
3.87623e-09
3.5931e-09
3.30751e-09
3.02077e-09
2.73427e-09
2.44944e-09
2.1678e-09
1.89096e-09
1.62064e-09
1.35871e-09
1.10723e-09
8.68586e-10
6.4557e-10
4.41719e-10
2.61882e-10
1.1371e-10
1.26419e-11
1.46681e-11
1.31931e-10
3.03829e-10
5.12426e-10
7.48815e-10
1.00733e-09
1.28382e-09
1.57498e-09
1.87801e-09
2.19043e-09
2.51002e-09
2.83471e-09
3.16257e-09
3.49178e-09
3.82061e-09
4.14739e-09
4.47056e-09
4.78859e-09
5.10004e-09
5.40353e-09
5.69775e-09
5.98143e-09
6.25339e-09
6.51251e-09
6.75775e-09
6.98812e-09
7.20272e-09
7.40071e-09
7.58134e-09
7.74392e-09
7.88786e-09
8.01262e-09
8.11775e-09
8.2029e-09
8.26777e-09
8.31216e-09
8.33594e-09
8.33906e-09
8.32157e-09
8.28356e-09
8.2252e-09
8.14678e-09
8.04864e-09
7.93117e-09
7.79487e-09
7.64029e-09
7.46806e-09
7.27886e-09
7.07344e-09
6.85263e-09
6.61729e-09
6.36838e-09
6.10689e-09
5.83385e-09
5.5504e-09
5.25767e-09
4.95688e-09
4.6493e-09
4.33623e-09
4.01906e-09
3.69919e-09
3.3781e-09
3.05735e-09
2.73855e-09
2.42338e-09
2.11365e-09
1.81129e-09
1.51837e-09
1.23722e-09
9.70456e-10
7.21218e-10
4.9344e-10
2.92528e-10
1.2701e-10
1.41203e-11
1.62378e-11
1.46051e-10
3.36357e-10
5.67306e-10
8.29047e-10
1.11531e-09
1.42152e-09
1.74399e-09
2.07964e-09
2.42573e-09
2.77978e-09
3.13949e-09
3.50274e-09
3.86748e-09
4.2318e-09
4.59385e-09
4.95188e-09
5.3042e-09
5.6492e-09
5.98535e-09
6.31118e-09
6.6253e-09
6.92639e-09
7.2132e-09
7.48458e-09
7.73943e-09
7.97676e-09
8.19563e-09
8.39522e-09
8.57477e-09
8.73361e-09
8.87117e-09
8.98696e-09
9.08057e-09
9.1517e-09
9.20012e-09
9.2257e-09
9.2284e-09
9.20827e-09
9.16541e-09
9.10005e-09
9.01249e-09
8.9031e-09
8.77236e-09
8.62081e-09
8.44906e-09
8.25781e-09
8.04783e-09
7.81995e-09
7.5751e-09
7.31424e-09
7.03842e-09
6.74873e-09
6.44636e-09
6.13252e-09
5.8085e-09
5.47564e-09
5.13533e-09
4.78904e-09
4.43828e-09
4.08461e-09
3.72968e-09
3.3752e-09
3.02293e-09
2.67476e-09
2.33267e-09
1.99878e-09
1.67539e-09
1.36503e-09
1.07063e-09
7.95603e-10
5.44298e-10
3.22661e-10
1.40089e-10
1.5574e-11
1.77929e-11
1.6004e-10
3.68579e-10
6.21669e-10
9.08519e-10
1.22226e-09
1.55788e-09
1.91136e-09
2.27929e-09
2.65867e-09
3.0468e-09
3.44114e-09
3.83935e-09
4.23919e-09
4.63855e-09
5.0354e-09
5.42781e-09
5.81393e-09
6.19198e-09
6.56027e-09
6.91719e-09
7.2612e-09
7.59087e-09
7.90483e-09
8.20179e-09
8.48057e-09
8.74006e-09
8.97927e-09
9.19728e-09
9.39325e-09
9.56649e-09
9.71634e-09
9.8423e-09
9.94392e-09
1.00209e-08
1.00729e-08
1.01e-08
1.01019e-08
1.00789e-08
1.00309e-08
9.95836e-09
9.86151e-09
9.7408e-09
9.59675e-09
9.42995e-09
9.24111e-09
9.03097e-09
8.8004e-09
8.55032e-09
8.28173e-09
7.99569e-09
7.69337e-09
7.37596e-09
7.04476e-09
6.70109e-09
6.34638e-09
5.98208e-09
5.60973e-09
5.23092e-09
4.84731e-09
4.4606e-09
4.07261e-09
3.68517e-09
3.30024e-09
2.91986e-09
2.5462e-09
2.18156e-09
1.82844e-09
1.48962e-09
1.16826e-09
8.68105e-10
5.93867e-10
3.52031e-10
1.52836e-10
1.69909e-11
1.9326e-11
1.7383e-10
4.00345e-10
6.75258e-10
9.86852e-10
1.32767e-09
1.69227e-09
2.07627e-09
2.47598e-09
2.88814e-09
3.30978e-09
3.73817e-09
4.17074e-09
4.60506e-09
5.03881e-09
5.4698e-09
5.89591e-09
6.31512e-09
6.7255e-09
7.1252e-09
7.51247e-09
7.88563e-09
8.24313e-09
8.58346e-09
8.90524e-09
9.20719e-09
9.48811e-09
9.74691e-09
9.98261e-09
1.01943e-08
1.03812e-08
1.05428e-08
1.06783e-08
1.07873e-08
1.08695e-08
1.09247e-08
1.09527e-08
1.09535e-08
1.09272e-08
1.0874e-08
1.0794e-08
1.06877e-08
1.05556e-08
1.03982e-08
1.02163e-08
1.00105e-08
9.7817e-09
9.53084e-09
9.25892e-09
8.96703e-09
8.65635e-09
8.32811e-09
7.98363e-09
7.62431e-09
7.25159e-09
6.86701e-09
6.47215e-09
6.06868e-09
5.65831e-09
5.24284e-09
4.82412e-09
4.40409e-09
3.98476e-09
3.56822e-09
3.15669e-09
2.75249e-09
2.35813e-09
1.97629e-09
1.60997e-09
1.26257e-09
9.38131e-10
6.41743e-10
3.80397e-10
1.65147e-10
1.83594e-11
2.08307e-11
1.87365e-10
4.31521e-10
7.27848e-10
1.06372e-09
1.4311e-09
1.82411e-09
2.23803e-09
2.66888e-09
3.11314e-09
3.5676e-09
4.0293e-09
4.49546e-09
4.96346e-09
5.4308e-09
5.89508e-09
6.35402e-09
6.80543e-09
7.24723e-09
7.67742e-09
8.09411e-09
8.49548e-09
8.87985e-09
9.2456e-09
9.59126e-09
9.91543e-09
1.02168e-08
1.04943e-08
1.07468e-08
1.09733e-08
1.11731e-08
1.13455e-08
1.14897e-08
1.16055e-08
1.16923e-08
1.17501e-08
1.17785e-08
1.17777e-08
1.17478e-08
1.16888e-08
1.16012e-08
1.14853e-08
1.13417e-08
1.11711e-08
1.09741e-08
1.07516e-08
1.05044e-08
1.02337e-08
9.94042e-09
9.62582e-09
9.29115e-09
8.93774e-09
8.56703e-09
8.18049e-09
7.7797e-09
7.36629e-09
6.94198e-09
6.50854e-09
6.06781e-09
5.62172e-09
5.17225e-09
4.72147e-09
4.27154e-09
3.82471e-09
3.38332e-09
2.94989e-09
2.52706e-09
2.11773e-09
1.72508e-09
1.35277e-09
1.00511e-09
6.87533e-10
4.07527e-10
1.76922e-10
1.96682e-11
2.23017e-11
2.00597e-10
4.61996e-10
7.79253e-10
1.13885e-09
1.53217e-09
1.95293e-09
2.39606e-09
2.8573e-09
3.33286e-09
3.81929e-09
4.31343e-09
4.81228e-09
5.31303e-09
5.81297e-09
6.30954e-09
6.80028e-09
7.28285e-09
7.755e-09
8.21458e-09
8.65957e-09
9.08802e-09
9.49813e-09
9.88817e-09
1.02566e-08
1.06018e-08
1.09226e-08
1.12176e-08
1.14858e-08
1.17262e-08
1.19378e-08
1.212e-08
1.22721e-08
1.23937e-08
1.24844e-08
1.25439e-08
1.25722e-08
1.25692e-08
1.25351e-08
1.24701e-08
1.23745e-08
1.22489e-08
1.20938e-08
1.19099e-08
1.16981e-08
1.14591e-08
1.11939e-08
1.09038e-08
1.05898e-08
1.02531e-08
9.89528e-09
9.51761e-09
9.12165e-09
8.70898e-09
8.28129e-09
7.8403e-09
7.38784e-09
6.9258e-09
6.45614e-09
5.98089e-09
5.50218e-09
5.02219e-09
4.54321e-09
4.06762e-09
3.59792e-09
3.13676e-09
2.68697e-09
2.25159e-09
1.83403e-09
1.43813e-09
1.06849e-09
7.30861e-10
4.33197e-10
1.88063e-10
2.09065e-11
2.37346e-11
2.13485e-10
4.91679e-10
8.29319e-10
1.21201e-09
1.63059e-09
2.07834e-09
2.54988e-09
3.04065e-09
3.54661e-09
4.06408e-09
4.58967e-09
5.12019e-09
5.6526e-09
6.18405e-09
6.71177e-09
7.23315e-09
7.74567e-09
8.24694e-09
8.73466e-09
9.20667e-09
9.66091e-09
1.00955e-08
1.05085e-08
1.08983e-08
1.12633e-08
1.16021e-08
1.19135e-08
1.21961e-08
1.2449e-08
1.26713e-08
1.28623e-08
1.30212e-08
1.31476e-08
1.32412e-08
1.33017e-08
1.3329e-08
1.33232e-08
1.32844e-08
1.32129e-08
1.31091e-08
1.29735e-08
1.28068e-08
1.26097e-08
1.23831e-08
1.21279e-08
1.18452e-08
1.15362e-08
1.12021e-08
1.08443e-08
1.04642e-08
1.00633e-08
9.64319e-09
9.20565e-09
8.75239e-09
8.28525e-09
7.80616e-09
7.3171e-09
6.82015e-09
6.31744e-09
5.81121e-09
5.30376e-09
4.7975e-09
4.29494e-09
3.7987e-09
3.31157e-09
2.83652e-09
2.37677e-09
1.93589e-09
1.51794e-09
1.12773e-09
7.71362e-10
4.57192e-10
1.98476e-10
2.2064e-11
2.5126e-11
2.26001e-10
5.20503e-10
8.77929e-10
1.28304e-09
1.72612e-09
2.20005e-09
2.69913e-09
3.2185e-09
3.75387e-09
4.30135e-09
4.85731e-09
5.41836e-09
5.98128e-09
6.54302e-09
7.10064e-09
7.65136e-09
8.1925e-09
8.72152e-09
9.23598e-09
9.73359e-09
1.02122e-08
1.06697e-08
1.11042e-08
1.15139e-08
1.18973e-08
1.22527e-08
1.25788e-08
1.28745e-08
1.31386e-08
1.33703e-08
1.35686e-08
1.37331e-08
1.38632e-08
1.39586e-08
1.40191e-08
1.40446e-08
1.40352e-08
1.3991e-08
1.39125e-08
1.38e-08
1.36542e-08
1.34758e-08
1.32655e-08
1.30243e-08
1.27533e-08
1.24535e-08
1.21263e-08
1.17729e-08
1.13947e-08
1.09934e-08
1.05704e-08
1.01275e-08
9.66652e-09
9.18921e-09
8.69754e-09
8.19351e-09
7.67922e-09
7.15682e-09
6.62855e-09
6.09675e-09
5.56382e-09
5.03227e-09
4.50473e-09
3.98394e-09
3.47281e-09
2.97444e-09
2.49219e-09
2.02979e-09
1.59149e-09
1.18234e-09
8.08685e-10
4.79303e-10
2.08072e-10
2.31306e-11
2.64737e-11
2.38123e-10
5.48417e-10
9.25002e-10
1.35181e-09
1.81859e-09
2.31784e-09
2.84352e-09
3.39051e-09
3.95426e-09
4.53065e-09
5.11583e-09
5.70622e-09
6.29839e-09
6.88911e-09
7.47528e-09
8.05394e-09
8.62226e-09
9.17754e-09
9.71722e-09
1.02389e-08
1.07402e-08
1.12191e-08
1.16734e-08
1.21015e-08
1.25015e-08
1.28718e-08
1.32112e-08
1.35183e-08
1.3792e-08
1.40314e-08
1.42358e-08
1.44045e-08
1.4537e-08
1.4633e-08
1.46923e-08
1.47149e-08
1.4701e-08
1.46508e-08
1.45646e-08
1.4443e-08
1.42867e-08
1.40964e-08
1.38729e-08
1.36174e-08
1.33308e-08
1.30144e-08
1.26696e-08
1.22977e-08
1.19002e-08
1.14787e-08
1.1035e-08
1.05707e-08
1.00878e-08
9.5881e-09
9.07367e-09
8.54659e-09
8.00903e-09
7.46322e-09
6.91151e-09
6.35629e-09
5.80006e-09
5.24544e-09
4.69514e-09
4.152e-09
3.61904e-09
3.09948e-09
2.59681e-09
2.11489e-09
1.65814e-09
1.2318e-09
8.42495e-10
4.99331e-10
2.16763e-10
2.40966e-11
2.77763e-11
2.49839e-10
5.75395e-10
9.70491e-10
1.41826e-09
1.90793e-09
2.4316e-09
2.98293e-09
3.55651e-09
4.14756e-09
4.75171e-09
5.36492e-09
5.98338e-09
6.60349e-09
7.22182e-09
7.83511e-09
8.44022e-09
9.03417e-09
9.61412e-09
1.01774e-08
1.07214e-08
1.12437e-08
1.17422e-08
1.22147e-08
1.26592e-08
1.3074e-08
1.34575e-08
1.38083e-08
1.4125e-08
1.44066e-08
1.46522e-08
1.48609e-08
1.50322e-08
1.51656e-08
1.52608e-08
1.53177e-08
1.53364e-08
1.5317e-08
1.52598e-08
1.51653e-08
1.5034e-08
1.48668e-08
1.46643e-08
1.44277e-08
1.41579e-08
1.38561e-08
1.35237e-08
1.31619e-08
1.27724e-08
1.23566e-08
1.19163e-08
1.14532e-08
1.0969e-08
1.04658e-08
9.94559e-09
9.41034e-09
8.86226e-09
8.30357e-09
7.73659e-09
7.16372e-09
6.58743e-09
6.01031e-09
5.43502e-09
4.86437e-09
4.30129e-09
3.74888e-09
3.21046e-09
2.68963e-09
2.19037e-09
1.71724e-09
1.27566e-09
8.72467e-10
5.17084e-10
2.24466e-10
2.49528e-11
2.90335e-11
2.61146e-10
6.0143e-10
1.01439e-09
1.48236e-09
1.99409e-09
2.54129e-09
3.11729e-09
3.71644e-09
4.33368e-09
4.96443e-09
5.60443e-09
6.24968e-09
6.89637e-09
7.54089e-09
8.1798e-09
8.8098e-09
9.42777e-09
1.00307e-08
1.06158e-08
1.11804e-08
1.17219e-08
1.22381e-08
1.27267e-08
1.31857e-08
1.36134e-08
1.40081e-08
1.43683e-08
1.46928e-08
1.49804e-08
1.52302e-08
1.54414e-08
1.56136e-08
1.57462e-08
1.58391e-08
1.58922e-08
1.59056e-08
1.58796e-08
1.58144e-08
1.57108e-08
1.55692e-08
1.53905e-08
1.51757e-08
1.49258e-08
1.46419e-08
1.43252e-08
1.39772e-08
1.35993e-08
1.31931e-08
1.27602e-08
1.23023e-08
1.18212e-08
1.13188e-08
1.07972e-08
1.02584e-08
9.70438e-09
9.1375e-09
8.56001e-09
7.97426e-09
7.38272e-09
6.7879e-09
6.19246e-09
5.59911e-09
5.01073e-09
4.4303e-09
3.86101e-09
3.30625e-09
2.76971e-09
2.25547e-09
1.7682e-09
1.31347e-09
8.98296e-10
5.3238e-10
2.31104e-10
2.56905e-11
3.0246e-11
2.72051e-10
6.26537e-10
1.05671e-09
1.54416e-09
2.07713e-09
2.64696e-09
3.24668e-09
3.87035e-09
4.51269e-09
5.16888e-09
5.83444e-09
6.50516e-09
7.17704e-09
7.8463e-09
8.5093e-09
9.16259e-09
9.80288e-09
1.04271e-08
1.10322e-08
1.16154e-08
1.21741e-08
1.2706e-08
1.32087e-08
1.36802e-08
1.41187e-08
1.45224e-08
1.48899e-08
1.522e-08
1.55114e-08
1.57634e-08
1.59752e-08
1.61463e-08
1.62764e-08
1.63653e-08
1.6413e-08
1.64197e-08
1.63857e-08
1.63115e-08
1.61977e-08
1.60451e-08
1.58545e-08
1.56269e-08
1.53636e-08
1.50656e-08
1.47344e-08
1.43714e-08
1.39781e-08
1.35561e-08
1.31072e-08
1.2633e-08
1.21356e-08
1.16168e-08
1.10787e-08
1.05233e-08
9.9528e-09
9.36948e-09
8.77566e-09
8.17372e-09
7.56616e-09
6.95554e-09
6.34454e-09
5.73593e-09
5.13261e-09
4.53762e-09
3.9542e-09
3.3858e-09
2.83616e-09
2.30945e-09
1.81044e-09
1.34479e-09
9.19692e-10
5.45049e-10
2.366e-10
2.63014e-11
3.14154e-11
2.82569e-10
6.50749e-10
1.09752e-09
1.60373e-09
2.15715e-09
2.74875e-09
3.37125e-09
4.01845e-09
4.68481e-09
5.36528e-09
6.05517e-09
6.75006e-09
7.44575e-09
8.13827e-09
8.8238e-09
9.49874e-09
1.01596e-08
1.08032e-08
1.14264e-08
1.20263e-08
1.26003e-08
1.31457e-08
1.36603e-08
1.4142e-08
1.4589e-08
1.49994e-08
1.5372e-08
1.57053e-08
1.59983e-08
1.62503e-08
1.64605e-08
1.66285e-08
1.6754e-08
1.6837e-08
1.68775e-08
1.68759e-08
1.68325e-08
1.6748e-08
1.6623e-08
1.64584e-08
1.62553e-08
1.60146e-08
1.57376e-08
1.54257e-08
1.50802e-08
1.47027e-08
1.42947e-08
1.3858e-08
1.33942e-08
1.29053e-08
1.23932e-08
1.18598e-08
1.13071e-08
1.07374e-08
1.01528e-08
9.55556e-09
8.94803e-09
8.33263e-09
7.71187e-09
7.08833e-09
6.46471e-09
5.84379e-09
5.22851e-09
4.62192e-09
4.02729e-09
3.4481e-09
2.88815e-09
2.35165e-09
1.84343e-09
1.36925e-09
9.36388e-10
5.54932e-10
2.40887e-10
2.67778e-11
3.25443e-11
2.92721e-10
6.74119e-10
1.1369e-09
1.6612e-09
2.23432e-09
2.84687e-09
3.49127e-09
4.16103e-09
4.85037e-09
5.55402e-09
6.26704e-09
6.98482e-09
7.70295e-09
8.41726e-09
9.12377e-09
9.81868e-09
1.04984e-08
1.11595e-08
1.17989e-08
1.24134e-08
1.30004e-08
1.35571e-08
1.40813e-08
1.45709e-08
1.50239e-08
1.54387e-08
1.58137e-08
1.61478e-08
1.644e-08
1.66895e-08
1.68957e-08
1.70583e-08
1.71771e-08
1.72521e-08
1.72836e-08
1.72719e-08
1.72175e-08
1.71213e-08
1.69839e-08
1.68065e-08
1.659e-08
1.63357e-08
1.60448e-08
1.57189e-08
1.53594e-08
1.49679e-08
1.4546e-08
1.40955e-08
1.36183e-08
1.31161e-08
1.25909e-08
1.20448e-08
1.14798e-08
1.08981e-08
1.03018e-08
9.69326e-09
9.07479e-09
8.44882e-09
7.81783e-09
7.18442e-09
6.55127e-09
5.92118e-09
5.29706e-09
4.68198e-09
4.07922e-09
3.49226e-09
2.92493e-09
2.38145e-09
1.8667e-09
1.38647e-09
9.48139e-10
5.61884e-10
2.43901e-10
2.71128e-11
3.3636e-11
3.02539e-10
6.96717e-10
1.17497e-09
1.71675e-09
2.30889e-09
2.94162e-09
3.60708e-09
4.2985e-09
5.00985e-09
5.73561e-09
6.47062e-09
7.21004e-09
7.94927e-09
8.68393e-09
9.40985e-09
1.01231e-08
1.08199e-08
1.14966e-08
1.21501e-08
1.27771e-08
1.33748e-08
1.39406e-08
1.4472e-08
1.49669e-08
1.54234e-08
1.58398e-08
1.62147e-08
1.6547e-08
1.68357e-08
1.70801e-08
1.72798e-08
1.74346e-08
1.75442e-08
1.7609e-08
1.76293e-08
1.76056e-08
1.75385e-08
1.7429e-08
1.7278e-08
1.70866e-08
1.68559e-08
1.65874e-08
1.62824e-08
1.59424e-08
1.55691e-08
1.51641e-08
1.47291e-08
1.42659e-08
1.37764e-08
1.32625e-08
1.27261e-08
1.21693e-08
1.15942e-08
1.10028e-08
1.03975e-08
9.7804e-09
9.15388e-09
8.52034e-09
7.88223e-09
7.24214e-09
6.6027e-09
5.9667e-09
5.33702e-09
4.71672e-09
4.10904e-09
3.51747e-09
2.94581e-09
2.3983e-09
1.8798e-09
1.39615e-09
9.54729e-10
5.65777e-10
2.45588e-10
2.73002e-11
3.46948e-11
3.1206e-10
7.18629e-10
1.21188e-09
1.77059e-09
2.38111e-09
3.03336e-09
3.71912e-09
4.43138e-09
5.16383e-09
5.91071e-09
6.66663e-09
7.42651e-09
8.18553e-09
8.93913e-09
9.68293e-09
1.04128e-08
1.11248e-08
1.18153e-08
1.24808e-08
1.31181e-08
1.37243e-08
1.42966e-08
1.48327e-08
1.53303e-08
1.57875e-08
1.62028e-08
1.65748e-08
1.69025e-08
1.71848e-08
1.74214e-08
1.76119e-08
1.7756e-08
1.78541e-08
1.79062e-08
1.7913e-08
1.78752e-08
1.77936e-08
1.76692e-08
1.7503e-08
1.72964e-08
1.70507e-08
1.67673e-08
1.64478e-08
1.60937e-08
1.57068e-08
1.52887e-08
1.48414e-08
1.43665e-08
1.38661e-08
1.3342e-08
1.27963e-08
1.22309e-08
1.16479e-08
1.10495e-08
1.04378e-08
9.81502e-09
9.18347e-09
8.54549e-09
7.90351e-09
7.26004e-09
6.61769e-09
5.97917e-09
5.34734e-09
4.7252e-09
4.11595e-09
3.52304e-09
2.95023e-09
2.40173e-09
1.8824e-09
1.39802e-09
9.55975e-10
5.66504e-10
2.459e-10
2.73348e-11
3.57253e-11
3.21327e-10
7.39953e-10
1.24779e-09
1.82295e-09
2.45134e-09
3.12248e-09
3.8279e-09
4.56025e-09
5.31298e-09
6.08007e-09
6.85589e-09
7.63511e-09
8.41271e-09
9.18387e-09
9.94404e-09
1.06889e-08
1.14144e-08
1.21166e-08
1.27921e-08
1.34374e-08
1.40497e-08
1.4626e-08
1.5164e-08
1.56615e-08
1.61167e-08
1.6528e-08
1.68941e-08
1.72141e-08
1.74871e-08
1.77129e-08
1.78911e-08
1.80219e-08
1.81055e-08
1.81424e-08
1.81334e-08
1.80793e-08
1.79811e-08
1.78399e-08
1.76571e-08
1.7434e-08
1.71722e-08
1.68732e-08
1.65387e-08
1.61704e-08
1.577e-08
1.53395e-08
1.48806e-08
1.43952e-08
1.38852e-08
1.33527e-08
1.27995e-08
1.22276e-08
1.16392e-08
1.10363e-08
1.0421e-08
9.79556e-09
9.1621e-09
8.52293e-09
7.88043e-09
7.23701e-09
6.59522e-09
5.9577e-09
5.32723e-09
4.70674e-09
4.09935e-09
3.50846e-09
2.93776e-09
2.39142e-09
1.8742e-09
1.39187e-09
9.51743e-10
5.63984e-10
2.44803e-10
2.72127e-11
3.6733e-11
3.30388e-10
7.608e-10
1.28289e-09
1.87411e-09
2.51991e-09
3.20947e-09
3.93396e-09
4.68577e-09
5.45807e-09
6.24456e-09
7.03935e-09
7.83688e-09
8.63187e-09
9.41929e-09
1.01944e-08
1.09526e-08
1.16897e-08
1.24018e-08
1.3085e-08
1.37361e-08
1.43519e-08
1.49297e-08
1.54669e-08
1.59615e-08
1.64116e-08
1.68157e-08
1.71728e-08
1.74819e-08
1.77424e-08
1.79542e-08
1.81171e-08
1.82316e-08
1.82978e-08
1.83167e-08
1.82893e-08
1.82164e-08
1.80994e-08
1.79396e-08
1.77384e-08
1.74975e-08
1.72186e-08
1.69032e-08
1.65533e-08
1.61707e-08
1.57571e-08
1.53146e-08
1.48449e-08
1.43501e-08
1.3832e-08
1.32927e-08
1.2734e-08
1.21579e-08
1.15666e-08
1.09619e-08
1.03459e-08
9.72076e-09
9.08858e-09
8.45155e-09
7.81195e-09
7.17209e-09
6.53443e-09
5.9015e-09
5.27597e-09
4.6607e-09
4.0587e-09
3.47327e-09
2.90803e-09
2.36704e-09
1.85499e-09
1.37754e-09
9.41916e-10
5.58149e-10
2.42268e-10
2.69308e-11
3.77234e-11
3.39293e-10
7.81287e-10
1.31738e-09
1.92436e-09
2.58723e-09
3.29479e-09
4.03791e-09
4.80865e-09
5.5999e-09
6.40508e-09
7.21803e-09
8.03291e-09
8.8442e-09
9.64662e-09
1.04352e-08
1.12052e-08
1.19522e-08
1.26721e-08
1.3361e-08
1.40154e-08
1.46322e-08
1.52087e-08
1.57422e-08
1.62308e-08
1.66726e-08
1.70664e-08
1.74111e-08
1.7706e-08
1.79507e-08
1.81451e-08
1.82895e-08
1.83843e-08
1.84301e-08
1.84282e-08
1.83796e-08
1.82855e-08
1.81474e-08
1.7967e-08
1.77458e-08
1.74857e-08
1.71885e-08
1.68561e-08
1.64903e-08
1.60931e-08
1.56666e-08
1.52125e-08
1.4733e-08
1.42299e-08
1.37052e-08
1.31608e-08
1.25987e-08
1.20207e-08
1.14289e-08
1.08252e-08
1.02114e-08
9.58976e-09
8.96214e-09
8.33066e-09
7.69745e-09
7.06475e-09
6.43484e-09
5.81015e-09
5.19323e-09
4.5868e-09
3.99376e-09
3.41729e-09
2.86088e-09
2.32848e-09
1.82467e-09
1.35497e-09
9.26452e-10
5.48975e-10
2.38283e-10
2.64878e-11
3.87024e-11
3.48096e-10
8.01536e-10
1.35146e-09
1.974e-09
2.6537e-09
3.37898e-09
4.14036e-09
4.92962e-09
5.73932e-09
6.56258e-09
7.39295e-09
8.22433e-09
9.0509e-09
9.86715e-09
1.06678e-08
1.1448e-08
1.22031e-08
1.29288e-08
1.36211e-08
1.42765e-08
1.48918e-08
1.5464e-08
1.59909e-08
1.64703e-08
1.69006e-08
1.72806e-08
1.76094e-08
1.78866e-08
1.81119e-08
1.82855e-08
1.84078e-08
1.84795e-08
1.85018e-08
1.84761e-08
1.84035e-08
1.82856e-08
1.81242e-08
1.79211e-08
1.76781e-08
1.73973e-08
1.70807e-08
1.67304e-08
1.63483e-08
1.59366e-08
1.54973e-08
1.50324e-08
1.45439e-08
1.40337e-08
1.35039e-08
1.29564e-08
1.23929e-08
1.18154e-08
1.12258e-08
1.06258e-08
1.00174e-08
9.40234e-09
8.78261e-09
8.16012e-09
7.53687e-09
6.91492e-09
6.29643e-09
5.68367e-09
5.07902e-09
4.48507e-09
3.90457e-09
3.34055e-09
2.79635e-09
2.27578e-09
1.78327e-09
1.32417e-09
9.05369e-10
5.36473e-10
2.32855e-10
2.58843e-11
3.96759e-11
3.56848e-10
8.21668e-10
1.38534e-09
2.02332e-09
2.7197e-09
3.46252e-09
4.24194e-09
5.04941e-09
5.87716e-09
6.718e-09
7.56518e-09
8.41227e-09
9.25319e-09
1.00821e-08
1.08936e-08
1.16825e-08
1.24439e-08
1.31733e-08
1.38668e-08
1.45207e-08
1.51316e-08
1.56967e-08
1.62138e-08
1.66807e-08
1.7096e-08
1.74587e-08
1.7768e-08
1.80237e-08
1.82259e-08
1.8375e-08
1.84717e-08
1.85168e-08
1.85125e-08
1.84597e-08
1.83602e-08
1.82158e-08
1.80287e-08
1.78008e-08
1.75343e-08
1.72314e-08
1.68944e-08
1.65254e-08
1.61267e-08
1.57004e-08
1.52487e-08
1.47736e-08
1.42772e-08
1.37614e-08
1.32281e-08
1.26793e-08
1.21167e-08
1.15422e-08
1.09574e-08
1.03641e-08
9.76396e-09
9.15881e-09
8.55034e-09
7.94032e-09
7.33058e-09
6.72302e-09
6.1196e-09
5.52243e-09
4.93371e-09
4.35585e-09
3.79144e-09
3.24332e-09
2.71468e-09
2.20915e-09
1.73096e-09
1.28528e-09
8.78756e-10
5.20696e-10
2.26005e-10
2.51229e-11
4.06494e-11
3.65601e-10
8.41799e-10
1.4192e-09
2.07262e-09
2.78564e-09
3.54591e-09
4.34324e-09
5.16871e-09
6.01423e-09
6.87226e-09
7.7357e-09
8.59782e-09
9.45221e-09
1.02928e-08
1.11137e-08
1.19097e-08
1.26756e-08
1.34068e-08
1.40992e-08
1.47489e-08
1.53526e-08
1.59077e-08
1.64116e-08
1.68626e-08
1.72593e-08
1.76009e-08
1.78868e-08
1.81172e-08
1.82924e-08
1.84132e-08
1.84803e-08
1.84958e-08
1.84611e-08
1.83781e-08
1.82488e-08
1.80754e-08
1.78601e-08
1.76054e-08
1.73137e-08
1.69874e-08
1.6629e-08
1.62408e-08
1.58252e-08
1.53845e-08
1.49208e-08
1.44363e-08
1.39331e-08
1.34131e-08
1.28782e-08
1.23302e-08
1.17708e-08
1.12017e-08
1.06245e-08
1.00408e-08
9.4522e-09
8.86018e-09
8.26634e-09
7.67226e-09
7.07958e-09
6.48998e-09
5.90526e-09
5.32729e-09
4.7581e-09
4.19988e-09
3.65502e-09