/*--------------------------------*- C++ -*----------------------------------*\
  =========                 |
  \\      /  F ield         | OpenFOAM: The Open Source CFD Toolbox
   \\    /   O peration     | Website:  https://openfoam.org
    \\  /    A nd           | Version:  12
     \\/     M anipulation  |
\*---------------------------------------------------------------------------*/
FoamFile
{
    format      ascii;
    class       volScalarField;
    location    "4";
    object      p;
}
// * * * * * * * * * * * * * * * * * * * * * * * * * * * * * * * * * * * * * //

dimensions      [0 2 -2 0 0 0 0];

internalField   nonuniform List<scalar> 
5625
(
-1.93754e-10
2.64758e-07
1.34548e-06
3.23064e-06
5.66016e-06
8.404e-06
1.12802e-05
1.41362e-05
1.6842e-05
1.92886e-05
2.13869e-05
2.30649e-05
2.42654e-05
2.49448e-05
2.50704e-05
2.46196e-05
2.35783e-05
2.19398e-05
1.97039e-05
1.68761e-05
1.34669e-05
9.49098e-06
4.96695e-06
-8.32954e-08
-5.63498e-06
-1.16607e-05
-1.81309e-05
-2.50141e-05
-3.22769e-05
-3.98847e-05
-4.78015e-05
-5.59902e-05
-6.44127e-05
-7.30304e-05
-8.18038e-05
-9.0693e-05
-9.96577e-05
-0.000108657
-0.000117651
-0.000126599
-0.00013546
-0.000144193
-0.000152759
-0.000161119
-0.000169233
-0.000177063
-0.000184573
-0.000191726
-0.000198488
-0.000204826
-0.000210709
-0.000216107
-0.000220994
-0.000225347
-0.000229143
-0.000232367
-0.000235004
-0.000237046
-0.000238489
-0.000239336
-0.000239595
-0.000239283
-0.000238426
-0.000237058
-0.000235225
-0.000232989
-0.000230423
-0.000227618
-0.000224686
-0.000221758
-0.000218985
-0.00021655
-0.000214679
-0.000213626
-0.000213388
-3.55324e-06
-2.84567e-06
-1.61467e-06
7.65661e-08
2.0924e-06
4.29504e-06
6.56033e-06
8.77764e-06
1.08494e-05
1.26911e-05
1.42311e-05
1.54096e-05
1.61776e-05
1.64963e-05
1.63357e-05
1.56739e-05
1.44965e-05
1.27952e-05
1.05677e-05
7.81667e-06
4.54949e-06
7.77567e-07
-3.48408e-06
-8.2172e-06
-1.34007e-05
-1.90109e-05
-2.50221e-05
-3.14063e-05
-3.8134e-05
-4.51742e-05
-5.24945e-05
-6.00614e-05
-6.78404e-05
-7.57964e-05
-8.38934e-05
-9.2095e-05
-0.000100365
-0.000108665
-0.000116959
-0.000125209
-0.000133379
-0.000141432
-0.000149332
-0.000157042
-0.000164527
-0.000171754
-0.00017869
-0.000185301
-0.000191558
-0.000197431
-0.000202893
-0.00020792
-0.000212488
-0.000216577
-0.000220171
-0.000223255
-0.00022582
-0.00022786
-0.000229374
-0.000230366
-0.000230846
-0.000230832
-0.000230346
-0.000229422
-0.000228101
-0.000226432
-0.000224479
-0.000222315
-0.000220025
-0.000217709
-0.000215476
-0.000213452
-0.000211774
-0.000210578
-0.000209907
-9.4953e-06
-8.01276e-06
-6.1501e-06
-4.17177e-06
-2.12163e-06
-4.787e-08
1.97986e-06
3.89012e-06
5.6172e-06
7.10218e-06
8.29299e-06
9.14463e-06
9.61915e-06
9.68552e-06
9.31924e-06
8.50198e-06
7.22112e-06
5.46935e-06
3.24418e-06
5.4758e-07
-2.61451e-06
-6.23244e-06
-1.02933e-05
-1.47813e-05
-1.96777e-05
-2.49617e-05
-3.06102e-05
-3.65982e-05
-4.2899e-05
-4.94846e-05
-5.63255e-05
-6.33913e-05
-7.06504e-05
-7.80707e-05
-8.56191e-05
-9.32625e-05
-0.000100967
-0.000108698
-0.000116423
-0.000124106
-0.000131715
-0.000139215
-0.000146573
-0.000153756
-0.000160734
-0.000167473
-0.000173946
-0.000180122
-0.000185974
-0.000191476
-0.000196605
-0.000201338
-0.000205655
-0.000209538
-0.000212974
-0.00021595
-0.000218459
-0.000220496
-0.000222061
-0.000223158
-0.000223797
-0.000223991
-0.000223762
-0.000223135
-0.000222144
-0.000220827
-0.000219233
-0.000217414
-0.000215431
-0.000213351
-0.000211245
-0.000209185
-0.000207221
-0.000205396
-0.000203965
-1.63761e-05
-1.4007e-05
-1.13075e-05
-8.76742e-06
-6.37167e-06
-4.10355e-06
-1.99533e-06
-9.12298e-08
1.56711e-06
2.9417e-06
3.99787e-06
4.70483e-06
5.03604e-06
4.96952e-06
4.48782e-06
3.57797e-06
2.23131e-06
4.43333e-07
-1.78664e-06
-4.4556e-06
-7.55721e-06
-1.1082e-05
-1.50176e-05
-1.93491e-05
-2.40591e-05
-2.91282e-05
-3.45349e-05
-4.02561e-05
-4.62669e-05
-5.25414e-05
-5.90521e-05
-6.57708e-05
-7.26681e-05
-7.97142e-05
-8.68783e-05
-9.41294e-05
-0.000101436
-0.000108767
-0.00011609
-0.000123374
-0.000130586
-0.000137697
-0.000144675
-0.000151489
-0.000158111
-0.000164512
-0.000170663
-0.000176539
-0.000182113
-0.000187363
-0.000192265
-0.000196801
-0.00020095
-0.000204698
-0.000208031
-0.000210937
-0.000213409
-0.000215443
-0.000217036
-0.000218192
-0.000218917
-0.00021922
-0.000219117
-0.000218628
-0.000217775
-0.000216588
-0.000215098
-0.000213341
-0.000211359
-0.000209192
-0.000206887
-0.000204478
-0.000201951
-0.000199293
-0.000196978
-2.29501e-05
-1.97156e-05
-1.61518e-05
-1.29669e-05
-1.01064e-05
-7.50526e-06
-5.16994e-06
-3.12566e-06
-1.39611e-06
-2.80405e-09
1.03406e-06
1.69604e-06
1.96706e-06
1.83385e-06
1.28615e-06
3.16838e-07
-1.07811e-06
-2.89958e-06
-5.14549e-06
-7.81085e-06
-1.0888e-05
-1.43665e-05
-1.82339e-05
-2.24751e-05
-2.70732e-05
-3.20093e-05
-3.7263e-05
-4.28119e-05
-4.86328e-05
-5.47008e-05
-6.099e-05
-6.74738e-05
-7.41245e-05
-8.09138e-05
-8.7813e-05
-9.47927e-05
-0.000101823
-0.000108876
-0.000115919
-0.000122924
-0.000129861
-0.000136702
-0.000143416
-0.000149975
-0.000156352
-0.00016252
-0.000168453
-0.000174126
-0.000179514
-0.000184596
-0.000189351
-0.000193759
-0.000197802
-0.000201466
-0.000204736
-0.000207602
-0.000210055
-0.000212089
-0.0002137
-0.000214889
-0.000215657
-0.000216012
-0.000215961
-0.000215517
-0.000214694
-0.000213512
-0.000211989
-0.000210147
-0.000208011
-0.000205604
-0.000202954
-0.00020007
-0.000196889
-0.00019336
-0.000190174
-2.8399e-05
-2.43704e-05
-1.99885e-05
-1.6157e-05
-1.27949e-05
-9.80221e-06
-7.16813e-06
-4.90556e-06
-3.02566e-06
-1.5377e-06
-4.50652e-07
2.27082e-07
4.88296e-07
3.27444e-07
-2.59075e-07
-1.27274e-06
-2.71282e-06
-4.57628e-06
-6.85786e-06
-9.55003e-06
-1.26431e-05
-1.61254e-05
-1.99832e-05
-2.42009e-05
-2.87613e-05
-3.36455e-05
-3.88332e-05
-4.43027e-05
-5.00313e-05
-5.59948e-05
-6.21685e-05
-6.85266e-05
-7.50426e-05
-8.16895e-05
-8.84397e-05
-9.52654e-05
-0.000102138
-0.00010903
-0.000115913
-0.000122757
-0.000129536
-0.000136221
-0.000142784
-0.000149199
-0.000155439
-0.000161479
-0.000167293
-0.000172857
-0.00017815
-0.000183148
-0.000187831
-0.000192181
-0.000196181
-0.000199813
-0.000203065
-0.000205924
-0.00020838
-0.000210426
-0.000212056
-0.000213265
-0.000214054
-0.000214422
-0.000214375
-0.000213916
-0.000213054
-0.000211797
-0.000210156
-0.000208141
-0.000205764
-0.000203037
-0.000199975
-0.00019657
-0.000192725
-0.000188362
-0.000184369
-3.21642e-05
-2.74272e-05
-2.23016e-05
-1.78624e-05
-1.40101e-05
-1.06188e-05
-7.66647e-06
-5.15825e-06
-3.09677e-06
-1.48245e-06
-3.15754e-07
4.02828e-07
6.7334e-07
4.96802e-07
-1.24519e-07
-1.18693e-06
-2.68518e-06
-4.61236e-06
-6.95988e-06
-9.71746e-06
-1.28731e-05
-1.64134e-05
-2.0323e-05
-2.45853e-05
-2.91824e-05
-3.40948e-05
-3.93019e-05
-4.47822e-05
-5.05129e-05
-5.64704e-05
-6.26302e-05
-6.89672e-05
-7.54556e-05
-8.20692e-05
-8.87814e-05
-9.5565e-05
-0.000102393
-0.000109238
-0.000116072
-0.000122868
-0.0001296
-0.000136239
-0.00014276
-0.000149137
-0.000155343
-0.000161353
-0.000167145
-0.000172693
-0.000177976
-0.000182972
-0.00018766
-0.000192022
-0.00019604
-0.000199696
-0.000202978
-0.000205869
-0.00020836
-0.00021044
-0.000212101
-0.000213335
-0.000214139
-0.000214508
-0.000214441
-0.000213938
-0.000213
-0.000211629
-0.000209827
-0.000207597
-0.000204941
-0.000201864
-0.000198374
-0.000194449
-0.000189969
-0.000184837
-0.000180114
-3.38421e-05
-2.84805e-05
-2.26925e-05
-1.7703e-05
-1.33985e-05
-9.63299e-06
-6.37704e-06
-3.63086e-06
-1.39127e-06
3.47754e-07
1.59216e-06
2.34768e-06
2.6202e-06
2.41628e-06
1.74324e-06
6.09387e-07
-9.75871e-07
-3.00193e-06
-5.45696e-06
-8.32784e-06
-1.16002e-05
-1.52584e-05
-1.92857e-05
-2.36638e-05
-2.83739e-05
-3.33955e-05
-3.87076e-05
-4.42881e-05
-5.01141e-05
-5.61618e-05
-6.2407e-05
-6.88247e-05
-7.53894e-05
-8.20755e-05
-8.88565e-05
-9.57061e-05
-0.000102598
-0.000109504
-0.000116399
-0.000123256
-0.000130048
-0.000136749
-0.000143332
-0.000149772
-0.000156045
-0.000162124
-0.000167987
-0.000173609
-0.000178969
-0.000184045
-0.000188815
-0.00019326
-0.000197362
-0.000201103
-0.000204467
-0.000207439
-0.000210004
-0.000212151
-0.000213869
-0.000215147
-0.000215978
-0.000216353
-0.000216268
-0.000215716
-0.000214694
-0.000213198
-0.000211225
-0.000208771
-0.000205832
-0.000202407
-0.0001985
-0.000194083
-0.000189014
-0.000183182
-0.000177805
-3.31179e-05
-2.72086e-05
-2.08386e-05
-1.53638e-05
-1.06596e-05
-6.56364e-06
-3.04108e-06
-8.8897e-08
2.30022e-06
4.13716e-06
5.43285e-06
6.19799e-06
6.44331e-06
6.18003e-06
5.41984e-06
4.1752e-06
2.45926e-06
2.86115e-07
-2.32932e-06
-5.37111e-06
-8.82246e-06
-1.26656e-05
-1.68817e-05
-2.14513e-05
-2.6354e-05
-3.15683e-05
-3.70723e-05
-4.28432e-05
-4.88576e-05
-5.50915e-05
-6.15203e-05
-6.81191e-05
-7.48624e-05
-8.17245e-05
-8.86793e-05
-9.57007e-05
-0.000102762
-0.000109837
-0.0001169
-0.000123923
-0.000130881
-0.000137747
-0.000144496
-0.000151101
-0.000157539
-0.000163784
-0.000169812
-0.0001756
-0.000181124
-0.000186363
-0.000191295
-0.000195899
-0.000200156
-0.000204047
-0.000207553
-0.000210659
-0.000213349
-0.000215607
-0.00021742
-0.000218775
-0.000219661
-0.000220066
-0.000219982
-0.000219397
-0.000218305
-0.000216697
-0.000214564
-0.0002119
-0.000208695
-0.000204945
-0.000200651
-0.00019578
-0.000190173
-0.000183709
-0.000177742
-2.97224e-05
-2.33354e-05
-1.64605e-05
-1.05689e-05
-5.5264e-06
-1.15654e-06
2.57996e-06
5.68848e-06
8.17961e-06
1.00681e-05
1.13691e-05
1.20974e-05
1.22678e-05
1.18957e-05
1.09967e-05
9.58685e-06
7.68286e-06
5.30204e-06
2.46229e-06
-8.17744e-07
-4.51884e-06
-8.62099e-06
-1.31036e-05
-1.79453e-05
-2.31244e-05
-2.86181e-05
-3.44034e-05
-4.04568e-05
-4.67541e-05
-5.32707e-05
-5.99817e-05
-6.68618e-05
-7.38854e-05
-8.10265e-05
-8.82591e-05
-9.5557e-05
-0.000102894
-0.000110243
-0.000117578
-0.000124873
-0.000132101
-0.000139237
-0.000146254
-0.000153126
-0.000159829
-0.000166337
-0.000172626
-0.000178672
-0.00018445
-0.000189939
-0.000195116
-0.000199959
-0.000204446
-0.000208559
-0.000212276
-0.00021558
-0.000218453
-0.000220876
-0.000222835
-0.000224314
-0.000225297
-0.000225771
-0.000225722
-0.000225138
-0.000224006
-0.000222315
-0.000220053
-0.000217209
-0.00021377
-0.00020973
-0.000205087
-0.000199806
-0.000193713
-0.000186676
-0.000180177
-2.34023e-05
-1.66034e-05
-9.29914e-06
-3.06226e-06
2.25026e-06
6.82754e-06
1.07129e-05
1.3914e-05
1.64442e-05
1.83219e-05
1.95657e-05
2.01943e-05
2.02263e-05
1.96805e-05
1.85762e-05
1.69331e-05
1.47709e-05
1.21102e-05
8.97162e-06
5.37648e-06
1.34641e-06
-3.09641e-06
-7.92943e-06
-1.31296e-05
-1.86735e-05
-2.45373e-05
-3.06968e-05
-3.71273e-05
-4.38039e-05
-5.07013e-05
-5.77941e-05
-6.50565e-05
-7.24625e-05
-7.99858e-05
-8.76002e-05
-9.52791e-05
-0.000102996
-0.000110725
-0.000118438
-0.00012611
-0.000133714
-0.000141223
-0.000148611
-0.000155853
-0.000162922
-0.000169793
-0.00017644
-0.00018284
-0.000188967
-0.000194797
-0.000200307
-0.000205474
-0.000210275
-0.000214688
-0.000218692
-0.000222266
-0.00022539
-0.000228045
-0.000230212
-0.000231871
-0.000233007
-0.000233601
-0.000233638
-0.000233101
-0.000231975
-0.000230245
-0.000227896
-0.000224913
-0.000221283
-0.000216997
-0.00021205
-0.000206405
-0.000199876
-0.000192321
-0.000185337
-1.39017e-05
-6.75595e-06
9.00902e-07
7.40704e-06
1.29139e-05
1.76226e-05
2.15805e-05
2.47976e-05
2.72903e-05
2.90803e-05
3.01899e-05
3.06412e-05
3.04565e-05
2.96582e-05
2.82689e-05
2.63116e-05
2.38092e-05
2.07853e-05
1.72632e-05
1.32668e-05
8.82024e-06
3.94769e-06
-1.3263e-06
-6.97696e-06
-1.29793e-05
-1.93081e-05
-2.5938e-05
-3.28433e-05
-3.99982e-05
-4.73766e-05
-5.49525e-05
-6.26994e-05
-7.0591e-05
-7.86006e-05
-8.67015e-05
-9.4867e-05
-0.00010307
-0.000111284
-0.000119482
-0.000127637
-0.000135722
-0.000143711
-0.000151576
-0.000159291
-0.00016683
-0.000174167
-0.000181274
-0.000188127
-0.0001947
-0.000200968
-0.000206906
-0.000212488
-0.000217692
-0.000222493
-0.000226868
-0.000230794
-0.000234249
-0.000237211
-0.000239658
-0.000241569
-0.000242924
-0.000243703
-0.000243887
-0.000243457
-0.000242393
-0.000240679
-0.000238297
-0.00023523
-0.000231459
-0.000226976
-0.000221776
-0.000215816
-0.000208899
-0.000200875
-0.000193447
-9.4859e-07
6.47559e-06
1.44028e-05
2.10947e-05
2.67113e-05
3.14646e-05
3.54067e-05
3.85504e-05
4.09154e-05
4.25269e-05
4.34111e-05
4.35936e-05
4.31003e-05
4.19572e-05
4.01903e-05
3.78258e-05
3.48899e-05
3.14087e-05
2.74087e-05
2.29161e-05
1.79572e-05
1.25586e-05
6.7466e-06
5.47667e-07
-6.01166e-06
-1.29048e-05
-2.01052e-05
-2.75862e-05
-3.53211e-05
-4.3283e-05
-5.14451e-05
-5.97806e-05
-6.82625e-05
-7.68636e-05
-8.5557e-05
-9.43154e-05
-0.000103112
-0.000111919
-0.000120709
-0.000129455
-0.00013813
-0.000146706
-0.000155156
-0.000163452
-0.000171568
-0.000179476
-0.000187149
-0.000194561
-0.000201683
-0.000208491
-0.000214957
-0.000221055
-0.000226759
-0.000232043
-0.000236883
-0.000241252
-0.000245126
-0.000248481
-0.000251292
-0.000253536
-0.00025519
-0.00025623
-0.000256635
-0.000256382
-0.000255451
-0.00025382
-0.000251468
-0.000248377
-0.000244526
-0.000239903
-0.000234503
-0.00022828
-0.000221024
-0.000212578
-0.000204745
1.57532e-05
2.33796e-05
3.14848e-05
3.82681e-05
4.38976e-05
4.8596e-05
5.24204e-05
5.53872e-05
5.75199e-05
5.88478e-05
5.9401e-05
5.9209e-05
5.83015e-05
5.67082e-05
5.44585e-05
5.15818e-05
4.81077e-05
4.40651e-05
3.94831e-05
3.43905e-05
2.88159e-05
2.27877e-05
1.63343e-05
9.48374e-06
2.26399e-06
-5.29713e-06
-1.31719e-05
-2.13327e-05
-2.97519e-05
-3.84021e-05
-4.72559e-05
-5.62857e-05
-6.54641e-05
-7.47637e-05
-8.4157e-05
-9.36163e-05
-0.000103114
-0.000112623
-0.000122115
-0.000131562
-0.000140937
-0.000150211
-0.000159357
-0.000168345
-0.000177149
-0.00018574
-0.000194089
-0.000202169
-0.000209952
-0.000217408
-0.00022451
-0.000231231
-0.000237541
-0.000243413
-0.00024882
-0.000253733
-0.000258127
-0.000261972
-0.000265243
-0.000267913
-0.000269956
-0.000271346
-0.000272058
-0.000272066
-0.000271346
-0.000269875
-0.000267629
-0.000264584
-0.00026072
-0.000256021
-0.000250481
-0.00024405
-0.000236507
-0.000227686
-0.000219485
3.653e-05
4.42695e-05
5.24452e-05
5.92103e-05
6.47403e-05
6.92684e-05
7.28573e-05
7.55276e-05
7.73076e-05
7.82311e-05
7.83324e-05
7.76455e-05
7.6204e-05
7.40415e-05
7.11911e-05
6.76856e-05
6.35576e-05
5.88392e-05
5.3562e-05
4.77572e-05
4.14558e-05
3.46879e-05
2.74838e-05
1.9873e-05
1.18849e-05
3.54828e-06
-5.10801e-06
-1.40556e-05
-2.32661e-05
-3.27116e-05
-4.23641e-05
-5.21957e-05
-6.21786e-05
-7.2285e-05
-8.2487e-05
-9.2757e-05
-0.000103067
-0.000113389
-0.000123694
-0.000133954
-0.000144141
-0.000154227
-0.000164183
-0.000173979
-0.000183586
-0.000192976
-0.000202118
-0.000210983
-0.000219542
-0.000227763
-0.000235618
-0.000243077
-0.000250108
-0.000256683
-0.000262771
-0.000268341
-0.000273364
-0.000277809
-0.000281648
-0.000284849
-0.000287385
-0.000289225
-0.000290342
-0.000290706
-0.00029029
-0.000289068
-0.000287011
-0.000284095
-0.000280295
-0.000275592
-0.000269978
-0.000263401
-0.000255627
-0.000246481
-0.00023795
6.17409e-05
6.94868e-05
7.76048e-05
8.42218e-05
8.95207e-05
9.37438e-05
9.69601e-05
9.91959e-05
0.000100485
0.000100866
0.000100378
9.90596e-05
9.69495e-05
9.4085e-05
9.05031e-05
8.62402e-05
8.13319e-05
7.58133e-05
6.97187e-05
6.30817e-05
5.59351e-05
4.83113e-05
4.02418e-05
3.17576e-05
2.28891e-05
1.36662e-05
4.11848e-06
-5.72511e-06
-1.58358e-05
-2.61851e-05
-3.67448e-05
-4.74867e-05
-5.83829e-05
-6.94054e-05
-8.05263e-05
-9.17174e-05
-0.000102951
-0.000114198
-0.00012543
-0.000136619
-0.000147736
-0.00015875
-0.000169634
-0.000180357
-0.000190889
-0.000201198
-0.000211256
-0.000221029
-0.000230488
-0.0002396
-0.000248333
-0.000256654
-0.000264533
-0.000271935
-0.000278828
-0.000285179
-0.000290955
-0.000296122
-0.000300649
-0.000304501
-0.000307645
-0.000310051
-0.000311684
-0.000312513
-0.000312506
-0.000311634
-0.000309865
-0.00030717
-0.000303521
-0.000298897
-0.000293286
-0.000286632
-0.000278689
-0.000269275
-0.000260459
9.17796e-05
9.94015e-05
0.000107307
0.000113621
0.000118533
0.000122293
0.000124977
0.000126619
0.000127258
0.000126938
0.000125706
0.000123603
0.000120674
0.000116961
0.000112503
0.000107342
0.000101516
9.50636e-05
8.8021e-05
8.04242e-05
7.23082e-05
6.37066e-05
5.46525e-05
4.5178e-05
3.53143e-05
2.5092e-05
1.4541e-05
3.69076e-06
-7.4298e-06
-1.87921e-05
-3.0368e-05
-4.21293e-05
-5.40481e-05
-6.60966e-05
-7.82468e-05
-9.04707e-05
-0.00010274
-0.000115027
-0.000127302
-0.000139536
-0.0001517
-0.000163765
-0.000175699
-0.000187473
-0.000199055
-0.000210412
-0.000221514
-0.000232328
-0.000242819
-0.000252954
-0.0002627
-0.000272021
-0.000280883
-0.000289249
-0.000297085
-0.000304354
-0.00031102
-0.000317045
-0.000322394
-0.00032703
-0.000330916
-0.000334016
-0.000336292
-0.00033771
-0.000338233
-0.000337827
-0.000336457
-0.00033409
-0.000330693
-0.000326241
-0.000320721
-0.000314071
-0.000306032
-0.000296414
-0.000287363
0.000127073
0.000134411
0.000141916
0.00014774
0.00015208
0.000155192
0.000157159
0.000158023
0.000157829
0.000156631
0.000154478
0.00015142
0.000147505
0.00014278
0.00013729
0.000131078
0.000124187
0.000116657
0.000108528
9.98376e-05
9.06221e-05
8.09169e-05
7.07557e-05
6.01715e-05
4.9196e-05
3.78601e-05
2.61937e-05
1.42262e-05
1.98632e-06
-1.04977e-05
-2.31979e-05
-3.60868e-05
-4.91368e-05
-6.23204e-05
-7.56101e-05
-8.89782e-05
-0.000102397
-0.000115838
-0.000129272
-0.000142671
-0.000156004
-0.000169242
-0.000182354
-0.000195307
-0.000208071
-0.000220611
-0.000232894
-0.000244886
-0.000256551
-0.000267854
-0.000278758
-0.000289226
-0.00029922
-0.000308702
-0.000317632
-0.00032597
-0.000333677
-0.000340713
-0.000347036
-0.000352606
-0.000357382
-0.000361322
-0.000364386
-0.000366533
-0.000367723
-0.000367917
-0.000367074
-0.000365157
-0.000362128
-0.000357959
-0.000352632
-0.000346077
-0.000338028
-0.000328285
-0.000319059
0.000168076
0.000174936
0.000181811
0.000186923
0.000190473
0.000192718
0.000193752
0.000193625
0.000192392
0.000190112
0.000186842
0.000182637
0.000177553
0.000171638
0.000164944
0.000157517
0.000149403
0.000140645
0.000131285
0.000121362
0.000110913
9.99753e-05
8.85829e-05
7.67689e-05
6.45651e-05
5.20021e-05
3.91094e-05
2.59158e-05
1.24493e-05
-1.26277e-06
-1.51933e-05
-2.93156e-05
-4.3603e-05
-5.80289e-05
-7.25667e-05
-8.71893e-05
-0.000101869
-0.000116579
-0.00013129
-0.000145974
-0.0001606
-0.000175138
-0.000189557
-0.000203824
-0.000217906
-0.000231769
-0.000245378
-0.000258696
-0.000271687
-0.000284313
-0.000296533
-0.000308308
-0.000319597
-0.000330358
-0.000340549
-0.000350125
-0.000359044
-0.000367259
-0.000374726
-0.000381399
-0.000387232
-0.00039218
-0.000396195
-0.000399233
-0.000401247
-0.000402192
-0.000402024
-0.000400698
-0.000398173
-0.000394414
-0.000389397
-0.00038305
-0.000375091
-0.000365314
-0.000355987
0.000215271
0.000221412
0.000227381
0.000231515
0.000234014
0.000235139
0.00023499
0.000233629
0.000231119
0.000227528
0.000222921
0.000217359
0.000210901
0.000203605
0.000195522
0.000186706
0.000177202
0.000167058
0.000156316
0.000145017
0.000133199
0.0001209
0.000108152
9.49899e-05
8.14436e-05
6.75431e-05
5.33168e-05
3.87922e-05
2.39959e-05
8.95394e-06
-6.30826e-06
-2.17654e-05
-3.73924e-05
-5.31641e-05
-6.9055e-05
-8.50394e-05
-0.000101091
-0.000117183
-0.000133288
-0.000149376
-0.000165419
-0.000181386
-0.000197246
-0.000212965
-0.000228509
-0.000243843
-0.00025893
-0.000273732
-0.000288211
-0.000302324
-0.000316031
-0.000329288
-0.000342051
-0.000354273
-0.000365909
-0.00037691
-0.000387228
-0.000396813
-0.000405614
-0.000413581
-0.000420662
-0.000426805
-0.000431959
-0.00043607
-0.000439088
-0.000440961
-0.000441638
-0.000441068
-0.000439202
-0.000436002
-0.000431436
-0.000425424
-0.000417676
-0.000407978
-0.000398637
0.000269153
0.000274286
0.000279015
0.000281852
0.000282996
0.000282702
0.000281082
0.000278207
0.000274152
0.000268994
0.000262804
0.000255652
0.000247601
0.000238714
0.000229047
0.000218655
0.000207588
0.000195894
0.000183617
0.000170798
0.000157476
0.000143687
0.000129463
0.000114838
9.98401e-05
8.44974e-05
6.88366e-05
5.28829e-05
3.66609e-05
2.01941e-05
3.50599e-06
-1.33806e-05
-3.04428e-05
-4.76574e-05
-6.50011e-05
-8.24498e-05
-9.9979e-05
-0.000117563
-0.000135175
-0.000152789
-0.000170374
-0.0001879
-0.000205336
-0.000222649
-0.000239803
-0.000256763
-0.000273489
-0.000289943
-0.000306082
-0.000321863
-0.000337242
-0.000352171
-0.000366602
-0.000380485
-0.00039377
-0.000406403
-0.000418331
-0.000429498
-0.000439848
-0.000449324
-0.000457869
-0.000465422
-0.000471926
-0.000477322
-0.00048155
-0.000484553
-0.000486271
-0.000486646
-0.000485623
-0.000483155
-0.000479203
-0.00047368
-0.000466286
-0.000456801
-0.000447555
0.000330218
0.000333994
0.000337084
0.000338247
0.000337678
0.000335621
0.000332196
0.00032749
0.000321589
0.000314576
0.000306534
0.000297536
0.000287653
0.000276952
0.000265492
0.000253331
0.000240522
0.000227111
0.000213145
0.000198664
0.000183705
0.000168303
0.000152489
0.000136294
0.000119743
0.000102863
8.56766e-05
6.82059e-05
5.04725e-05
3.24967e-05
1.42986e-05
-4.10211e-06
-2.26854e-05
-4.14313e-05
-6.0319e-05
-7.93271e-05
-9.84334e-05
-0.000117614
-0.000136845
-0.000156099
-0.000175349
-0.000194565
-0.000213716
-0.000232768
-0.000251686
-0.000270432
-0.000288967
-0.000307249
-0.000325234
-0.000342875
-0.000360126
-0.000376934
-0.000393248
-0.000409013
-0.000424172
-0.000438669
-0.000452442
-0.00046543
-0.00047757
-0.000488798
-0.00049905
-0.000508258
-0.000516356
-0.000523276
-0.000528953
-0.000533317
-0.000536304
-0.000537845
-0.000537877
-0.000536343
-0.000533198
-0.000528345
-0.000521476
-0.000512364
-0.000503342
0.00039895
0.000400948
0.000401924
0.000400971
0.000398273
0.000394054
0.000388445
0.000381548
0.00037346
0.000364276
0.000354083
0.000342963
0.000330992
0.00031824
0.000304771
0.000290642
0.000275907
0.000260614
0.000244807
0.000228525
0.000211804
0.000194675
0.000177168
0.000159307
0.000141116
0.000122616
0.000103826
8.47646e-05
6.54485e-05
4.58936e-05
2.61156e-05
6.13013e-06
-1.40472e-05
-3.44e-05
-5.49114e-05
-7.55635e-05
-9.63369e-05
-0.000117211
-0.000138164
-0.000159171
-0.000180205
-0.00020124
-0.000222243
-0.000243181
-0.00026402
-0.00028472
-0.000305241
-0.000325538
-0.000345566
-0.000365276
-0.000384614
-0.000403528
-0.000421959
-0.000439848
-0.000457133
-0.000473749
-0.000489631
-0.000504708
-0.000518911
-0.000532167
-0.000544402
-0.000555543
-0.000565512
-0.000574234
-0.000581631
-0.000587627
-0.000592145
-0.000595108
-0.000596441
-0.00059608
-0.000593967
-0.000589997
-0.000583854
-0.000575307
-0.000566665
0.000475795
0.000475519
0.00047382
0.000470232
0.00046492
0.000458083
0.000449859
0.000440366
0.000429714
0.000418006
0.000405339
0.000391801
0.00037747
0.00036242
0.000346715
0.000330416
0.000313574
0.000296237
0.000278445
0.000260234
0.000241637
0.000222681
0.00020339
0.000183784
0.000163881
0.000143698
0.000123246
0.00010254
8.15891e-05
6.04042e-05
3.89953e-05
1.73723e-05
-4.45416e-06
-2.6473e-05
-4.8672e-05
-7.10379e-05
-9.35556e-05
-0.000116208
-0.000138976
-0.000161839
-0.000184772
-0.000207749
-0.00023074
-0.000253713
-0.000276632
-0.000299458
-0.000322149
-0.00034466
-0.000366941
-0.00038894
-0.000410601
-0.000431866
-0.000452671
-0.000472952
-0.00049264
-0.000511663
-0.000529947
-0.000547414
-0.000563987
-0.000579582
-0.000594118
-0.000607508
-0.000619666
-0.000630506
-0.000639938
-0.000647875
-0.000654228
-0.00065891
-0.000661834
-0.000662922
-0.000662106
-0.00065927
-0.000654092
-0.000646339
-0.000638263
0.000561138
0.000557999
0.000552965
0.000546138
0.000537658
0.000527681
0.000516355
0.000503813
0.00049018
0.000475567
0.000460077
0.000443803
0.000426826
0.000409223
0.000391057
0.000372386
0.000353261
0.000333726
0.000313816
0.000293563
0.000272993
0.000252128
0.000230984
0.000209576
0.000187915
0.000166007
0.00014386
0.000121479
9.88658e-05
7.60246e-05
5.29579e-05
2.96686e-05
6.16014e-06
-1.75617e-05
-4.14916e-05
-6.56219e-05
-8.9943e-05
-0.000114442
-0.000139106
-0.000163915
-0.00018885
-0.000213886
-0.000238996
-0.000264149
-0.000289308
-0.000314436
-0.000339488
-0.000364418
-0.000389174
-0.0004137
-0.000437937
-0.00046182
-0.000485281
-0.000508249
-0.000530646
-0.000552395
-0.000573411
-0.000593608
-0.000612897
-0.000631186
-0.000648379
-0.000664381
-0.000679092
-0.000692413
-0.000704242
-0.000714478
-0.00072302
-0.000729765
-0.000734614
-0.000737475
-0.000738267
-0.000736859
-0.000732929
-0.00072624
-0.000718953
0.000655256
0.000648565
0.00063943
0.000628669
0.000616386
0.00060268
0.000587706
0.000571615
0.000554543
0.000536611
0.000517925
0.000498582
0.000478665
0.000458248
0.000437394
0.000416158
0.000394585
0.000372712
0.000350569
0.000328181
0.000305565
0.000282734
0.000259697
0.000236458
0.000213019
0.000189378
0.000165532
0.000141477
0.000117206
9.27133e-05
6.79928e-05
4.30372e-05
1.78412e-05
-7.59154e-06
-3.32684e-05
-5.91887e-05
-8.53489e-05
-0.000111743
-0.000138361
-0.000165192
-0.000192217
-0.000219418
-0.000246768
-0.000274239
-0.000301796
-0.000329401
-0.00035701
-0.000384573
-0.000412037
-0.000439343
-0.000466426
-0.000493216
-0.00051964
-0.000545618
-0.000571065
-0.000595894
-0.000620011
-0.000643318
-0.000665715
-0.000687097
-0.000707357
-0.000726384
-0.000744064
-0.000760284
-0.000774926
-0.000787875
-0.000799013
-0.000808223
-0.000815388
-0.0008204
-0.000823162
-0.000823529
-0.000821178
-0.000815874
-0.000809639
0.000758284
0.000747241
0.000733118
0.000717627
0.000700821
0.000682725
0.000663497
0.000643305
0.000622299
0.000600603
0.000578328
0.00055557
0.000532412
0.000508924
0.000485164
0.00046118
0.00043701
0.000412681
0.000388216
0.000363626
0.000338921
0.0003141
0.000289162
0.000264099
0.000238901
0.000213554
0.000188044
0.000162354
0.000136467
0.000110366
8.40321e-05
5.74414e-05
3.05966e-05
3.48468e-06
-2.39232e-05
-5.16283e-05
-7.96337e-05
-0.000107941
-0.000136549
-0.000165451
-0.000194636
-0.000224088
-0.000253786
-0.000283704
-0.000313809
-0.000344064
-0.000374424
-0.000404839
-0.000435253
-0.000465603
-0.000495821
-0.00052583
-0.00055555
-0.000584892
-0.000613764
-0.000642067
-0.000669695
-0.00069654
-0.000722487
-0.000747416
-0.000771205
-0.000793728
-0.000814855
-0.000834453
-0.00085239
-0.000868529
-0.000882736
-0.000894875
-0.00090481
-0.000912414
-0.000917571
-0.000920119
-0.000919739
-0.000916198
-0.000911325
0.000870155
0.000853836
0.000833709
0.000812582
0.000790443
0.000767221
0.00074307
0.000718179
0.000692704
0.000666774
0.0006405
0.000613975
0.000587276
0.000560466
0.000533596
0.000506701
0.000479809
0.000452935
0.000426088
0.000399268
0.000372467
0.000345672
0.000318867
0.000292029
0.000265134
0.000238154
0.000211059
0.00018382
0.000156405
0.000128782
0.000100922
7.27948e-05
4.43785e-05
1.56412e-05
-1.34389e-05
-4.28796e-05
-7.2696e-05
-0.000102899
-0.000133497
-0.000164489
-0.000195873
-0.000227638
-0.000259769
-0.000292244
-0.000325033
-0.000358101
-0.000391403
-0.000424888
-0.000458499
-0.00049217
-0.000525826
-0.000559386
-0.00059276
-0.000625854
-0.000658562
-0.000690774
-0.000722372
-0.000753232
-0.000783224
-0.000812213
-0.000840058
-0.000866615
-0.000891733
-0.000915261
-0.000937044
-0.000956926
-0.000974749
-0.000990356
-0.00100359
-0.0010143
-0.00102235
-0.00102755
-0.0010296
-0.00102827
-0.00102513
0.000990534
0.000967882
0.000940592
0.000912809
0.000884434
0.000855272
0.00082547
0.000795232
0.000764722
0.000734067
0.000703373
0.000672725
0.000642193
0.000611826
0.000581661
0.00055172
0.000522014
0.000492542
0.000463295
0.000434255
0.000405398
0.000376693
0.000348104
0.000319592
0.000291114
0.000262626
0.000234082
0.000205433
0.000176633
0.000147634
0.00011839
8.8858e-05
5.89953e-05
2.87619e-05
-1.87811e-06
-3.29568e-05
-6.4502e-05
-9.65366e-05
-0.000129078
-0.000162138
-0.000195721
-0.000229827
-0.000264445
-0.00029956
-0.000335147
-0.000371172
-0.000407594
-0.000444363
-0.000481417
-0.000518688
-0.000556098
-0.000593559
-0.000630972
-0.000668233
-0.000705225
-0.000741824
-0.000777899
-0.000813308
-0.000847903
-0.00088153
-0.000914028
-0.000945229
-0.000974962
-0.00100305
-0.00102932
-0.00105358
-0.00107565
-0.00109535
-0.0011125
-0.00112692
-0.00113844
-0.00114686
-0.00115188
-0.00115328
-0.0011523
0.00111874
0.00108855
0.00105279
0.00101721
0.000981602
0.000945611
0.00090937
0.000873096
0.000836954
0.000801067
0.000765528
0.000730411
0.000695767
0.00066163
0.000628017
0.000594929
0.000562356
0.000530277
0.000498658
0.000467462
0.000436641
0.000406143
0.00037591
0.000345883
0.000315997
0.000286188
0.000256389
0.000226533
0.000196554
0.000166386
0.000135965
0.000105228
7.41167e-05
4.25742e-05
1.05485e-05
-2.20082e-05
-5.51389e-05
-8.88805e-05
-0.000123264
-0.000158313
-0.000194046
-0.000230469
-0.000267585
-0.000305383
-0.000343847
-0.000382946
-0.000422644
-0.00046289
-0.000503624
-0.000544774
-0.000586258
-0.000627981
-0.000669837
-0.00071171
-0.00075347
-0.000794979
-0.000836088
-0.000876636
-0.000916457
-0.000955372
-0.000993196
-0.00102974
-0.00106479
-0.00109817
-0.00112965
-0.00115902
-0.00118608
-0.0012106
-0.00123238
-0.0012512
-0.00126687
-0.00127915
-0.00128778
-0.00129253
-0.00129422
0.00125363
0.00121456
0.00116888
0.00112423
0.0010803
0.00103651
0.000992992
0.000949955
0.000907566
0.000865931
0.000825128
0.000785207
0.000746198
0.000708109
0.000670931
0.000634638
0.000599194
0.000564548
0.000530642
0.00049741
0.000464777
0.000432665
0.000400992
0.000369673
0.000338621
0.000307745
0.000276957
0.000246167
0.000215288
0.000184231
0.000152912
0.000121248
8.91591e-05
5.65704e-05
2.34101e-05
-1.03881e-05
-4.48848e-05
-8.01346e-05
-0.000116185
-0.000153075
-0.000190837
-0.000229492
-0.000269053
-0.000309522
-0.00035089
-0.000393135
-0.000436225
-0.000480113
-0.00052474
-0.000570033
-0.000615905
-0.000662256
-0.000708971
-0.000755922
-0.000802966
-0.000849948
-0.0008967
-0.00094304
-0.000988776
-0.00103371
-0.00107761
-0.00112028
-0.00116147
-0.00120096
-0.00123849
-0.00127382
-0.0013067
-0.00133689
-0.00136413
-0.00138817
-0.00140878
-0.0014257
-0.00143866
-0.00144749
-0.00145246
0.00139354
0.00134408
0.00128685
0.00123176
0.00117831
0.00112571
0.00107401
0.00102346
0.000974192
0.000926298
0.000879823
0.000834789
0.000791193