/*--------------------------------*- C++ -*----------------------------------*\
  =========                 |
  \\      /  F ield         | OpenFOAM: The Open Source CFD Toolbox
   \\    /   O peration     | Website:  https://openfoam.org
    \\  /    A nd           | Version:  12
     \\/     M anipulation  |
\*---------------------------------------------------------------------------*/
FoamFile
{
    format      ascii;
    class       surfaceScalarField;
    location    "4";
    object      phi;
}
// * * * * * * * * * * * * * * * * * * * * * * * * * * * * * * * * * * * * * //

dimensions      [0 3 -1 0 0 0 0];

internalField   nonuniform List<scalar> 
11100
(
-1.36692e-11
1.3672e-11
-2.98544e-11
1.61855e-11
-3.45966e-11
4.7427e-12
-2.07729e-11
-1.38233e-11
1.49336e-11
-3.57062e-11
7.35736e-11
-5.86396e-11
1.54784e-10
-8.12105e-11
2.57333e-10
-1.02548e-10
3.79471e-10
-1.22137e-10
5.19162e-10
-1.39691e-10
6.74234e-10
-1.55072e-10
8.4247e-10
-1.68235e-10
1.02167e-09
-1.79196e-10
1.20968e-09
-1.8801e-10
1.40443e-09
-1.94755e-10
1.60395e-09
-1.99521e-10
1.80636e-09
-2.02409e-10
2.00988e-09
-2.03522e-10
2.21285e-09
-2.02966e-10
2.41369e-09
-2.00845e-10
2.61095e-09
-1.97262e-10
2.80327e-09
-1.92317e-10
2.98938e-09
-1.86109e-10
3.16811e-09
-1.78734e-10
3.3384e-09
-1.70282e-10
3.49924e-09
-1.60843e-10
3.64974e-09
-1.50505e-10
3.78909e-09
-1.39349e-10
3.91655e-09
-1.27458e-10
4.03146e-09
-1.14909e-10
4.13324e-09
-1.0178e-10
4.22138e-09
-8.8144e-11
4.29546e-09
-7.4075e-11
4.3551e-09
-5.96443e-11
4.40002e-09
-4.49228e-11
4.43e-09
-2.99803e-11
4.44489e-09
-1.48864e-11
4.4446e-09
2.89322e-13
4.42912e-09
1.54772e-11
4.39851e-09
3.06073e-11
4.3529e-09
4.56085e-11
4.29249e-09
6.04089e-11
4.21756e-09
7.49353e-11
4.12845e-09
8.91131e-11
4.02558e-09
1.02866e-10
3.90946e-09
1.16115e-10
3.78068e-09
1.28781e-10
3.6399e-09
1.40781e-10
3.48787e-09
1.5203e-10
3.32543e-09
1.62441e-10
3.1535e-09
1.71925e-10
2.97311e-09
1.80391e-10
2.78537e-09
1.87743e-10
2.59148e-09
1.93886e-10
2.39276e-09
1.98721e-10
2.19061e-09
2.02148e-10
1.98655e-09
2.04066e-10
1.78217e-09
2.04373e-10
1.57921e-09
2.02967e-10
1.37946e-09
1.99746e-10
1.18485e-09
1.94614e-10
9.97369e-10
1.87479e-10
8.19109e-10
1.78259e-10
6.52217e-10
1.66892e-10
4.9888e-10
1.53337e-10
3.61282e-10
1.37598e-10
2.41543e-10
1.19739e-10
1.41619e-10
9.99236e-11
6.31564e-11
7.8463e-11
7.25543e-12
5.5901e-11
-2.58801e-11
3.31356e-11
-3.74821e-11
1.16022e-11
-3.10487e-11
-6.43319e-12
-1.38978e-11
-1.71508e-11
-1.38977e-11
1.0312e-13
1.3569e-11
2.01575e-11
-3.8686e-12
7.49359e-11
-5.00354e-11
1.73614e-10
-1.12501e-10
3.21053e-10
-1.83145e-10
5.18965e-10
-2.56552e-10
7.66793e-10
-3.29038e-10
1.06237e-09
-3.98121e-10
1.4024e-09
-4.62169e-10
1.78286e-09
-5.2015e-10
2.19924e-09
-5.71455e-10
2.64678e-09
-6.15769e-10
3.12056e-09
-6.52985e-10
3.6157e-09
-6.83141e-10
4.12732e-09
-7.06375e-10
4.65069e-09
-7.22897e-10
5.18125e-09
-7.32963e-10
5.71458e-09
-7.3686e-10
6.24652e-09
-7.34897e-10
6.77307e-09
-7.27395e-10
7.29048e-09
-7.14677e-10
7.79524e-09
-6.97073e-10
8.28403e-09
-6.74906e-10
8.7538e-09
-6.48499e-10
9.20169e-09
-6.18169e-10
9.62507e-09
-5.84226e-10
1.00215e-08
-5.46973e-10
1.03889e-08
-5.06709e-10
1.07252e-08
-4.63723e-10
1.10286e-08
-4.183e-10
1.12975e-08
-3.70718e-10
1.15306e-08
-3.21251e-10
1.17267e-08
-2.70168e-10
1.18848e-08
-2.17732e-10
1.20041e-08
-1.64208e-10
1.20839e-08
-1.09855e-10
1.2124e-08
-5.49325e-11
1.2124e-08
2.99476e-13
1.20839e-08
5.55807e-11
1.20038e-08
1.10649e-10
1.18842e-08
1.6524e-10
1.17255e-08
2.19085e-10
1.15285e-08
2.71912e-10
1.12942e-08
3.23444e-10
1.10237e-08
3.73399e-10
1.07183e-08
4.21488e-10
1.03797e-08
4.67417e-10
1.00096e-08
5.10887e-10
9.61e-09
5.5159e-10
9.18323e-09
5.89214e-10
8.73172e-09
6.23439e-10
8.25817e-09
6.53942e-10
7.76551e-09
6.80394e-10
7.25694e-09
7.02464e-10
6.73584e-09
7.19817e-10
6.20587e-09
7.32122e-10
5.67089e-09
7.39046e-10
5.13499e-09
7.40268e-10
4.60248e-09
7.35475e-10
4.07785e-09
7.24374e-10
3.56577e-09
7.06697e-10
3.07103e-09
6.82216e-10
2.59853e-09
6.50759e-10
2.1532e-09
6.12229e-10
1.7399e-09
5.66638e-10
1.36334e-09
5.14153e-10
1.02793e-09
4.55152e-10
7.37534e-10
3.90318e-10
4.95242e-10
3.20755e-10
3.02969e-10
2.48174e-10
1.60973e-10
1.75131e-10
6.72039e-11
1.05372e-10
1.64272e-11
4.43436e-11
-9.68393e-13
2.44988e-13
-1.48661e-11
2.3618e-11
-1.00488e-11
1.02855e-10
-8.31057e-11
2.4476e-10
-1.9194e-10
4.54044e-10
-3.21784e-10
7.33025e-10
-4.62126e-10
1.08181e-09
-6.0534e-10
1.49865e-09
-7.4587e-10
1.98024e-09
-8.79718e-10
2.52215e-09
-1.00408e-09
3.11904e-09
-1.11704e-09
3.76495e-09
-1.21737e-09
4.45352e-09
-1.30434e-09
5.17815e-09
-1.37761e-09
5.93212e-09
-1.43711e-09
6.70872e-09
-1.48298e-09
7.50133e-09
-1.51551e-09
8.3035e-09
-1.53512e-09
9.10893e-09
-1.5423e-09
9.91162e-09
-1.53758e-09
1.07058e-08
-1.52157e-09
1.1486e-08
-1.49486e-09
1.2247e-08
-1.45808e-09
1.29839e-08
-1.41187e-09
1.36923e-08
-1.35686e-09
1.43678e-08
-1.29367e-09
1.50065e-08
-1.22294e-09
1.56048e-08
-1.14528e-09
1.61594e-08
-1.0613e-09
1.66673e-08
-9.71587e-10
1.71257e-08
-8.76738e-10
1.75323e-08
-7.7733e-10
1.7885e-08
-6.73932e-10
1.81819e-08
-5.67108e-10
1.84216e-08
-4.57413e-10
1.86028e-08
-3.45403e-10
1.87246e-08
-2.31625e-10
1.87863e-08
-1.1663e-10
1.87876e-08
-9.6584e-13
1.87283e-08
1.14815e-10
1.86088e-08
2.30157e-10
1.84296e-08
3.445e-10
1.81914e-08
4.57276e-10
1.78954e-08
5.6791e-10
1.7543e-08
6.75817e-10
1.7136e-08
7.80402e-10
1.66764e-08
8.81063e-10
1.61667e-08
9.77181e-10
1.56094e-08
1.06813e-09
1.50077e-08
1.15328e-09
1.4365e-08
1.23198e-09
1.36848e-08
1.30357e-09
1.29714e-08
1.3674e-09
1.2229e-08
1.4228e-09
1.14623e-08
1.46911e-09
1.06765e-08
1.50566e-09
9.8768e-09
1.53181e-09
9.06892e-09
1.54692e-09
8.25881e-09
1.55038e-09
7.45265e-09
1.54163e-09
6.65689e-09
1.52014e-09
5.87813e-09
1.48545e-09
5.12312e-09
1.43723e-09
4.39864e-09
1.37524e-09
3.71144e-09
1.29942e-09
3.06814e-09
1.20994e-09
2.47503e-09
1.10726e-09
1.93796e-09
9.92218e-10
1.46209e-09
8.66188e-10
1.05163e-09
7.31215e-10
7.09556e-10
5.90251e-10
4.37257e-10
4.47431e-10
2.34192e-10
3.08437e-10
9.75386e-11
1.80997e-10
2.21e-11
7.56839e-11
7.2339e-12
4.73829e-11
-5.74316e-11
1.8793e-10
-2.23652e-10
4.20773e-10
-4.24783e-10
7.44886e-10
-6.45897e-10
1.1584e-09
-8.75642e-10
1.65837e-09
-1.10531e-09
2.24074e-09
-1.32824e-09
2.90042e-09
-1.5394e-09
3.63143e-09
-1.73509e-09
4.42708e-09
-1.91269e-09
5.28012e-09
-2.07041e-09
6.18291e-09
-2.20713e-09
7.12756e-09
-2.32226e-09
8.10606e-09
-2.4156e-09
9.11036e-09
-2.48729e-09
1.01325e-08
-2.53768e-09
1.11648e-08
-2.56734e-09
1.21994e-08
-2.57697e-09
1.32292e-08
-2.56735e-09
1.4247e-08
-2.53938e-09
1.52461e-08
-2.49397e-09
1.62201e-08
-2.43209e-09
1.7163e-08
-2.35474e-09
1.8069e-08
-2.2629e-09
1.89329e-08
-2.15758e-09
1.97498e-08
-2.03979e-09
2.0515e-08
-1.91051e-09
2.12245e-08
-1.77073e-09
2.18743e-08
-1.62143e-09
2.24611e-08
-1.46356e-09
2.29819e-08
-1.29807e-09
2.34338e-08
-1.12592e-09
2.38148e-08
-9.4802e-10
2.41226e-08
-7.65306e-10
2.43559e-08
-5.78695e-10
2.45134e-08
-3.89104e-10
2.45942e-08
-1.97447e-10
2.45979e-08
-4.64365e-12
2.45243e-08
1.88385e-10
2.43738e-08
3.80709e-10
2.41469e-08
5.71392e-10
2.38447e-08
7.59484e-10
2.34686e-08
9.44025e-10
2.30204e-08
1.12404e-09
2.25022e-08
1.29854e-09
2.19168e-08
1.46651e-09
2.1267e-08
1.62694e-09
2.05564e-08
1.7788e-09
1.97886e-08
1.92103e-09
1.8968e-08
2.05257e-09
1.80992e-08
2.17235e-09
1.71873e-08
2.27931e-09
1.62378e-08
2.37236e-09
1.52564e-08
2.45045e-09
1.42496e-08
2.51252e-09
1.32238e-08
2.55754e-09
1.21862e-08
2.58455e-09
1.1144e-08
2.59259e-09
1.01048e-08
2.58081e-09
9.07649e-09
2.54846e-09
8.06705e-09
2.49489e-09
7.08465e-09
2.41964e-09
6.13745e-09
2.32244e-09
5.23358e-09
2.2033e-09
4.38097e-09
2.06255e-09
3.58725e-09
1.90098e-09
2.85958e-09
1.71988e-09
2.20451e-09
1.52126e-09
1.62776e-09
1.30797e-09
1.1341e-09
1.08391e-09
7.27176e-10
8.54351e-10
4.09445e-10
6.26168e-10
1.82175e-10
4.08267e-10
4.56916e-11
2.12168e-10
5.29255e-11
6.87445e-11
-1.26176e-10
2.66104e-10
-4.21011e-10
5.84734e-10
-7.43413e-10
1.01817e-09
-1.07934e-09
1.56014e-09
-1.41761e-09
2.20414e-09
-1.74931e-09
2.94328e-09
-2.06738e-09
3.77018e-09
-2.36629e-09
4.67698e-09
-2.64189e-09
5.65539e-09
-2.8911e-09
6.69678e-09
-3.1118e-09
7.79227e-09
-3.30261e-09
8.9328e-09
-3.46279e-09
1.01093e-08
-3.59208e-09
1.13126e-08
-3.69063e-09
1.25338e-08
-3.75891e-09
1.37642e-08
-3.79765e-09
1.4995e-08
-3.80778e-09
1.6218e-08
-3.79036e-09
1.74252e-08
-3.74659e-09
1.8609e-08
-3.67774e-09
1.9762e-08
-3.58515e-09
2.08775e-08
-3.47018e-09
2.19488e-08
-3.33425e-09
2.297e-08
-3.17876e-09
2.39353e-08
-3.00513e-09
2.48396e-08
-2.81477e-09
2.5678e-08
-2.6091e-09
2.6446e-08
-2.3895e-09
2.71398e-08
-2.15737e-09
2.77558e-08
-1.91408e-09
2.82909e-08
-1.66098e-09
2.87423e-08
-1.39945e-09
2.91078e-08
-1.13081e-09
2.93856e-08
-8.56409e-10
2.9574e-08
-5.77588e-10
2.96723e-08
-2.95684e-10
2.96797e-08
-1.20424e-11
2.95961e-08
2.71987e-10
2.94217e-08
5.55041e-10
2.91574e-08
8.35745e-10
2.88042e-08
1.11271e-09
2.83637e-08
1.38452e-09
2.7838e-08
1.64975e-09
2.72295e-08
1.90696e-09
2.65414e-08
2.15466e-09
2.5777e-08
2.39138e-09
2.49402e-08
2.6156e-09
2.40354e-08
2.8258e-09
2.30675e-08
3.02045e-09
2.20419e-08
3.19799e-09
2.09643e-08
3.35689e-09
1.9841e-08
3.49561e-09
1.86788e-08
3.61264e-09
1.74849e-08
3.70647e-09
1.62667e-08
3.77568e-09
1.50324e-08
3.81889e-09
1.37902e-08
3.83481e-09
1.25487e-08
3.82226e-09
1.1317e-08
3.78022e-09
1.0104e-08
3.70784e-09
8.91914e-09
3.60451e-09
7.77167e-09
3.46991e-09
6.67089e-09
3.30407e-09
5.62599e-09
3.10745e-09
4.64591e-09
2.88106e-09
3.73925e-09
2.62654e-09
2.9142e-09
2.34632e-09
2.1784e-09
2.04377e-09
1.53891e-09
1.7234e-09
1.00221e-09
1.39105e-09
5.74254e-10
1.05412e-09
2.60666e-10
7.21855e-10
6.71137e-11
4.0572e-10
1.20039e-10
8.72993e-11
-2.13475e-10
3.35156e-10
-6.68868e-10
7.31218e-10
-1.13947e-09
1.26443e-09
-1.61255e-09
1.92445e-09
-2.07763e-09
2.70131e-09
-2.52618e-09
3.58517e-09
-2.95123e-09
4.56616e-09
-3.34728e-09
5.63434e-09
-3.71006e-09
6.77965e-09
-4.03641e-09
7.99197e-09
-4.32411e-09
9.2611e-09
-4.57174e-09
1.05769e-08
-4.77855e-09
1.19291e-08
-4.94434e-09
1.33079e-08
-5.06939e-09
1.47033e-08
-5.15435e-09
1.61058e-08
-5.20016e-09
1.75061e-08
-5.20803e-09
1.88951e-08
-5.17935e-09
2.02641e-08
-5.11564e-09
2.1605e-08
-5.01857e-09
2.29097e-08
-4.88985e-09
2.41708e-08
-4.7313e-09
2.53812e-08
-4.54472e-09
2.65345e-08
-4.33197e-09
2.76243e-08
-4.09493e-09
2.86449e-08
-3.83543e-09
2.95912e-08
-3.55536e-09
3.04582e-08
-3.25656e-09
3.12417e-08
-2.94086e-09
3.19378e-08
-2.6101e-09
3.25429e-08
-2.26609e-09
3.30541e-08
-1.91064e-09
3.34688e-08
-1.54554e-09
3.3785e-08
-1.1726e-09
3.4001e-08
-7.93617e-10
3.41157e-08
-4.1038e-10
3.41284e-08
-2.47015e-11
3.40388e-08
3.61598e-10
3.38471e-08
7.46683e-10
3.35542e-08
1.1287e-09
3.31611e-08
1.50577e-09
3.26696e-08
1.87599e-09
3.20819e-08
2.23744e-09
3.14007e-08
2.58816e-09
3.06292e-08
2.92617e-09
2.97711e-08
3.24947e-09
2.88307e-08
3.55601e-09
2.78128e-08
3.84377e-09
2.67225e-08
4.11067e-09
2.55659e-08
4.35466e-09
2.43491e-08
4.57366e-09
2.30791e-08
4.76563e-09
2.17632e-08
4.92857e-09
2.04091e-08
5.06049e-09
1.90253e-08
5.15949e-09
1.76204e-08
5.22378e-09
1.62036e-08
5.25166e-09
1.47843e-08
5.24159e-09
1.33722e-08
5.19224e-09
1.19776e-08
5.1025e-09
1.06105e-08
4.97156e-09
9.28149e-09
4.79897e-09
8.00087e-09
4.58469e-09
6.77912e-09
4.3292e-09
5.6266e-09
4.03358e-09
4.55351e-09
3.69963e-09
3.56987e-09
3.32996e-09
2.68547e-09
2.92817e-09
1.9099e-09
2.49897e-09
1.25259e-09
2.04836e-09
7.22961e-10
1.58375e-09
3.30659e-10
1.11416e-09
8.58886e-11
6.5049e-10
2.05928e-10
1.03313e-10
-3.16788e-10
3.9542e-10
-9.60975e-10
8.60086e-10
-1.60414e-09
1.48247e-09
-2.23493e-09
2.24871e-09
-2.84387e-09
3.14565e-09
-3.42312e-09
4.16062e-09
-3.96621e-09
5.28131e-09
-4.46797e-09
6.49563e-09
-4.92439e-09
7.79172e-09
-5.3325e-09
9.15788e-09
-5.69027e-09
1.05826e-08
-5.99645e-09
1.20545e-08
-6.25048e-09
1.35625e-08
-6.45237e-09
1.50958e-08
-6.60267e-09
1.66437e-08
-6.70228e-09
1.81961e-08
-6.75249e-09
1.97429e-08
-6.75483e-09
2.12746e-08
-6.71106e-09
2.27821e-08
-6.62312e-09
2.42566e-08
-6.49308e-09
2.56898e-08
-6.3231e-09
2.70739e-08
-6.1154e-09
2.84015e-08
-5.87229e-09
2.96656e-08
-5.59606e-09
3.08597e-08
-5.28905e-09
3.19778e-08
-4.95358e-09
3.30145e-08
-4.59198e-09
3.39645e-08
-4.20658e-09
3.48233e-08
-3.79968e-09
3.55868e-08
-3.37358e-09
3.62512e-08
-2.93055e-09
3.68135e-08
-2.47289e-09
3.72708e-08
-2.00286e-09
3.76209e-08
-1.52273e-09
3.78621e-08
-1.03476e-09
3.79929e-08
-5.41245e-10
3.80127e-08
-4.4471e-11
3.7921e-08
4.53253e-10
3.77181e-08
9.49594e-10
3.74046e-08
1.44219e-09
3.69817e-08
1.92866e-09
3.64512e-08
2.40658e-09
3.58151e-08
2.87349e-09
3.50764e-08
3.32691e-09
3.42382e-08
3.7643e-09
3.33046e-08
4.18311e-09
3.22798e-08
4.58075e-09
3.1169e-08
4.95462e-09
2.99776e-08
5.30208e-09
2.87117e-08
5.62052e-09
2.73781e-08
5.9073e-09
2.59839e-08
6.15983e-09
2.45369e-08
6.37555e-09
2.30454e-08
6.55196e-09
2.15182e-08
6.68666e-09
1.99647e-08
6.77734e-09
1.83945e-08
6.82186e-09
1.68178e-08
6.81827e-09
1.52452e-08
6.76484e-09
1.36876e-08
6.66014e-09
1.21561e-08
6.50306e-09
1.06621e-08
6.2929e-09
9.21735e-09
6.02946e-09
7.8335e-09
5.71305e-09
6.5224e-09
5.34468e-09
5.29597e-09
4.92606e-09
4.16616e-09
4.45977e-09
3.14497e-09
3.94935e-09
2.24453e-09
3.39941e-09
1.47713e-09
2.81576e-09
8.55388e-10
2.20549e-09
3.92449e-10
1.5771e-09
1.02264e-10
9.40675e-10
3.08192e-10
1.17194e-10
-4.33981e-10
4.4798e-10
-1.29176e-09
9.72999e-10
-2.12916e-09
1.67425e-09
-2.93618e-09
2.53485e-09
-3.70447e-09
3.53879e-09
-4.42706e-09
4.6708e-09
-5.09822e-09
5.91625e-09
-5.71341e-09
7.26101e-09
-6.26915e-09
8.69142e-09
-6.76292e-09
1.01942e-08
-7.1931e-09
1.17566e-08
-7.55884e-09
1.33661e-08
-7.85999e-09
1.50107e-08
-8.09694e-09
1.66787e-08
-8.27062e-09
1.83588e-08
-8.38238e-09
2.00402e-08
-8.43389e-09
2.17125e-08
-8.42714e-09
2.33658e-08
-8.36434e-09
2.49905e-08
-8.24787e-09
2.65777e-08
-8.08028e-09
2.81188e-08
-7.86419e-09
2.96057e-08
-7.60232e-09
3.10309e-08
-7.29743e-09
3.23871e-08
-6.95231e-09
3.36678e-08
-6.56977e-09
3.48669e-08
-6.15262e-09
3.59786e-08
-5.70366e-09
3.69977e-08
-5.22568e-09
3.79194e-08
-4.72146e-09
3.87396e-08
-4.19378e-09
3.94544e-08
-3.64537e-09
4.00606e-08
-3.079e-09
4.05551e-08
-2.49739e-09
4.09356e-08
-1.90329e-09
4.12003e-08
-1.29946e-09
4.13477e-08
-6.88636e-10
4.13769e-08
-7.36134e-11
4.12873e-08
5.42808e-10
4.10791e-08
1.15779e-09
4.07528e-08
1.76847e-09
4.03096e-08
2.37193e-09
3.97509e-08
2.96521e-09
3.90791e-08
3.54532e-09
3.82968e-08
4.10921e-09
3.74073e-08
4.65378e-09
3.64145e-08
5.17591e-09
3.53229e-08
5.67242e-09
3.41374e-08
6.1401e-09
3.28637e-08
6.57575e-09
3.15081e-08
6.97611e-09
3.00774e-08
7.33799e-09
2.85791e-08
7.65816e-09
2.70212e-08
7.93349e-09
2.54122e-08
8.16089e-09
2.37615e-08
8.33739e-09
2.20787e-08
8.46013e-09
2.03741e-08
8.52645e-09
1.86585e-08
8.53389e-09
1.69431e-08
8.48025e-09
1.52396e-08
8.36366e-09
1.356e-08
8.1826e-09
1.19169e-08
7.93602e-09
1.0323e-08
7.62337e-09
8.79139e-09
7.24467e-09
7.33544e-09
6.80063e-09
5.96879e-09
6.29271e-09
4.70535e-09
5.72321e-09
3.55933e-09
5.09538e-09
2.54525e-09
4.41349e-09
1.67809e-09
3.68292e-09
9.73339e-10
2.91024e-09
4.47174e-10
2.10326e-09
1.16658e-10
1.27119e-09
4.24849e-10
1.29321e-10
-5.63302e-10
4.93973e-10
-1.65641e-09
1.07193e-09
-2.70712e-09
1.84248e-09
-3.70673e-09
2.78607e-09
-4.64806e-09
3.88416e-09
-5.52514e-09
5.11913e-09
-6.3332e-09
6.4742e-09
-7.06849e-09
7.93334e-09
-7.72828e-09
9.48119e-09
-8.31077e-09
1.11031e-08
-8.81497e-09
1.27848e-08
-9.24064e-09
1.45131e-08
-9.5882e-09
1.62748e-08
-9.85863e-09
1.80575e-08
-1.00534e-08
1.98496e-08
-1.01744e-08
2.16396e-08
-1.02239e-08
2.34169e-08
-1.02044e-08
2.51712e-08
-1.01186e-08
2.68927e-08
-9.96945e-09
2.85725e-08
-9.76e-09
3.02017e-08
-9.4934e-09
3.17722e-08
-9.17289e-09
3.32765e-08
-8.80172e-09
3.47074e-08
-8.38319e-09
3.60582e-08
-7.92058e-09
3.73228e-08
-7.41719e-09
3.84954e-08
-6.8763e-09
3.95709e-08
-6.30116e-09
4.05445e-08
-5.69501e-09
4.14118e-08
-5.06109e-09
4.2169e-08
-4.4026e-09
4.28127e-08
-3.72274e-09
4.334e-08
-3.0247e-09
4.37484e-08
-2.31168e-09
4.40359e-08
-1.58689e-09
4.42008e-08
-8.53552e-10
4.42421e-08
-1.14926e-10
4.41592e-08
6.25703e-10
4.3952e-08
1.36501e-09
4.36208e-08
2.0996e-09
4.31667e-08
2.82606e-09
4.2591e-08
3.5409e-09
4.18958e-08
4.24055e-09
4.10836e-08
4.92142e-09
4.01575e-08
5.57984e-09
3.91214e-08
6.21206e-09
3.79795e-08
6.81432e-09
3.67368e-08
7.38279e-09
3.53989e-08
7.91363e-09
3.3972e-08
8.40296e-09
3.24631e-08
8.84691e-09
3.08796e-08
9.24165e-09
2.92298e-08
9.58336e-09
2.75223e-08
9.86833e-09
2.57668e-08
1.00929e-08
2.39732e-08
1.02537e-08
2.21523e-08
1.03474e-08
2.03153e-08
1.03709e-08
1.84741e-08
1.03214e-08
1.66413e-08
1.01965e-08
1.48296e-08
9.99428e-09
1.30526e-08
9.71302e-09
1.13242e-08
9.35173e-09
9.65892e-09
8.90995e-09
8.0716e-09
8.38795e-09
6.5776e-09
7.78671e-09
5.19274e-09
7.10807e-09
3.93332e-09
6.3548e-09
2.81618e-09
5.53063e-09
1.85875e-09
4.64035e-09
1.07911e-09
3.68988e-09
4.96109e-10
2.68626e-09
1.29482e-10
1.63782e-09
5.54331e-10
1.39988e-10
-7.0329e-10
5.34312e-10
-2.05074e-09
1.15852e-09
-3.33133e-09
1.98946e-09
-4.53767e-09
3.00516e-09
-5.66376e-09
4.18481e-09
-6.70479e-09
5.50864e-09
-7.65703e-09
6.95793e-09
-8.51777e-09
8.51488e-09
-9.28523e-09
1.01626e-08
-9.95849e-09
1.18851e-08
-1.05374e-08
1.36671e-08
-1.10226e-08
1.54941e-08
-1.14153e-08
1.73525e-08
-1.17171e-08
1.92294e-08
-1.19302e-08
2.11123e-08
-1.20574e-08
2.29897e-08
-1.21013e-08
2.48506e-08
-1.20653e-08
2.66846e-08
-1.19526e-08
2.84821e-08
-1.17669e-08
3.02337e-08
-1.15117e-08
3.19311e-08
-1.11907e-08
3.3566e-08
-1.08078e-08
3.51309e-08
-1.03667e-08
3.66189e-08
-9.87118e-09
3.80234e-08
-9.32508e-09
3.93384e-08
-8.73215e-09
4.05582e-08
-8.09612e-09
4.16777e-08
-7.42071e-09
4.26923e-08
-6.7096e-09
4.35977e-08
-5.96644e-09
4.439e-08
-5.19487e-09
4.50657e-08
-4.39852e-09
4.5622e-08
-3.58098e-09
4.60562e-08
-2.7459e-09
4.63663e-08
-1.89691e-09
4.65504e-08
-1.03767e-09
4.66074e-08
-1.71881e-10
4.65363e-08
6.96714e-10
4.6337e-08
1.56431e-09
4.60096e-08
2.42704e-09
4.55547e-08
3.28098e-09
4.49735e-08
4.1221e-09
4.42677e-08
4.94631e-09
4.34397e-08
5.74944e-09
4.24923e-08
6.52724e-09
4.1429e-08
7.27537e-09
4.02539e-08
7.98943e-09
3.89717e-08
8.66496e-09
3.75879e-08
9.29744e-09
3.61085e-08
9.88233e-09
3.45404e-08
1.04151e-08
3.28909e-08
1.08911e-08
3.11683e-08
1.1306e-08
2.93814e-08
1.16552e-08
2.75399e-08
1.19344e-08
2.56541e-08
1.21395e-08
2.3735e-08
1.22664e-08
2.17944e-08
1.23115e-08
1.98447e-08
1.22711e-08
1.78991e-08
1.21422e-08
1.59713e-08
1.19221e-08
1.40758e-08
1.16085e-08
1.22277e-08
1.11998e-08
1.04428e-08
1.06949e-08
8.73743e-09
1.00933e-08
7.12862e-09
9.39552e-09
5.63403e-09
8.60265e-09
4.272e-09
7.71683e-09
3.06153e-09
6.7411e-09
2.02232e-09
5.67956e-09
1.17485e-09
4.53735e-09
5.40392e-10
3.32072e-09
1.41086e-10
2.03712e-09
6.95417e-10
1.49386e-10
-8.52676e-10
5.69587e-10
-2.47094e-09
1.23382e-09
-3.99556e-09
2.11659e-09
-5.42044e-09
3.19372e-09
-6.74089e-09
4.44228e-09
-7.95334e-09
5.84055e-09
-9.05531e-09
7.36803e-09
-1.00452e-08
9.00534e-09
-1.09225e-08
1.07342e-08
-1.16874e-08
1.25375e-08
-1.23407e-08
1.43989e-08
-1.28841e-08
1.63033e-08
-1.33196e-08
1.82363e-08
-1.36501e-08
2.01845e-08
-1.38785e-08
2.21354e-08
-1.40082e-08
2.4077e-08
-1.4043e-08
2.59985e-08
-1.39867e-08
2.78894e-08
-1.38436e-08
2.97402e-08
-1.36176e-08
3.15418e-08
-1.33133e-08
3.32858e-08
-1.29348e-08
3.49645e-08
-1.24865e-08
3.65706e-08
-1.19727e-08
3.80973e-08
-1.13979e-08
3.95383e-08
-1.07661e-08
4.08879e-08
-1.00818e-08
4.21407e-08
-9.34892e-09
4.32917e-08
-8.57176e-09
4.43365e-08
-7.75435e-09
4.52708e-08
-6.90075e-09
4.60909e-08
-6.01497e-09
4.67934e-08
-5.10101e-09
4.73753e-08
-4.16287e-09
4.78339e-08
-3.20454e-09
4.8167e-08
-2.23004e-09
4.83728e-08
-1.24342e-09
4.84497e-08
-2.48796e-10
4.83967e-08
7.49685e-10
4.82133e-08
1.74778e-09
4.78991e-08
2.74117e-09
4.74546e-08
3.72545e-09
4.68806e-08
4.6961e-09
4.61785e-08
5.64849e-09
4.535e-08
6.57791e-09
4.43977e-08
7.47952e-09
4.33247e-08
8.34837e-09
4.21347e-08
9.17943e-09
4.08321e-08
9.96757e-09
3.9422e-08
1.07076e-08
3.791e-08
1.13942e-08
3.63029e-08
1.20222e-08
3.46078e-08
1.25862e-08
3.28328e-08
1.3081e-08
3.09868e-08
1.35012e-08
2.90794e-08
1.38418e-08
2.71211e-08
1.40979e-08
2.51231e-08
1.42644e-08
2.30976e-08
1.4337e-08
2.10575e-08
1.43112e-08
1.90166e-08
1.41831e-08
1.69894e-08
1.39493e-08
1.49914e-08
1.36066e-08
1.30387e-08
1.31525e-08
1.11484e-08
1.25852e-08
9.3383e-09
1.19034e-08
7.62705e-09
1.11068e-08
6.03408e-09
1.01956e-08
4.57965e-09
9.17126e-09
3.28481e-09
8.03594e-09
2.17145e-09
6.79292e-09
1.26231e-09
5.44649e-09
5.8093e-10
4.00209e-09
1.51739e-10
2.46631e-09
8.47156e-10
1.57601e-10
-1.01028e-09
6.00025e-10
-2.91336e-09
1.29812e-09
-4.69365e-09
2.22412e-09
-6.34645e-09
3.35171e-09
-7.86848e-09
4.65597e-09
-9.2576e-09
6.11339e-09
-1.05127e-08
7.70184e-09
-1.16337e-08
9.40057e-09
-1.26213e-08
1.11901e-08
-1.34769e-08
1.30523e-08
-1.42029e-08
1.49702e-08
-1.48019e-08
1.69279e-08
-1.52773e-08
1.89107e-08
-1.56329e-08
2.0905e-08
-1.58728e-08
2.28981e-08
-1.60013e-08
2.48782e-08
-1.60231e-08
2.68344e-08
-1.59429e-08
2.87566e-08
-1.57658e-08
3.06355e-08
-1.54966e-08
3.24625e-08
-1.51403e-08
3.42296e-08
-1.47018e-08
3.59294e-08
-1.41863e-08
3.7555e-08
-1.35984e-08
3.91002e-08
-1.29431e-08
4.05591e-08
-1.2225e-08
4.19262e-08
-1.14489e-08
4.31966e-08
-1.06193e-08
4.43657e-08
-9.74079e-09
4.5429e-08
-8.81771e-09
4.63828e-08
-7.85448e-09
4.72233e-08
-6.85545e-09
4.79472e-08
-5.82492e-09
4.85515e-08
-4.76719e-09
4.90335e-08
-3.68658e-09
4.93909e-08
-2.58742e-09
4.96216e-08
-1.47408e-09
4.97238e-08
-3.51019e-10
4.96962e-08
7.77255e-10
4.95379e-08
1.90612e-09
4.92482e-08
3.03086e-09
4.88271e-08
4.14661e-09
4.82748e-08
5.2484e-09
4.75921e-08
6.33111e-09
4.67806e-08
7.38949e-09
4.5842e-08
8.41811e-09
4.47789e-08
9.41145e-09
4.35945e-08
1.03638e-08
4.22927e-08
1.12694e-08
4.0878e-08
1.21223e-08
3.93558e-08
1.29164e-08
3.77322e-08
1.36458e-08
3.60141e-08
1.43043e-08
3.42094e-08
1.48857e-08
3.23266e-08
1.5384e-08
3.03754e-08
1.57931e-08
2.83663e-08
1.6107e-08
2.63105e-08
1.63202e-08
2.42206e-08
1.64269e-08
2.21098e-08
1.64219e-08
1.99925e-08
1.63004e-08
1.7884e-08
1.60578e-08
1.58004e-08
1.56901e-08
1.37592e-08
1.51938e-08
1.17784e-08
1.45659e-08
9.87737e-09
1.38045e-08
8.07622e-09
1.29079e-08
6.39613e-09
1.18757e-08
4.8592e-09
1.07082e-08
3.48851e-09
9.40663e-09
2.30805e-09
7.97337e-09
1.34274e-09
6.41181e-09
6.18377e-10
4.72645e-09
1.61637e-10
2.92305e-09
1.00879e-09
1.64615e-10
-1.17489e-09
6.25474e-10
-3.37422e-09
1.35096e-09
-5.41913e-09
2.31101e-09
-7.30651e-09
3.47722e-09
-9.03468e-09
4.82276e-09
-1.06031e-08
6.32247e-09
-1.20124e-08
7.95277e-09
-1.3264e-08
9.69171e-09
-1.43602e-08
1.15188e-08
-1.53041e-08
1.34152e-08
-1.60993e-08
1.53633e-08
-1.675e-08
1.7347e-08
-1.7261e-08
1.93514e-08
-1.76373e-08
2.13628e-08
-1.78842e-08
2.33687e-08
-1.80072e-08
2.53576e-08
-1.8012e-08
2.7319e-08
-1.79043e-08
2.92433e-08
-1.76901e-08
3.11216e-08
-1.7375e-08
3.29461e-08
-1.69647e-08
3.47092e-08
-1.6465e-08
3.64043e-08
-1.58814e-08
3.80252e-08
-1.52192e-08
3.95661e-08
-1.4484e-08
4.10218e-08
-1.36807e-08
4.23873e-08
-1.28145e-08
4.36583e-08
-1.18903e-08
4.48303e-08
-1.09129e-08
4.58996e-08
-9.887e-09
4.68625e-08
-8.81731e-09
4.77154e-08
-7.70837e-09
4.84552e-08
-6.56473e-09
4.90789e-08
-5.39091e-09
4.95838e-08
-4.19145e-09
4.99673e-08
-2.97091e-09
5.02271e-08
-1.73391e-09
5.03612e-08
-4.85152e-10
5.03679e-08
7.70552e-10
5.02458e-08
2.02828e-09
4.99937e-08
3.28297e-09
4.96109e-08
4.52938e-09
4.90972e-08
5.76212e-09
4.84527e-08
6.97562e-09
4.7678e-08
8.16411e-09
4.67745e-08
9.32163e-09
4.57439e-08
1.0442e-08
4.45887e-08
1.1519e-08
4.33121e-08
1.2546e-08
4.19179e-08
1.35165e-08
4.04108e-08
1.44235e-08
3.87965e-08
1.52602e-08
3.70813e-08
1.60195e-08
3.52725e-08
1.66945e-08
3.33785e-08
1.7278e-08
3.14086e-08
1.7763e-08
2.93731e-08
1.81425e-08
2.72835e-08
1.84098e-08
2.51522e-08
1.85582e-08
2.29928e-08
1.85812e-08
2.08203e-08
1.8473e-08
1.86503e-08
1.82278e-08
1.65e-08
1.78404e-08
1.43875e-08
1.73062e-08
1.23324e-08
1.66211e-08
1.0355e-08
1.57818e-08
8.47708e-09
1.47858e-08
6.72146e-09
1.36313e-08
5.11208e-09
1.23176e-08
3.67395e-09
1.08448e-08
2.43319e-09
9.21414e-09
1.41689e-09
7.42811e-09
6.53133e-10
5.49021e-09
1.70902e-10
3.40528e-09
1.17969e-09
1.70306e-10
-1.3452e-09
6.45395e-10
-3.84931e-09
1.39104e-09
-6.16477e-09
2.37483e-09
-8.29031e-09
3.56627e-09
-1.02261e-08
4.93673e-09
-1.19736e-08
6.4595e-09
-1.35352e-08
8.10975e-09
-1.49143e-08
9.86451e-09
-1.6115e-08
1.17026e-08
-1.71422e-08
1.36046e-08
-1.80012e-08
1.55526e-08
-1.86981e-08
1.75306e-08
-1.9239e-08
1.95236e-08
-1.96304e-08
2.15185e-08
-1.9879e-08
2.3503e-08
-1.99917e-08
2.54663e-08
-1.99753e-08
2.73986e-08
-1.98366e-08
2.9291e-08
-1.95825e-08
3.11356e-08
-1.92195e-08
3.29251e-08
-1.87543e-08
3.46532e-08
-1.81931e-08
3.63139e-08
-1.75421e-08
3.79019e-08
-1.68073e-08
3.94123e-08
-1.59944e-08
4.08407e-08
-1.51091e-08
4.21828e-08
-1.41566e-08
4.34348e-08
-1.31423e-08
4.45931e-08
-1.20711e-08
4.5654e-08
-1.0948e-08
4.66144e-08
-9.7777e-09
4.74711e-08
-8.56501e-09
4.82209e-08
-7.31456e-09
4.8861e-08
-6.03099e-09
4.93885e-08
-4.71895e-09
4.98007e-08
-3.38313e-09
5.00951e-08
-2.02829e-09
5.02692e-08
-6.59289e-10
5.03209e-08
7.18876e-10
5.02481e-08
2.10106e-09
5.00492e-08
3.48192e-09
4.97226e-08
4.85595e-09
4.92673e-08
6.21738e-09
4.86827e-08
7.56023e-09
4.79686e-08
8.87828e-09
4.71252e-08
1.0165e-08
4.61534e-08
1.14138e-08
4.50549e-08
1.26176e-08
4.38318e-08
1.37691e-08
4.24872e-08
1.48611e-08
4.10249e-08
1.58858e-08
3.94497e-08
1.68354e-08
3.77673e-08
1.7702e-08
3.59843e-08
1.84774e-08
3.41085e-08
1.91537e-08
3.21489e-08
1.97226e-08
3.01154e-08
2.0176e-08
2.80193e-08
2.05059e-08
2.58731e-08
2.07044e-08
2.36905e-08
2.07638e-08
2.14866e-08
2.06769e-08
1.92778e-08
2.04366e-08
1.70818e-08
2.00364e-08
1.49177e-08
1.94703e-08
1.2806e-08
1.87329e-08
1.07683e-08
1.78195e-08
8.82795e-09
1.67262e-08
7.00926e-09
1.545e-08
5.33802e-09
1.39888e-08
3.84123e-09
1.23415e-08
2.5471e-09
1.05083e-08
1.485e-09
8.49021e-09
6.85357e-10
6.28985e-09
1.79589e-10
3.91105e-09
1.35928e-09
1.74443e-10
-1.51964e-09
6.58842e-10
-4.33371e-09
1.41619e-09
-6.92212e-09
2.41167e-09
-9.28579e-09
3.6127e-09
-1.14271e-08
4.98893e-09
-1.33498e-08
6.51225e-09
-1.50585e-08
8.15678e-09
-1.65588e-08
9.89877e-09
-1.7857e-08
1.17166e-08
-1.896e-08
1.35906e-08
-1.98752e-08
1.5503e-08
-2.06105e-08
1.74379e-08
-2.11739e-08
1.93811e-08
-2.15736e-08
2.13199e-08
-2.18178e-08
2.3243e-08
-2.19147e-08
2.51404e-08
-2.18727e-08
2.70033e-08
-2.16996e-08
2.88241e-08
-2.14033e-08
3.0596e-08
-2.09914e-08
3.23129e-08
-2.04711e-08
3.39695e-08
-1.98497e-08
3.55612e-08
-1.91338e-08
3.70838e-08
-1.83298e-08
3.85334e-08
-1.7444e-08
3.99066e-08
-1.64822e-08
4.12001e-08
-1.54501e-08
4.24108e-08
-1.4353e-08
4.35358e-08
-1.31961e-08
4.45722e-08
-1.19843e-08
4.55171e-08
-1.07226e-08
4.63677e-08
-9.41559e-09
4.71211e-08
-8.06796e-09
4.77744e-08
-6.68432e-09
4.83248e-08
-5.2693e-09
4.87693e-08
-3.8276e-09
4.91049e-08
-2.36397e-09
4.9329e-08
-8.83313e-10
4.94385e-08
6.09307e-10
4.9431e-08
2.10863e-09
4.93037e-08
3.60917e-09
4.90545e-08
5.10518e-09
4.86812e-08
6.59063e-09
4.81823e-08
8.0592e-09
4.75563e-08
9.50425e-09
4.68025e-08
1.09188e-08
4.59206e-08
1.22956e-08
4.49111e-08
1.36271e-08
4.3775e-08
1.49053e-08
4.25141e-08
1.61219e-08
4.11313e-08
1.72685e-08
3.96303e-08
1.83364e-08
3.80157e-08
1.93165e-08
3.62934e-08
2.01997e-08
3.44705e-08
2.09767e-08
3.2555e-08
2.16381e-08
3.05565e-08
2.21745e-08
2.84859e-08
2.25765e-08
2.63555e-08
2.28348e-08
2.4179e-08
2.29404e-08
2.19716e-08
2.28843e-08
1.975e-08
2.26582e-08
1.75326e-08
2.22538e-08
1.53391e-08
2.16638e-08
1.3191e-08
2.0881e-08
1.11112e-08
1.98992e-08
9.12438e-09
1.87131e-08
7.25648e-09
1.73179e-08
5.53508e-09
1.57102e-08
3.98919e-09
1.38874e-08
2.6492e-09
1.18482e-08
1.54683e-09
9.59258e-09
7.14978e-10
7.1217e-09
1.87694e-10
4.43833e-09
1.54698e-09
1.76686e-10
-1.69633e-09
6.64444e-10
-4.82146e-09
1.42332e-09
-7.681e-09
2.41603e-09
-1.02785e-08
3.60795e-09
-1.26191e-08
4.9671e-09
-1.4709e-08
6.46418e-09
-1.65556e-08
8.07245e-09
-1.81671e-08
9.76772e-09
-1.95522e-08
1.15282e-08
-2.07204e-08
1.33344e-08
-2.16814e-08
1.51691e-08
-2.24452e-08
1.7017e-08
-2.30218e-08
1.88648e-08
-2.34213e-08
2.07008e-08
-2.36538e-08
2.25151e-08
-2.37291e-08
2.42991e-08
-2.36567e-08
2.60455e-08
-2.34459e-08
2.7748e-08
-2.31058e-08
2.94015e-08
-2.26448e-08
3.10014e-08
-2.20711e-08
3.25441e-08
-2.13924e-08
3.40264e-08
-2.06161e-08
3.54455e-08
-1.97489e-08
3.6799e-08
-1.87975e-08
3.80846e-08
-1.77678e-08
3.93002e-08
-1.66657e-08
4.04438e-08
-1.54966e-08
4.15132e-08
-1.42655e-08
4.25064e-08
-1.29775e-08
4.34209e-08
-1.16371e-08
4.42544e-08
-1.02491e-08
4.50042e-08
-8.81777e-09
4.56675e-08
-7.34765e-09
4.62414e-08
-5.84316e-09
4.67226e-08
-4.30881e-09
4.71078e-08
-2.74921e-09
4.73937e-08
-1.16916e-09
4.75766e-08
4.26375e-10
4.76531e-08
2.03214e-09
4.76196e-08
3.64262e-09
4.74729e-08
5.25196e-09
4.72095e-08
6.85397e-09
4.68267e-08
8.44205e-09
4.63217e-08
1.00092e-08
4.56923e-08
1.15482e-08
4.4937e-08
1.3051e-08
4.40546e-08
1.45095e-08
4.30448e-08
1.59151e-08
4.1908e-08
1.72587e-08
4.06456e-08
1.85309e-08
3.92599e-08
1.9722e-08
3.77545e-08
2.08219e-08
3.6134e-08
2.18202e-08
3.44044e-08
2.27064e-08
3.25728e-08
2.34696e-08
3.06481e-08
2.40992e-08
2.86406e-08
2.4584e-08
2.6562e-08
2.49134e-08
2.44259e-08
2.50765e-08
2.22474e-08
2.50628e-08
2.00434e-08
2.48621e-08
1.78327e-08
2.44645e-08
1.56358e-08
2.38607e-08
1.34748e-08
2.30419e-08
1.13739e-08
2.20001e-08
9.35901e-09
2.0728e-08
7.45777e-09
1.92192e-08
5.69956e-09
1.74684e-08
4.11545e-09
1.54715e-08
2.73808e-09
1.32256e-08
1.60164e-09
1.0729e-08
7.41707e-10
7.98163e-09
1.95156e-10
4.98488e-09
1.74213e-09
1.76573e-10
-1.8729e-09
6.60369e-10
-5.30526e-09
1.40835e-09
-8.42898e-09
2.38073e-09
-1.12509e-08
3.54089e-09
-1.37792e-08
4.85543e-09
-1.60235e-08
6.29405e-09
-1.79942e-08
7.82949e-09
-1.97025e-08
9.43744e-09
-2.11602e-08
1.10964e-08
-2.23794e-08
1.27875e-08
-2.33725e-08
1.44943e-08
-2.41521e-08
1.62029e-08
-2.47304e-08
1.79013e-08
-2.51197e-08
1.95795e-08
-2.5332e-08
2.12292e-08