/*--------------------------------*- C++ -*----------------------------------*\
  =========                 |
  \\      /  F ield         | OpenFOAM: The Open Source CFD Toolbox
   \\    /   O peration     | Website:  https://openfoam.org
    \\  /    A nd           | Version:  12
     \\/     M anipulation  |
\*---------------------------------------------------------------------------*/
FoamFile
{
    format      ascii;
    class       volScalarField;
    location    "0.3";
    object      epsilon;
}
// * * * * * * * * * * * * * * * * * * * * * * * * * * * * * * * * * * * * * //

dimensions      [0 2 -3 0 0 0 0];

internalField   nonuniform List<scalar> 
900
(
5.24363e-12
9.87537e-12
2.07318e-11
3.33432e-11
4.70251e-11
6.11925e-11
7.53504e-11
8.90655e-11
1.01952e-10
1.13666e-10
1.23906e-10
1.32413e-10
1.38976e-10
1.43435e-10
1.45681e-10
1.45659e-10
1.43372e-10
1.38875e-10
1.32279e-10
1.23747e-10
1.13491e-10
1.01771e-10
8.88871e-11
7.51841e-11
6.10463e-11
4.69051e-11
3.32536e-11
2.06736e-11
9.84669e-12
5.2279e-12
3.53234e-11
1.89438e-11
1.8397e-11
2.18524e-11
2.69839e-11
3.2892e-11
3.90872e-11
4.52427e-11
5.11117e-11
5.64949e-11
6.12277e-11
6.51746e-11
6.82274e-11
7.03045e-11
7.13514e-11
7.13413e-11
7.02746e-11
6.81793e-11
6.51109e-11
6.11515e-11
5.64101e-11
5.10225e-11
4.51534e-11
3.90016e-11
3.28135e-11
2.69147e-11
2.1793e-11
1.83447e-11
1.88888e-11
3.52199e-11
7.73855e-11
3.75683e-11
2.91979e-11
2.78334e-11
2.92595e-11
3.2051e-11
3.55215e-11
3.92628e-11
4.29973e-11
4.65204e-11
4.96745e-11
5.23362e-11
5.4411e-11
5.58292e-11
5.65452e-11
5.65365e-11
5.58035e-11
5.43693e-11
5.22804e-11
4.96066e-11
4.64432e-11
4.29136e-11
3.91755e-11
3.54335e-11
3.19643e-11
2.91751e-11
2.77499e-11
2.91095e-11
3.74556e-11
7.71549e-11
1.25658e-10
5.98191e-11
4.39574e-11
3.8691e-11
3.74846e-11
3.82659e-11
4.01061e-11
4.24875e-11
4.50773e-11
4.76412e-11
5.00059e-11
5.20399e-11
5.36448e-11
5.47496e-11
5.5308e-11
5.52977e-11
5.4719e-11
5.3595e-11
5.19724e-11
4.99226e-11
4.75448e-11
4.49705e-11
4.23732e-11
3.99869e-11
3.81437e-11
3.73599e-11
3.85612e-11
4.38124e-11
5.96272e-11
1.25261e-10
1.7704e-10
8.37488e-11
6.03842e-11
5.15518e-11
4.81646e-11
4.74173e-11
4.81007e-11
4.95691e-11
5.1424e-11
5.33944e-11
5.52847e-11
5.695e-11
5.82832e-11
5.9208e-11
5.96754e-11
5.96615e-11
5.91667e-11
5.82155e-11
5.68578e-11
5.51705e-11
5.3261e-11
5.12748e-11
4.94075e-11
4.79299e-11
4.72395e-11
4.79798e-11
5.13555e-11
6.0161e-11
8.34498e-11
1.76419e-10
2.29331e-10
1.08199e-10
7.73927e-11
6.5191e-11
5.98778e-11
5.78767e-11
5.7676e-11
5.84896e-11
5.98454e-11
6.14305e-11
6.3024e-11
6.4465e-11
6.56359e-11
6.6454e-11
6.68662e-11
6.68469e-11
6.63965e-11
6.55418e-11
6.43365e-11
6.28643e-11
6.12433e-11
5.96351e-11
5.82606e-11
5.74322e-11
5.76206e-11
5.9609e-11
6.49024e-11
7.70613e-11
1.07752e-10
2.284e-10
2.80795e-10
1.32311e-10
9.42735e-11
7.88861e-11
7.18308e-11
6.87599e-11
6.7854e-11
6.81809e-11
6.91908e-11
7.05257e-11
7.19374e-11
7.32471e-11
7.43258e-11
7.50835e-11
7.54628e-11
7.54359e-11
7.50037e-11
7.4195e-11
7.30684e-11
7.1715e-11
7.02648e-11
6.88968e-11
6.78596e-11
6.75103e-11
6.83967e-11
7.14466e-11
7.84696e-11
9.37909e-11
1.31656e-10
2.79428e-10
3.3e-10
1.5539e-10
1.1049e-10
9.21278e-11
8.34925e-11
7.94926e-11
7.8009e-11
7.79651e-11
7.87327e-11
7.99081e-11
8.12142e-11
8.24541e-11
8.34865e-11
8.42137e-11
8.45736e-11
8.45366e-11
8.41037e-11
8.33062e-11
8.22077e-11
8.09075e-11
7.95477e-11
7.83259e-11
7.75192e-11
7.75301e-11
7.89835e-11
8.29497e-11
9.15341e-11
1.09796e-10
1.54442e-10
3.28018e-10
3.75752e-10
1.76865e-10
1.25613e-10
1.04525e-10
9.44696e-11
8.96608e-11
8.76974e-11
8.73654e-11
8.79615e-11
8.90373e-11
9.02873e-11
9.14962e-11
9.25108e-11
9.32252e-11
9.35729e-11
9.35225e-11
9.30749e-11
9.22644e-11
9.11595e-11
8.98679e-11
8.8544e-11
8.74038e-11
8.67524e-11
8.70361e-11
8.89538e-11
9.37102e-11
1.03687e-10
1.24625e-10
1.75507e-10
3.72907e-10
4.17055e-10
1.96261e-10
1.3929e-10
1.15765e-10
1.04456e-10
9.89491e-11
9.65859e-11
9.6027e-11
9.64999e-11
9.7514e-11
9.87375e-11
9.99374e-11
1.00949e-10
1.01659e-10
1.01996e-10
1.01928e-10
1.01455e-10
1.00615e-10
9.94811e-11
9.81687e-11
9.68444e-11
9.57416e-11
9.51914e-11
9.56809e-11
9.79764e-11
1.03404e-10
1.14595e-10
1.37899e-10
1.94336e-10
4.13014e-10
4.53087e-10
2.13187e-10
1.51237e-10
1.25598e-10
1.13212e-10
1.07112e-10
1.04418e-10
1.03679e-10
1.04061e-10
1.05035e-10
1.06247e-10
1.07447e-10
1.0846e-10
1.09167e-10
1.09491e-10
1.09399e-10
1.08893e-10
1.08012e-10
1.06834e-10
1.05482e-10
1.04134e-10
1.03039e-10
1.02551e-10
1.03192e-10
1.05787e-10
1.11769e-10
1.23982e-10
1.49302e-10
2.10494e-10
4.47419e-10
4.8319e-10
2.27331e-10
1.61226e-10
1.33827e-10
1.20546e-10
1.1396e-10
1.10997e-10
1.10115e-10
1.10426e-10
1.11372e-10
1.12575e-10
1.13775e-10
1.14786e-10
1.15483e-10
1.15789e-10
1.15666e-10
1.15119e-10
1.14189e-10
1.12958e-10
1.11557e-10
1.10171e-10
1.09063e-10
1.08606e-10
1.09352e-10
1.12176e-10
1.18593e-10
1.31624e-10
1.5857e-10
2.23617e-10
4.75355e-10
5.06856e-10
2.38451e-10
1.6908e-10
1.40298e-10
1.26317e-10
1.19348e-10
1.16175e-10
1.15179e-10
1.15432e-10
1.16351e-10
1.17543e-10
1.18734e-10
1.19733e-10
1.20411e-10
1.20687e-10
1.20526e-10
1.1993e-10
1.18945e-10
1.17657e-10
1.162e-10
1.14768e-10
1.13634e-10
1.13185e-10
1.13996e-10
1.16976e-10
1.23708e-10
1.3734e-10
1.65493e-10
2.3341e-10
4.96199e-10
5.23716e-10
2.46373e-10
1.74673e-10
1.44904e-10
1.30419e-10
1.23174e-10
1.19845e-10
1.18761e-10
1.18964e-10
1.19853e-10
1.21022e-10
1.2219e-10
1.23164e-10
1.23808e-10
1.24043e-10
1.23833e-10
1.23182e-10
1.22138e-10
1.20788e-10
1.19273e-10
1.17791e-10
1.16621e-10
1.1616e-10
1.16998e-10
1.20066e-10
1.26987e-10
1.40993e-10
1.69908e-10
2.3965e-10
5.09476e-10
5.33533e-10
2.50983e-10
1.77923e-10
1.47573e-10
1.32787e-10
1.25372e-10
1.2194e-10
1.20791e-10
1.20948e-10
1.21799e-10
1.22931e-10
1.24061e-10
1.2499e-10
1.25585e-10
1.25764e-10
1.25494e-10
1.2478e-10
1.2367e-10
1.22258e-10
1.20683e-10
1.19148e-10
1.17935e-10
1.17446e-10
1.18274e-10
1.21361e-10
1.28345e-10
1.42493e-10
1.71709e-10
2.42185e-10
5.14864e-10
5.36187e-10
2.52225e-10
1.78789e-10
1.48269e-10
1.33387e-10
1.25908e-10
1.22428e-10
1.21236e-10
1.21349e-10
1.22152e-10
1.23232e-10
1.24304e-10
1.2517e-10
1.25697e-10
1.25805e-10
1.25463e-10
1.24678e-10
1.235e-10
1.22023e-10
1.2039e-10
1.18801e-10
1.1754e-10
1.17006e-10
1.17789e-10
1.20825e-10
1.27746e-10
1.41798e-10
1.70846e-10
2.40948e-10
5.12219e-10
5.31673e-10
2.50095e-10
1.77267e-10
1.46992e-10
1.32221e-10
1.24786e-10
1.21311e-10
1.20098e-10
1.2017e-10
1.20917e-10
1.21929e-10
1.22924e-10
1.23707e-10
1.24145e-10
1.24167e-10
1.2374e-10
1.22876e-10
1.21625e-10
1.20082e-10
1.1839e-10
1.16747e-10
1.15432e-10
1.14837e-10
1.15541e-10
1.1846e-10
1.25191e-10
1.38912e-10
1.67325e-10
2.35946e-10
5.01558e-10
5.2005e-10
2.44623e-10
1.73381e-10
1.43762e-10
1.29307e-10
1.22025e-10
1.18611e-10
1.17401e-10
1.17437e-10
1.18121e-10
1.19052e-10
1.19953e-10
1.20635e-10
1.20971e-10
1.20893e-10
1.20371e-10
1.19419e-10
1.18092e-10
1.16482e-10
1.14731e-10
1.13033e-10
1.11658e-10
1.10989e-10
1.11579e-10
1.14315e-10
1.20732e-10
1.33894e-10
1.61218e-10
2.2728e-10
4.83093e-10
5.01465e-10
2.35878e-10
1.67183e-10
1.38626e-10
1.24694e-10
1.17676e-10
1.14383e-10
1.13206e-10
1.13216e-10
1.13836e-10
1.14677e-10
1.15472e-10
1.1604e-10
1.16261e-10
1.16072e-10
1.15447e-10
1.14404e-10
1.12997e-10
1.1132e-10
1.0951e-10
1.07756e-10
1.06316e-10
1.05555e-10
1.05999e-10
1.08487e-10
1.14475e-10
1.2686e-10
1.52663e-10
2.15147e-10
4.57243e-10
4.76148e-10
2.23971e-10
1.58756e-10
1.31662e-10
1.18458e-10
1.11821e-10
1.08713e-10
1.07604e-10
1.07605e-10
1.08166e-10
1.08916e-10
1.09602e-10
1.10049e-10
1.1015e-10
1.09845e-10
1.09115e-10
1.07979e-10
1.06493e-10
1.04749e-10
1.0288e-10
1.01067e-10
9.95541e-11
9.86861e-11
9.89503e-11
1.0113e-10
1.06578e-10
1.17986e-10
1.41874e-10
1.99848e-10
4.24648e-10
4.44391e-10
2.09043e-10
1.48208e-10
1.22967e-10
1.107e-10
1.04563e-10
1.01714e-10
1.00717e-10
1.00737e-10
1.01255e-10
1.01924e-10
1.02506e-10
1.02839e-10
1.02825e-10
1.02409e-10
1.01578e-10
1.00353e-10
9.87916e-11
9.69837e-11
9.50563e-11
9.31802e-11
9.15841e-11
9.0589e-11
9.06389e-11
9.24516e-11
9.72593e-11
1.07512e-10
1.29138e-10
1.81788e-10
3.8617e-10
4.06564e-10
1.91273e-10
1.35675e-10
1.12668e-10
1.01546e-10
9.60374e-11
9.35315e-11
9.27043e-11
9.27846e-11
9.32935e-11
9.39083e-11
9.44094e-11
9.46481e-11
9.45373e-11
9.40278e-11
9.31104e-11
9.18098e-11
9.01819e-11
8.8314e-11
8.63268e-11
8.43802e-11
8.26857e-11
8.15364e-11
8.13348e-11
8.27219e-11
8.67979e-11
9.57411e-11
1.14818e-10
1.61475e-10
3.42891e-10
3.6314e-10
1.70892e-10
1.21336e-10
1.0093e-10
9.11652e-11
8.64239e-11
8.43611e-11
8.37798e-11
8.39838e-11
8.45371e-11
8.51462e-11
8.56105e-11
8.57968e-11
8.56262e-11
8.50559e-11
8.40801e-11
8.27242e-11
8.10429e-11
7.91195e-11
7.70675e-11
7.50357e-11
7.32179e-11
7.18769e-11
7.13773e-11
7.2276e-11
7.55343e-11
8.30394e-11
9.9343e-11
1.39512e-10
2.96091e-10
3.14743e-10
1.48203e-10
1.05422e-10
8.79706e-11
7.97815e-11
7.5965e-11
7.44695e-11
7.42377e-11
7.46582e-11
7.53405e-11
7.60219e-11
7.65221e-11
7.67213e-11
7.65494e-11
7.59681e-11
7.49734e-11
7.35901e-11
7.18701e-11
6.98919e-11
6.77615e-11
6.56165e-11
6.36338e-11
6.20467e-11
6.11844e-11
6.15192e-11
6.38719e-11
6.9831e-11
8.32054e-11
1.1658e-10
2.47212e-10
2.62217e-10
1.23616e-10
8.8255e-11
7.40946e-11
6.77152e-11
6.50115e-11
6.42433e-11
6.45088e-11
6.52813e-11
6.62182e-11
6.70874e-11
6.77292e-11
6.80336e-11
6.79397e-11
6.74113e-11
6.64445e-11
6.50621e-11
6.33122e-11
6.12678e-11
5.90277e-11
5.67192e-11
5.45037e-11
5.25901e-11
5.12663e-11
5.09379e-11
5.22824e-11
5.65964e-11
6.6946e-11
9.34114e-11
1.97801e-10
2.06724e-10
9.77033e-11
7.02915e-11
5.97546e-11
5.54569e-11
5.41096e-11
5.42941e-11
5.5272e-11
5.65941e-11
5.79656e-11
5.91835e-11
6.0106e-11
6.06338e-11
6.07101e-11
6.03022e-11
5.94043e-11
5.80363e-11
5.62431e-11
5.40927e-11
5.16775e-11
4.91179e-11
4.65613e-11
4.41955e-11
4.22663e-11
4.11289e-11
4.13256e-11
4.38819e-11
5.11505e-11
7.07766e-11
1.49462e-10
1.49909e-10
7.12943e-11
5.22377e-11
4.56945e-11
4.38451e-11
4.42105e-11
4.56996e-11
4.77122e-11
4.98748e-11
5.19354e-11
5.37169e-11
5.50937e-11
5.59779e-11
5.63147e-11
5.60773e-11
5.52643e-11
5.38946e-11
5.20093e-11
4.9671e-11
4.69639e-11
4.39939e-11
4.0899e-11
3.7852e-11
3.50769e-11
3.28792e-11
3.1718e-11
3.23515e-11
3.64752e-11
4.94769e-11
1.03822e-10
9.42261e-11
4.56979e-11
3.53464e-11
3.335e-11
3.45676e-11
3.72782e-11
4.06633e-11
4.42433e-11
4.77087e-11
5.08444e-11
5.34948e-11
5.55475e-11
5.69271e-11
5.75871e-11
5.75079e-11
5.67007e-11
5.51743e-11
5.29829e-11
5.01946e-11
4.68997e-11
4.32107e-11
3.92617e-11
3.52131e-11
3.12586e-11
2.76423e-11
2.46975e-11
2.30112e-11
2.37732e-11
3.04146e-11
6.25804e-11
4.37479e-11
2.34251e-11
2.254e-11
2.64048e-11
3.20997e-11
3.84922e-11
4.49948e-11
5.12494e-11
5.69947e-11
6.20325e-11
6.62124e-11
6.94236e-11
7.15888e-11
7.26645e-11
7.26409e-11
7.15693e-11
6.94379e-11
6.6343e-11
6.23784e-11
5.76627e-11
5.23366e-11
4.65599e-11
4.05102e-11
3.43847e-11
2.84081e-11
2.28589e-11
1.81259e-11
1.49054e-11
1.50034e-11
2.77834e-11
6.56657e-12
1.23395e-11
2.57569e-11
4.09484e-11
5.69197e-11
7.28829e-11
8.82319e-11
1.0249e-10
1.15275e-10
1.2628e-10
1.35264e-10
1.42045e-10
1.46505e-10
1.48579e-10
1.48277e-10
1.45739e-10
1.40947e-10
1.34118e-10
1.25456e-10
1.1522e-10
1.03706e-10
9.12413e-11
7.81779e-11
6.48801e-11
5.17176e-11
3.90594e-11
2.72762e-11
1.67569e-11
7.92254e-12
4.21068e-12
)
;

boundaryField
{
    movingWall
    {
        type            epsilonWallFunction;
        value           nonuniform List<scalar> 
30
(
6.56657e-12
1.23395e-11
2.57569e-11
4.09484e-11
5.69197e-11
7.28829e-11
8.82319e-11
1.0249e-10
1.15275e-10
1.2628e-10
1.35264e-10
1.42045e-10
1.46505e-10
1.48579e-10
1.48277e-10
1.45739e-10
1.40947e-10
1.34118e-10
1.25456e-10
1.1522e-10
1.03706e-10
9.12413e-11
7.81779e-11
6.48801e-11
5.17176e-11
3.90594e-11
2.72762e-11
1.67569e-11
7.92254e-12
4.21068e-12
)
;
    }
    fixedWalls
    {
        type            epsilonWallFunction;
        value           nonuniform List<scalar> 
90
(
5.24363e-12
3.53234e-11
7.73855e-11
1.25658e-10
1.7704e-10
2.29331e-10
2.80795e-10
3.3e-10
3.75752e-10
4.17055e-10
4.53087e-10
4.8319e-10
5.06856e-10
5.23716e-10
5.33533e-10
5.36187e-10
5.31673e-10
5.2005e-10
5.01465e-10
4.76148e-10
4.44391e-10
4.06564e-10
3.6314e-10
3.14743e-10
2.62217e-10
2.06724e-10
1.49909e-10
9.42261e-11
4.37479e-11
6.56657e-12
5.2279e-12
3.52199e-11
7.71549e-11
1.25261e-10
1.76419e-10
2.284e-10
2.79428e-10
3.28018e-10
3.72907e-10
4.13014e-10
4.47419e-10
4.75355e-10
4.96199e-10
5.09476e-10
5.14864e-10
5.12219e-10
5.01558e-10
4.83093e-10
4.57243e-10
4.24648e-10
3.8617e-10
3.42891e-10
2.96091e-10
2.47212e-10
1.97801e-10
1.49462e-10
1.03822e-10
6.25804e-11
2.77834e-11
4.21068e-12
5.24363e-12
9.87537e-12
2.07318e-11
3.33432e-11
4.70251e-11
6.11925e-11
7.53504e-11
8.90655e-11
1.01952e-10
1.13666e-10
1.23906e-10
1.32413e-10
1.38976e-10
1.43435e-10
1.45681e-10
1.45659e-10
1.43372e-10
1.38875e-10
1.32279e-10
1.23747e-10
1.13491e-10
1.01771e-10
8.88871e-11
7.51841e-11
6.10463e-11
4.69051e-11
3.32536e-11
2.06736e-11
9.84669e-12
5.2279e-12
)
;
    }
    frontAndBack
    {
        type            empty;
    }
}


// ************************************************************************* //
