/*--------------------------------*- C++ -*----------------------------------*\
  =========                 |
  \\      /  F ield         | OpenFOAM: The Open Source CFD Toolbox
   \\    /   O peration     | Website:  https://openfoam.org
    \\  /    A nd           | Version:  12
     \\/     M anipulation  |
\*---------------------------------------------------------------------------*/
FoamFile
{
    format      ascii;
    class       volScalarField;
    location    "0.3";
    object      k;
}
// * * * * * * * * * * * * * * * * * * * * * * * * * * * * * * * * * * * * * //

dimensions      [0 2 -2 0 0 0 0];

internalField   nonuniform List<scalar> 
900
(
2.71863e-16
2.04801e-15
4.29948e-15
6.91491e-15
9.75232e-15
1.26905e-14
1.56266e-14
1.84709e-14
2.11434e-14
2.35728e-14
2.56963e-14
2.74606e-14
2.88217e-14
2.97464e-14
3.0212e-14
3.02076e-14
2.97332e-14
2.88006e-14
2.74328e-14
2.56634e-14
2.35365e-14
2.11058e-14
1.84339e-14
1.55921e-14
1.26601e-14
9.72745e-15
6.89631e-15
4.28742e-15
2.04206e-15
2.71048e-16
1.83139e-15
1.62677e-14
3.66882e-14
6.04605e-14
8.61199e-14
1.12599e-13
1.39009e-13
1.64565e-13
1.88562e-13
2.10368e-13
2.29423e-13
2.45252e-13
2.57463e-13
2.65758e-13
2.69935e-13
2.69896e-13
2.65641e-13
2.57275e-13
2.45004e-13
2.2913e-13
2.10044e-13
1.88228e-13
1.64237e-13
1.38704e-13
1.12332e-13
8.59024e-14
6.03e-14
3.65869e-14
1.62214e-14
1.82603e-15
4.01216e-15
3.58989e-14
8.15076e-14
1.34998e-13
1.92994e-13
2.52998e-13
3.12935e-13
3.70984e-13
4.2552e-13
4.75089e-13
5.18415e-13
5.54407e-13
5.82174e-13
6.01036e-13
6.10534e-13
6.10441e-13
6.00762e-13
5.81735e-13
5.53829e-13
5.1773e-13
4.74337e-13
4.24743e-13
3.70224e-13
3.1223e-13
2.52383e-13
1.92495e-13
1.34632e-13
8.12776e-14
3.57946e-14
4.00021e-15
6.51494e-15
5.83832e-14
1.3284e-13
2.20478e-13
3.15779e-13
4.146e-13
5.13471e-13
6.0934e-13
6.99479e-13
7.81456e-13
8.53137e-13
9.12698e-13
9.58655e-13
9.89872e-13
1.00559e-12
1.00542e-12
9.89385e-13
9.57876e-13
9.11673e-13
8.51924e-13
7.80126e-13
6.98106e-13
6.07999e-13
5.12231e-13
4.13521e-13
3.14906e-13
2.19839e-13
1.3244e-13
5.82028e-14
6.49433e-15
9.17891e-15
8.23015e-14
1.87429e-13
3.11392e-13
4.46428e-13
5.86663e-13
7.27145e-13
8.63496e-13
9.91795e-13
1.10854e-12
1.21067e-12
1.29555e-12
1.36105e-12
1.40554e-12
1.42792e-12
1.42766e-12
1.40476e-12
1.3598e-12
1.29391e-12
1.20873e-12
1.10642e-12
9.89606e-13
8.61361e-13
7.25175e-13
5.84953e-13
4.45047e-13
3.10384e-13
1.86801e-13
8.20186e-14
9.14668e-15
1.189e-14
1.06637e-13
2.42955e-13
4.03852e-13
5.79298e-13
7.61675e-13
9.44525e-13
1.12213e-12
1.28933e-12
1.44156e-12
1.57475e-12
1.68548e-12
1.77093e-12
1.82895e-12
1.85811e-12
1.85771e-12
1.82775e-12
1.76901e-12
1.68297e-12
1.57179e-12
1.43831e-12
1.286e-12
1.11888e-12
9.41532e-13
7.59081e-13
5.77209e-13
4.0233e-13
2.42008e-13
1.06211e-13
1.18417e-14
1.45582e-14
1.30583e-13
2.97582e-13
4.94798e-13
7.09975e-13
9.33782e-13
1.15829e-12
1.37645e-12
1.58193e-12
1.76903e-12
1.93279e-12
2.06892e-12
2.17396e-12
2.24525e-12
2.28103e-12
2.28042e-12
2.24346e-12
2.17109e-12
2.06515e-12
1.92834e-12
1.76418e-12
1.57694e-12
1.37161e-12
1.15384e-12
9.29931e-13
7.06881e-13
4.92548e-13
2.96186e-13
1.29957e-13
1.44874e-14
1.71093e-14
1.53476e-13
3.49798e-13
5.81714e-13
8.34838e-13
1.0982e-12
1.36247e-12
1.61934e-12
1.86132e-12
2.08169e-12
2.27455e-12
2.43487e-12
2.55853e-12
2.6424e-12
2.6844e-12
2.68349e-12
2.63974e-12
2.55428e-12
2.42929e-12
2.26799e-12
2.07453e-12
1.85397e-12
1.61221e-12
1.35593e-12
1.09256e-12
8.30312e-13
5.7843e-13
3.47764e-13
1.52566e-13
1.70066e-14
1.94814e-14
1.74761e-13
3.9834e-13
6.62499e-13
9.50868e-13
1.25096e-12
1.55212e-12
1.84488e-12
2.12067e-12
2.37183e-12
2.5916e-12
2.77424e-12
2.91504e-12
3.01043e-12
3.05803e-12
3.05671e-12
3.00653e-12
2.90882e-12
2.76609e-12
2.58202e-12
2.36138e-12
2.10997e-12
1.83451e-12
1.54262e-12
1.24277e-12
9.44319e-13
6.57757e-13
3.95409e-13
1.73452e-13
1.93339e-14
2.16228e-14
1.93975e-13
4.42152e-13
7.35399e-13
1.05555e-12
1.38873e-12
1.72311e-12
2.04814e-12
2.3543e-12
2.63306e-12
2.87692e-12
3.07947e-12
3.23548e-12
3.34103e-12
3.39345e-12
3.39154e-12
3.33539e-12
3.2265e-12
3.0677e-12
2.8631e-12
2.61801e-12
2.3389e-12
2.03324e-12
1.70948e-12
1.377e-12
1.04618e-12
7.28629e-13
4.37975e-13
1.92113e-13
2.14133e-14
2.34909e-14
2.10737e-13
4.80366e-13
7.98971e-13
1.1468e-12
1.50878e-12
1.87203e-12
2.22507e-12
2.55753e-12
2.86013e-12
3.12471e-12
3.3443e-12
3.51326e-12
3.62731e-12
3.6836e-12
3.68088e-12
3.61928e-12
3.50047e-12
3.32756e-12
3.10506e-12
2.83876e-12
2.53568e-12
2.20395e-12
1.85275e-12
1.49222e-12
1.13359e-12
7.89434e-13
4.74491e-13
2.0812e-13
2.31971e-14
2.50517e-14
2.24739e-13
5.12285e-13
8.52053e-13
1.22297e-12
1.60892e-12
1.99616e-12
2.3724e-12
2.72658e-12
3.04878e-12
3.33028e-12
3.56369e-12
3.74299e-12
3.86367e-12
3.92274e-12
3.91892e-12
3.85243e-12
3.72508e-12
3.54026e-12
3.3028e-12
3.01891e-12
2.69608e-12
2.34296e-12
1.9693e-12
1.58588e-12
1.20461e-12
8.38822e-13
5.04144e-13
2.21117e-13
2.46454e-14
2.62787e-14
2.35746e-13
5.3737e-13
8.93752e-13
1.28276e-12
1.68745e-12
2.09338e-12
2.48762e-12
2.85853e-12
3.1957e-12
3.48999e-12
3.73367e-12
3.92046e-12
4.04571e-12
4.10631e-12
4.10106e-12
4.03025e-12
3.89585e-12
3.70148e-12
3.45225e-12
3.1547e-12
2.81669e-12
2.44727e-12
2.0566e-12
1.65594e-12
1.25768e-12
8.757e-13
5.26276e-13
2.30815e-13
2.57261e-14
2.71528e-14
2.43587e-13
5.55231e-13
9.23417e-13
1.32524e-12
1.74315e-12
2.16215e-12
2.56887e-12
2.95124e-12
3.29848e-12
3.60116e-12
3.85133e-12
4.04258e-12
4.17015e-12
4.23094e-12
4.22387e-12
4.1493e-12
4.00939e-12
3.80794e-12
3.5503e-12
3.24326e-12
2.89493e-12
2.51461e-12
2.11274e-12
1.70084e-12
1.29161e-12
8.99232e-13
5.40382e-13
2.36993e-13
2.64145e-14
2.76618e-14
2.48151e-13
5.65616e-13
9.40632e-13
1.34981e-12
1.77521e-12
2.20149e-12
2.61497e-12
3.00331e-12
3.35553e-12
3.66203e-12
3.91476e-12
4.10727e-12
4.23484e-12
4.2944e-12
4.28505e-12
4.20727e-12
4.0634e-12
3.85742e-12
3.59484e-12
3.28262e-12
2.929e-12
2.5434e-12
2.13637e-12
1.7195e-12
1.30557e-12
9.0885e-13
5.46123e-13
2.395e-13
2.66939e-14
2.77994e-14
2.49382e-13
5.684e-13
9.45184e-13
1.35616e-12
1.78323e-12
2.21089e-12
2.6253e-12
3.01405e-12
3.36605e-12
3.67171e-12
3.92299e-12
4.11353e-12
4.23869e-12
4.29556e-12
4.28349e-12
4.20309e-12
4.05686e-12
3.84894e-12
3.58497e-12
3.27195e-12
2.91816e-12
2.53301e-12
2.12695e-12
1.71147e-12
1.29922e-12
9.04304e-13
5.43344e-13
2.3827e-13
2.65567e-14
2.75653e-14
2.47279e-13
5.63579e-13
9.37077e-13
1.34431e-12
1.76723e-12
2.19037e-12
2.59992e-12
2.98349e-12
3.3301e-12
3.63026e-12
3.87607e-12
4.06138e-12
4.18172e-12
4.23446e-12
4.2192e-12
4.13675e-12
3.98977e-12
3.78252e-12
3.52068e-12
3.21127e-12
2.86244e-12
2.48344e-12
2.08449e-12
1.67678e-12
1.27258e-12
8.85615e-13
5.32063e-13
2.3331e-13
2.6004e-14
2.69627e-14
2.41869e-13
5.51216e-13
9.16408e-13
1.31439e-12
1.7274e-12
2.14016e-12
2.53908e-12
2.91197e-12
3.24807e-12
3.53814e-12
3.77458e-12
3.95152e-12
4.06479e-12
4.11207e-12
4.0933e-12
4.00945e-12
3.86337e-12
3.6594e-12
3.40322e-12
3.10174e-12
2.76292e-12
2.39567e-12
2.00983e-12
1.61609e-12
1.22617e-12
8.53154e-13
5.12501e-13
2.24719e-13
2.50466e-14
2.59992e-14
2.3322e-13
5.31466e-13
8.83439e-13
1.26679e-12
1.66424e-12
2.06092e-12
2.44361e-12
2.80048e-12
3.12115e-12
3.39677e-12
3.62014e-12
3.78579e-12
3.8899e-12
3.9306e-12
3.9081e-12
3.82362e-12
3.68016e-12
3.4821e-12
3.23505e-12
2.94572e-12
2.62176e-12
2.27164e-12
1.90464e-12
1.53079e-12
1.16104e-12
8.07653e-13
4.85104e-13
2.12692e-13
2.37064e-14
2.46866e-14
2.2144e-13
5.04576e-13
8.38585e-13
1.2021e-12
1.57856e-12
1.95368e-12
2.31477e-12
2.65054e-12
2.95113e-12
3.20821e-12
3.41511e-12
3.56686e-12
3.66003e-12
3.6933e-12
3.66714e-12
3.58299e-12
3.44397e-12
3.25445e-12
3.01992e-12
2.74678e-12
2.44226e-12
2.11429e-12
1.77144e-12
1.42293e-12
1.07879e-12
7.50229e-13
4.50545e-13
1.97526e-13
2.20165e-14
2.30401e-14
2.06664e-13
4.70855e-13
7.8236e-13
1.12108e-12
1.47135e-12
1.8197e-12
2.15413e-12
2.46405e-12
2.74027e-12
2.97514e-12
3.16261e-12
3.29829e-12
3.3792e-12
3.40461e-12
3.37518e-12
3.29258e-12
3.15997e-12
2.98168e-12
2.76293e-12
2.50978e-12
2.22893e-12
1.92764e-12
1.61368e-12
1.29533e-12
9.81561e-13
6.82395e-13
4.09737e-13
1.79622e-13
2.00215e-14
2.10789e-14
1.89064e-13
4.30694e-13
7.15415e-13
1.02465e-12
1.34388e-12
1.66058e-12
1.96368e-12
2.24344e-12
2.4915e-12
2.70101e-12
2.86664e-12
2.98467e-12
3.05256e-12
3.07019e-12
3.03832e-12
2.9588e-12
2.83478e-12
2.6704e-12
2.47058e-12
2.2409e-12
1.98745e-12
1.71676e-12
1.4357e-12
1.15153e-12
8.72083e-13
6.06054e-13
3.63826e-13
1.59483e-13
1.77776e-14
1.88275e-14
1.68859e-13
3.84591e-13
6.38579e-13
9.14026e-13
1.19774e-12
1.47838e-12
1.74597e-12
1.99181e-12
2.20854e-12
2.39021e-12
2.53231e-12
2.63178e-12
2.68658e-12
2.69709e-12
2.66411e-12
2.58955e-12
2.47645e-12
2.32865e-12
2.15067e-12
1.94753e-12
1.72464e-12
1.4877e-12
1.24267e-12
9.95764e-13
7.53583e-13
5.23462e-13
3.14171e-13
1.37705e-13
1.53513e-14
1.63183e-14
1.46341e-13
3.33204e-13
5.5294e-13
7.90762e-13
1.03504e-12
1.27579e-12
1.50435e-12
1.71324e-12
1.89625e-12
2.04842e-12
2.1661e-12
2.24692e-12
2.2893e-12
2.29395e-12
2.26161e-12
2.19418e-12
2.09442e-12
1.96578e-12
1.81223e-12
1.63816e-12
1.44825e-12
1.24736e-12
1.04049e-12
8.32801e-13
6.29707e-13
4.37164e-13
2.62301e-13
1.1496e-13
1.2817e-14
1.3595e-14
1.21897e-13
2.77416e-13
4.59966e-13
6.56993e-13
8.58626e-13
1.05649e-12
1.24341e-12
1.41329e-12
1.56116e-12
1.68314e-12
1.77644e-12
1.83929e-12
1.87059e-12
1.8711e-12
1.84149e-12
1.78346e-12
1.69939e-12
1.59217e-12
1.46517e-12
1.32205e-12
1.16671e-12
1.00315e-12
8.35463e-13
6.67783e-13
5.04384e-13
3.499e-13
2.09862e-13
9.19668e-14
1.02553e-14
1.07179e-14
9.60683e-14
2.1845e-13
3.617e-13
5.15698e-13
6.72556e-13
8.25694e-13
9.69579e-13
1.09963e-12
1.21216e-12
1.30434e-12
1.37419e-12
1.42044e-12
1.44247e-12
1.44076e-12
1.41595e-12
1.3694e-12
1.30295e-12
1.2189e-12
1.11988e-12
1.00878e-12
8.88661e-13
7.62698e-13
6.34077e-13
5.05985e-13
3.8165e-13
2.64495e-13
1.58553e-13
6.94719e-14
7.74907e-15
7.77224e-15
6.96155e-14
1.58046e-13
2.61077e-13
3.71214e-13
4.82728e-13
5.90972e-13
6.92136e-13
7.83128e-13
8.615e-13
9.25395e-13
9.73501e-13
1.00501e-12
1.0196e-12
1.01743e-12
9.99044e-13
9.65355e-13
9.17667e-13
8.57589e-13
7.86991e-13
7.07949e-13
6.22684e-13
5.33496e-13
4.42708e-13
3.52624e-13
2.65528e-13
1.83781e-13
1.1009e-13
4.82315e-14
5.38282e-15
4.88529e-15
4.36761e-14
9.88198e-14
1.62571e-13
2.30183e-13
2.98163e-13
3.63771e-13
4.24817e-13
4.79548e-13
5.26582e-13
5.64867e-13
5.93646e-13
6.12447e-13
6.21061e-13
6.19561e-13
6.08314e-13
5.87678e-13
5.58509e-13
5.21759e-13
4.78552e-13
4.30156e-13
3.77946e-13
3.23366e-13
2.6789e-13
2.12985e-13
1.60093e-13
1.10653e-13
6.62436e-14
2.90309e-14
3.24457e-15
2.26817e-15
2.01134e-14
4.50962e-14
7.36078e-14
1.03565e-13
1.33497e-13
1.62274e-13
1.88996e-13
2.12939e-13
2.33526e-13
2.50309e-13
2.62959e-13
2.71258e-13
2.75099e-13
2.74499e-13
2.69634e-13
2.60534e-13
2.47633e-13
2.31343e-13
2.12155e-13
1.90627e-13
1.67374e-13
1.43051e-13
1.18337e-13
9.3917e-14
7.04626e-14
4.86324e-14
2.91142e-14
1.27975e-14
1.44047e-15
3.40453e-16
2.55904e-15
5.3416e-15
8.49211e-15
1.18043e-14
1.51149e-14
1.8298e-14
2.1255e-14
2.39064e-14
2.61887e-14
2.80517e-14
2.94582e-14
3.0383e-14
3.08131e-14
3.07505e-14
3.02242e-14
2.92303e-14
2.78141e-14
2.60179e-14
2.3895e-14
2.15071e-14
1.89221e-14
1.6213e-14
1.34552e-14
1.07255e-14
8.10037e-15
5.65669e-15
3.47513e-15
1.64302e-15
2.22045e-16
)
;

boundaryField
{
    movingWall
    {
        type            kqRWallFunction;
        value           nonuniform List<scalar> 
30
(
3.40453e-16
2.55904e-15
5.3416e-15
8.49211e-15
1.18043e-14
1.51149e-14
1.8298e-14
2.1255e-14
2.39064e-14
2.61887e-14
2.80517e-14
2.94582e-14
3.0383e-14
3.08131e-14
3.07505e-14
3.02242e-14
2.92303e-14
2.78141e-14
2.60179e-14
2.3895e-14
2.15071e-14
1.89221e-14
1.6213e-14
1.34552e-14
1.07255e-14
8.10037e-15
5.65669e-15
3.47513e-15
1.64302e-15
2.22045e-16
)
;
    }
    fixedWalls
    {
        type            kqRWallFunction;
        value           nonuniform List<scalar> 
90
(
2.71863e-16
1.83139e-15
4.01216e-15
6.51494e-15
9.17891e-15
1.189e-14
1.45582e-14
1.71093e-14
1.94814e-14
2.16228e-14
2.34909e-14
2.50517e-14
2.62787e-14
2.71528e-14
2.76618e-14
2.77994e-14
2.75653e-14
2.69627e-14
2.59992e-14
2.46866e-14
2.30401e-14
2.10789e-14
1.88275e-14
1.63183e-14
1.3595e-14
1.07179e-14
7.77224e-15
4.88529e-15
2.26817e-15
3.40453e-16
2.71048e-16
1.82603e-15
4.00021e-15
6.49433e-15
9.14668e-15
1.18417e-14
1.44874e-14
1.70066e-14
1.93339e-14
2.14133e-14
2.31971e-14
2.46454e-14
2.57261e-14
2.64145e-14
2.66939e-14
2.65567e-14
2.6004e-14
2.50466e-14
2.37064e-14
2.20165e-14
2.00215e-14
1.77776e-14
1.53513e-14
1.2817e-14
1.02553e-14
7.74907e-15
5.38282e-15
3.24457e-15
1.44047e-15
2.22045e-16
2.71863e-16
2.04801e-15
4.29948e-15
6.91491e-15
9.75232e-15
1.26905e-14
1.56266e-14
1.84709e-14
2.11434e-14
2.35728e-14
2.56963e-14
2.74606e-14
2.88217e-14
2.97464e-14
3.0212e-14
3.02076e-14
2.97332e-14
2.88006e-14
2.74328e-14
2.56634e-14
2.35365e-14
2.11058e-14
1.84339e-14
1.55921e-14
1.26601e-14
9.72745e-15
6.89631e-15
4.28742e-15
2.04206e-15
2.71048e-16
)
;
    }
    frontAndBack
    {
        type            empty;
    }
}


// ************************************************************************* //
