/*--------------------------------*- C++ -*----------------------------------*\
  =========                 |
  \\      /  F ield         | OpenFOAM: The Open Source CFD Toolbox
   \\    /   O peration     | Website:  https://openfoam.org
    \\  /    A nd           | Version:  12
     \\/     M anipulation  |
\*---------------------------------------------------------------------------*/
FoamFile
{
    format      ascii;
    class       volScalarField;
    location    "0.3";
    object      nut;
}
// * * * * * * * * * * * * * * * * * * * * * * * * * * * * * * * * * * * * * //

dimensions      [0 2 -1 0 0 0 0];

internalField   nonuniform List<scalar> 
900
(
1.26856e-21
3.82255e-20
8.02486e-20
1.29065e-19
1.82024e-19
2.36864e-19
2.91666e-19
3.44754e-19
3.94636e-19
4.39979e-19
4.79614e-19
5.12543e-19
5.37949e-19
5.55207e-19
5.63899e-19
5.63816e-19
5.54962e-19
5.37556e-19
5.12025e-19
4.78999e-19
4.39302e-19
3.93933e-19
3.44063e-19
2.91022e-19
2.36298e-19
1.8156e-19
1.28718e-19
8.00234e-20
3.81145e-20
1.26476e-21
8.5456e-21
1.25727e-18
6.58492e-18
1.50552e-17
2.47368e-17
3.46912e-17
4.4493e-17
5.38726e-17
6.26082e-17
7.05003e-17
7.73695e-17
8.30596e-17
8.74408e-17
9.04132e-17
9.19093e-17
9.18952e-17
9.03719e-17
8.73747e-17
8.29729e-17
7.72677e-17
7.03895e-17
6.24952e-17
5.37641e-17
4.43952e-17
3.46096e-17
2.46754e-17
1.50162e-17
6.56722e-18
1.25376e-18
8.52056e-21
1.87215e-20
3.08733e-18
2.04779e-17
5.89295e-17
1.14568e-16
1.79736e-16
2.48119e-16
3.15481e-16
3.79001e-16
4.36665e-16
4.86927e-16
5.28564e-16
5.60611e-16
5.82347e-16
5.93289e-16
5.93199e-16
5.82084e-16
5.60195e-16
5.28026e-16
4.86307e-16
4.36008e-16
3.78355e-16
3.14888e-16
2.47616e-16
1.79349e-16
1.14306e-16
5.87861e-17
2.04244e-17
3.07866e-18
1.86657e-20
3.03999e-20
5.12837e-18
3.613e-17
1.13074e-16
2.39417e-16
4.04286e-16
5.91648e-16
7.86503e-16
9.76865e-16
1.15364e-15
1.30996e-15
1.44066e-15
1.54184e-15
1.61072e-15
1.64548e-15
1.64525e-15
1.61003e-15
1.54077e-15
1.43929e-15
1.30842e-15
1.15204e-15
9.75346e-16
7.85158e-16
5.9055e-16
4.03472e-16
2.3889e-16
1.12798e-16
3.60317e-17
5.11312e-18
3.03037e-20
4.28304e-20
7.27914e-18
5.23592e-17
1.69283e-16
3.72406e-16
6.53256e-16
9.89311e-16
1.35379e-15
1.72155e-15
2.07134e-15
2.38609e-15
2.65251e-15
2.86054e-15
3.00295e-15
3.07508e-15
3.07465e-15
3.00171e-15
2.85861e-15
2.65008e-15
2.38338e-15
2.06858e-15
1.71895e-15
1.35151e-15
9.87467e-16
6.51898e-16
3.71532e-16
1.68832e-16
5.22017e-17
7.25507e-18
4.26801e-20
5.54809e-20
9.45867e-18
6.86424e-17
2.25164e-16
5.04407e-16
9.02149e-16
1.39211e-15
1.93752e-15
2.50002e-15
3.04454e-15
3.54129e-15
3.96612e-15
4.30033e-15
4.53028e-15
4.64708e-15
4.64638e-15
4.52827e-15
4.29721e-15
3.9622e-15
3.53692e-15
3.04011e-15
2.49585e-15
1.93389e-15
1.38918e-15
8.99996e-16
5.03034e-16
2.24464e-16
6.84016e-17
9.42233e-18
5.52557e-20
6.79312e-20
1.1599e-17
8.45406e-17
2.79317e-16
6.31565e-16
1.1413e-15
1.77952e-15
2.50093e-15
3.25512e-15
3.99362e-15
4.67364e-15
5.25944e-15
5.72275e-15
6.04266e-15
6.20544e-15
6.20432e-15
6.03942e-15
5.71771e-15
5.25311e-15
4.66661e-15
3.9865e-15
3.24843e-15
2.49512e-15
1.77485e-15
1.13791e-15
6.29438e-16
2.78252e-16
8.41802e-17
1.15452e-17
6.76006e-20
7.98351e-20
1.36428e-17
9.96676e-17
3.30576e-16
7.51276e-16
1.36547e-15
2.14168e-15
3.02705e-15
3.9603e-15
4.88071e-15
5.73327e-15
6.47116e-15
7.05679e-15
7.46205e-15
7.66833e-15
7.66651e-15
7.45676e-15
7.04859e-15
6.46086e-15
5.72184e-15
4.86915e-15
3.9495e-15
3.01772e-15
2.13427e-15
1.36018e-15
7.48015e-16
3.28974e-16
9.91348e-17
1.35642e-17
7.93557e-20
9.09037e-20
1.55415e-17
1.13688e-16
3.77915e-16
8.61373e-16
1.57081e-15
2.47233e-15
3.50621e-15
4.60146e-15
5.68639e-15
6.69504e-15
7.57055e-15
8.26682e-15
8.74917e-15
8.9945e-15
8.99156e-15
8.74061e-15
8.25356e-15
7.55392e-15
6.67662e-15
5.66781e-15
4.58419e-15
3.49141e-15
2.46073e-15
1.56265e-15
8.56433e-16
3.75533e-16
1.12909e-16
1.5428e-17
9.02154e-20
1.00896e-19
1.72545e-17
1.26318e-16
4.20448e-16
9.59982e-16
1.75414e-15
2.76664e-15
3.93158e-15
5.16939e-15
6.3988e-15
7.54425e-15
8.54014e-15
9.33295e-15
9.88227e-15
1.01611e-14
1.01565e-14
9.86872e-15
9.312e-15
8.51388e-15
7.51521e-15
6.3696e-15
5.14239e-15
3.9086e-15
2.74881e-15
1.74177e-15
9.52618e-16
4.16956e-16
1.25193e-16
1.70923e-17
9.99181e-20
1.09613e-19
1.87483e-17
1.37318e-16
4.57426e-16
1.04551e-15
1.91274e-15
3.02059e-15
4.2977e-15
5.65714e-15
7.00937e-15
8.27073e-15
9.36823e-15
1.02421e-14
1.08473e-14
1.11534e-14
1.11463e-14
1.08265e-14
1.021e-14
9.32795e-15
8.22625e-15
6.96474e-15
5.61603e-15
4.26295e-15
2.99385e-15
1.8944e-15
1.03474e-15
4.52391e-16
1.35717e-16
1.85195e-17
1.08242e-19
1.16896e-19
1.99959e-17
1.46498e-16
4.8824e-16
1.11666e-15
2.04437e-15
3.23087e-15
4.60017e-15
6.05911e-15
7.51138e-15
8.86669e-15
1.0046e-14
1.09847e-14
1.16338e-14
1.19607e-14
1.195e-14
1.16029e-14
1.09369e-14
9.98612e-15
8.8006e-15
7.44522e-15
5.99835e-15
4.54903e-15
3.1918e-15
2.01783e-15
1.10123e-15
4.81113e-16
1.44255e-16
1.96781e-17
1.15e-19
1.22621e-19
2.09765e-17
1.53708e-16
5.12417e-16
1.17239e-15
2.14729e-15
3.3949e-15
4.83545e-15
6.37089e-15
7.89957e-15
9.32603e-15
1.05667e-14
1.15532e-14
1.22339e-14
1.25743e-14
1.2559e-14
1.21892e-14
1.14842e-14
1.04803e-14
9.23083e-15
7.80439e-15
6.28369e-15
4.76231e-15
3.33929e-15
2.10977e-15
1.15077e-15
5.02524e-16
1.50623e-16
2.05424e-17
1.20043e-19
1.267e-19
2.16749e-17
1.58841e-16
5.29612e-16
1.21196e-15
2.2202e-15
3.51072e-15
5.00095e-15
6.58921e-15
8.16999e-15
9.64418e-15
1.09251e-14
1.1942e-14
1.26414e-14
1.2988e-14
1.29666e-14
1.25789e-14
1.18454e-14
1.08043e-14
9.5111e-15
8.03704e-15
6.46759e-15
4.8992e-15
3.43365e-15
2.16846e-15
1.18235e-15
5.16164e-16
1.54679e-16
2.10928e-17
1.23255e-19
1.29075e-19
2.20815e-17
1.61828e-16
5.39604e-16
1.23489e-15
2.26225e-15
3.57708e-15
5.09494e-15
6.71185e-15
8.31995e-15
9.81803e-15
1.11178e-14
1.21471e-14
1.28522e-14
1.31974e-14
1.31684e-14
1.27673e-14
1.20159e-14
1.09536e-14
9.63728e-15
8.13947e-15
6.54691e-15
4.95717e-15
3.47301e-15
2.19266e-15
1.19526e-15
5.21716e-16
1.56326e-16
2.1316e-17
1.24558e-19
1.29717e-19
2.21914e-17
1.62634e-16
5.42282e-16
1.24094e-15
2.27302e-15
3.59331e-15
5.11648e-15
6.73762e-15
8.34801e-15
9.84588e-15
1.11427e-14
1.21666e-14
1.28642e-14
1.32003e-14
1.3162e-14
1.27524e-14
1.19938e-14
1.09265e-14
9.6078e-15
8.11029e-15
6.52044e-15
4.93525e-15
3.45663e-15
2.18185e-15
1.18921e-15
5.19041e-16
1.55521e-16
2.1206e-17
1.23918e-19
1.28625e-19
2.20045e-17
1.61259e-16
5.37649e-16
1.23011e-15
2.2525e-15
3.55942e-15
5.06557e-15
6.6665e-15
8.25413e-15
9.7277e-15
1.09999e-14
1.20004e-14
1.26772e-14
1.29966e-14
1.29477e-14
1.25342e-14
1.17792e-14
1.07232e-14
9.42287e-15
7.94969e-15
6.38838e-15
4.83355e-15
3.38458e-15
2.13609e-15
1.16423e-15
5.0815e-16
1.52267e-16
2.07634e-17
1.21339e-19
1.25813e-19
2.15232e-17
1.57719e-16
5.25747e-16
1.20247e-15
2.20079e-15
3.47546e-15
4.94224e-15
6.49846e-15
8.03831e-15
9.46359e-15
1.06898e-14
1.16492e-14
1.22924e-14
1.25882e-14
1.25276e-14
1.21154e-14
1.13751e-14
1.03467e-14
9.0854e-15
7.66036e-15
6.153e-15
4.65393e-15
3.25821e-15
2.05624e-15
1.12078e-15
4.89255e-16
1.46629e-16
1.99969e-17
1.16872e-19
1.21317e-19
2.07533e-17
1.52056e-16
5.06699e-16
1.15826e-15
2.11828e-15
3.34198e-15
4.7472e-15
6.23447e-15
7.70182e-15
9.05523e-15
1.02144e-14
1.1116e-14
1.17134e-14
1.19793e-14
1.19067e-14
1.15014e-14
1.07872e-14
9.8028e-15
8.60103e-15
7.24745e-15
5.81875e-15
4.3999e-15
3.0801e-15
1.94398e-15
1.05981e-15
4.62772e-16
1.38733e-16
1.89239e-17
1.10618e-19
1.15192e-19
1.97044e-17
1.44333e-16
4.80702e-16
1.0979e-15
2.00558e-15
3.15984e-15
4.48157e-15
5.87594e-15
7.24647e-15
8.50503e-15
9.5771e-15
1.04047e-14
1.09453e-14
1.11761e-14
1.10921e-14
1.07003e-14
1.0024e-14
9.10015e-15
7.97811e-15
6.71863e-15
5.39223e-15
4.07678e-15
2.85416e-15
1.80188e-15
9.82756e-16
4.29338e-16
1.2877e-16
1.75708e-17
1.02733e-19
1.07509e-19
1.83881e-17
1.34632e-16
4.47989e-16
1.02181e-15
1.86338e-15
2.92996e-15
4.14653e-15
5.42444e-15
6.67442e-15
7.81592e-15
8.78177e-15
9.52061e-15
9.99478e-15
1.01868e-14
1.00934e-14
9.72263e-15
9.09682e-15
8.2502e-15
7.22772e-15
6.08403e-15
4.88222e-15
3.69165e-15
2.5856e-15
1.63337e-15
8.91549e-16
3.89815e-16
1.17003e-16
1.59733e-17
9.34239e-20
9.83578e-20
1.68192e-17
1.23049e-16
4.08843e-16
9.30536e-16
1.69249e-15
2.65342e-15
3.74356e-15
4.88196e-15
5.98844e-15
6.99184e-15
7.83384e-15
8.47077e-15
8.87092e-15
9.02227e-15
8.92302e-15
8.58193e-15
8.01979e-15
7.26716e-15
6.36346e-15
5.35606e-15
4.29938e-15
3.2532e-15
2.28082e-15
1.44269e-15
7.88586e-16
3.45276e-16
1.03758e-16
1.41764e-17
8.29537e-20
8.78524e-20
1.50166e-17
1.09712e-16
3.63623e-16
8.24765e-16
1.49395e-15
2.33171e-15
3.27474e-15
4.25149e-15
5.19283e-15
6.03876e-15
6.74136e-15
7.26557e-15
7.58641e-15
7.69715e-15
7.59718e-15
7.29555e-15
6.81061e-15
6.16834e-15
5.40156e-15
4.54927e-15
3.65612e-15
2.77132e-15
1.94714e-15
1.2347e-15
6.76644e-16
2.96981e-16
8.94206e-17
1.22329e-17
7.16317e-20
7.61442e-20
1.30052e-17
9.4783e-17
3.12795e-16
7.05394e-16
1.26923e-15
1.96709e-15
2.74357e-15
3.53836e-15
4.29539e-15
4.96754e-15
5.51842e-15
5.92245e-15
6.16178e-15
6.23417e-15
6.14003e-15
5.888e-15
5.49318e-15
4.97607e-15
4.36202e-15
3.68082e-15
2.96648e-15
2.25686e-15
1.59249e-15
1.01465e-15
5.58741e-16
2.46311e-16
7.44202e-17
1.02026e-17
5.98065e-20
6.34368e-20
1.08183e-17
7.84816e-17
2.56985e-16
5.7369e-16
1.02061e-15
1.56369e-15
2.157e-15
2.75368e-15
3.31252e-15
3.80053e-15
4.19344e-15
4.47528e-15
4.6353e-15
4.67418e-15
4.59327e-15
4.39989e-15
4.10524e-15
3.72384e-15
3.27314e-15
2.77339e-15
2.24771e-15
1.72215e-15
1.22536e-15
7.87903e-16
4.37934e-16
1.94689e-16
5.92085e-17
8.149e-18
4.7853e-20
5.00117e-20
8.50145e-18
6.11006e-17
1.97046e-16
4.31597e-16
7.52358e-16
1.13013e-15
1.53075e-15
1.92292e-15
2.28134e-15
2.58718e-15
2.82759e-15
2.99484e-15
3.08459e-15
3.0981e-15
3.03754e-15
2.90804e-15
2.71662e-15
2.47196e-15
2.18415e-15
1.86462e-15
1.52647e-15
1.1846e-15
8.56114e-16
5.60237e-16
3.17215e-16
1.4348e-16
4.42323e-17
6.1372e-18
3.61585e-20
3.62666e-20
6.11786e-18
4.30353e-17
1.34251e-16
2.82859e-16
4.74376e-16
6.87804e-16
9.03641e-16
1.10669e-15
1.28614e-15
1.43478e-15
1.54815e-15
1.62393e-15
1.66142e-15
1.66135e-15
1.62543e-15
1.55622e-15
1.45724e-15
1.3326e-15
1.18691e-15
1.02531e-15
8.53229e-16
6.76731e-16
5.02871e-16
3.40364e-16
2.00058e-16
9.39612e-17
2.99049e-17
4.23156e-18
2.51172e-20
2.27956e-20
3.75693e-18
2.48648e-17
7.13233e-17
1.37949e-16
2.14632e-16
2.92884e-16
3.67112e-16
4.33818e-16
4.90831e-16
5.36813e-16
5.70997e-16
5.93007e-16
6.02818e-16
6.00736e-16
5.87368e-16
5.63358e-16
5.29867e-16
4.88118e-16
4.39472e-16
3.85394e-16
3.27441e-16
2.67255e-16
2.06626e-16
1.47695e-16
9.33975e-17
4.78884e-17
1.66128e-17
2.49392e-18
1.51397e-20
1.05837e-20
1.55429e-18
8.12022e-18
1.84675e-17
3.00722e-17
4.16689e-17
5.26718e-17
6.27274e-17
7.16007e-17
7.91213e-17
8.51641e-17
8.96418e-17
9.25043e-17
9.37346e-17
9.33561e-17
9.14247e-17
8.79778e-17
8.31886e-17
7.72187e-17
7.02514e-17
6.24895e-17
5.4151e-17
4.54631e-17
3.66539e-17
2.7944e-17
1.95481e-17
1.17434e-17
5.1181e-18
9.82443e-19
6.72148e-21
1.58862e-21
4.77637e-20
9.96995e-20
1.58503e-19
2.20324e-19
2.82115e-19
3.41527e-19
3.96718e-19
4.46206e-19
4.88804e-19
5.23577e-19
5.49829e-19
5.67091e-19
5.75118e-19
5.73949e-19
5.64125e-19
5.45576e-19
5.19142e-19
4.85616e-19
4.45993e-19
4.01423e-19
3.53176e-19
3.02611e-19
2.51137e-19
2.00188e-19
1.51191e-19
1.05581e-19
6.48624e-20
3.06665e-20
1.05383e-21
)
;

boundaryField
{
    movingWall
    {
        type            nutkWallFunction;
        Cmu             0.09;
        kappa           0.41;
        E               9.8;
        value           uniform 0;
    }
    fixedWalls
    {
        type            nutkWallFunction;
        Cmu             0.09;
        kappa           0.41;
        E               9.8;
        value           uniform 0;
    }
    frontAndBack
    {
        type            empty;
    }
}


// ************************************************************************* //
