/*--------------------------------*- C++ -*----------------------------------*\
  =========                 |
  \\      /  F ield         | OpenFOAM: The Open Source CFD Toolbox
   \\    /   O peration     | Website:  https://openfoam.org
    \\  /    A nd           | Version:  12
     \\/     M anipulation  |
\*---------------------------------------------------------------------------*/
FoamFile
{
    format      ascii;
    class       surfaceScalarField;
    location    "0.3";
    object      phi;
}
// * * * * * * * * * * * * * * * * * * * * * * * * * * * * * * * * * * * * * //

dimensions      [0 3 -1 0 0 0 0];

internalField   nonuniform List<scalar> 
1740
(
1.14206e-10
-1.14319e-10
6.57398e-10
-5.43176e-10
1.62568e-09
-9.68294e-10
2.92356e-09
-1.29783e-09
4.4382e-09
-1.51463e-09
6.0619e-09
-1.62365e-09
7.70049e-09
-1.63857e-09
9.27671e-09
-1.57615e-09
1.073e-08
-1.45325e-09
1.20152e-08
-1.2851e-09
1.30998e-08
-1.08457e-09
1.39618e-08
-8.6188e-10
1.45866e-08
-6.24787e-10
1.49656e-08
-3.78936e-10
1.50941e-08
-1.28383e-10
1.49704e-08
1.23795e-10
1.45957e-08
3.7483e-10
1.39742e-08
6.21589e-10
1.31144e-08
8.59908e-10
1.20305e-08
1.08399e-09
1.07446e-08
1.28592e-09
9.28947e-09
1.45528e-09
7.71048e-09
1.57907e-09
6.06866e-09
1.64191e-09
4.44185e-09
1.62691e-09
2.92467e-09
1.51731e-09
1.62529e-09
1.29956e-09
6.56551e-10
9.68917e-10
1.13796e-10
5.4291e-10
1.13842e-10
6.24522e-10
-7.38856e-10
2.25585e-09
-2.17449e-09
4.68033e-09
-3.39278e-09
7.67975e-09
-4.29723e-09
1.10366e-08
-4.8715e-09
1.45507e-08
-5.13768e-09
1.80478e-08
-5.13574e-09
2.13841e-08
-4.91239e-09
2.44453e-08
-4.51441e-09
2.71448e-08
-3.98456e-09
2.94196e-08
-3.35941e-09
3.12263e-08
-2.66848e-09
3.25359e-08
-1.93442e-09
3.33309e-08
-1.17392e-09
3.36017e-08
-3.99092e-10
3.33447e-08
3.80776e-10
3.25623e-08
1.15731e-09
3.12629e-08
1.92103e-09
2.94634e-08
2.65947e-09
2.7192e-08
3.35545e-09
2.44922e-08
3.98573e-09
2.14273e-08
4.5202e-09
1.80846e-08
4.92176e-09
1.45793e-08
5.14722e-09
1.10567e-08
5.14959e-09
7.69189e-09
4.88218e-09
4.68622e-09
4.3053e-09
2.25775e-09
3.39749e-09
6.24704e-10
2.17604e-09
7.38579e-10
9.65054e-10
-1.70391e-09
3.34007e-09
-4.54951e-09
6.70377e-09
-6.75649e-09
1.07083e-08
-8.30181e-09
1.50578e-08
-9.22103e-09
1.95036e-08
-9.58344e-09
2.38426e-08
-9.47475e-09
2.79152e-08
-8.985e-09
3.16011e-08
-8.2004e-09
3.48143e-08
-7.19779e-09
3.74965e-08
-6.04165e-09
3.9611e-08
-4.78294e-09
4.11361e-08
-3.45961e-09
4.20604e-08
-2.09828e-09
4.23782e-08
-7.16924e-10
4.20871e-08
6.71835e-10
4.11873e-08
2.05707e-09
3.96825e-08
3.42576e-09
3.75828e-08
4.75915e-09
3.49086e-08
6.02955e-09
3.16966e-08
7.19777e-09
2.80052e-08
8.21154e-09
2.39217e-08
9.00518e-09
1.9568e-08
9.50087e-09
1.51057e-08
9.61182e-09
1.074e-08
9.24788e-09
6.72136e-09
8.32383e-09
3.34735e-09
6.77142e-09
9.66537e-10
4.55681e-09
1.70514e-09
1.12842e-09
-2.83232e-09
3.84196e-09
-7.26306e-09
7.58372e-09
-1.04983e-08
1.19079e-08
-1.26261e-08
1.64622e-08
-1.37753e-08
2.09748e-08
-1.40961e-08
2.5245e-08
-1.3745e-08
2.91331e-08
-1.28732e-08
3.25506e-08
-1.16179e-08
3.5449e-08
-1.00962e-08
3.78094e-08
-8.40207e-09
3.96321e-08
-6.6057e-09
4.09275e-08
-4.7551e-09
4.17083e-08
-2.87921e-09
4.19838e-08
-9.92508e-10
4.17562e-08
8.99391e-10
4.10195e-08
2.79365e-09
3.97612e-08
4.68393e-09
3.79659e-08
6.55431e-09
3.56215e-08
8.37387e-09
3.27269e-08
1.00923e-08
2.93014e-08
1.16369e-08
2.53952e-08
1.29113e-08
2.10994e-08
1.37965e-08
1.65571e-08
1.41541e-08
1.19726e-08
1.38323e-08
7.62114e-09
1.2675e-08
3.85838e-09
1.0534e-08
1.13216e-09
7.28287e-09
2.83731e-09
1.15122e-09
-3.98353e-09
3.81492e-09
-9.92677e-09
7.34062e-09
-1.4024e-08
1.12243e-08
-1.65098e-08
1.50935e-08
-1.76445e-08
1.86904e-08
-1.7693e-08
2.18561e-08
-1.69107e-08
2.45128e-08
-1.553e-08
2.66463e-08
-1.37514e-08
2.82876e-08
-1.17376e-08
2.94965e-08
-9.61105e-09
3.03452e-08
-7.45441e-09
3.09043e-08
-5.31433e-09
3.12321e-08
-3.20704e-09
3.13654e-08
-1.1259e-09
3.1315e-08
9.49658e-10
3.10641e-08
3.04449e-09
3.057e-08
5.17789e-09
2.97701e-08
7.35404e-09
2.85906e-08
9.5533e-09
2.69578e-08
1.1725e-08
2.48126e-08
1.3782e-08
2.21263e-08
1.55976e-08
1.89172e-08
1.70056e-08
1.52685e-08
1.78026e-08
1.13455e-08
1.7755e-08
7.41233e-09
1.6608e-08
3.84739e-09
1.40987e-08
1.15908e-09
9.97101e-09
3.9964e-09
1.02614e-09
-5.00967e-09
3.20063e-09
-1.21013e-08
5.80376e-09
-1.66271e-08
8.31196e-09
-1.9018e-08
1.03791e-08
-1.97116e-08
1.18134e-08
-1.91274e-08
1.25533e-08
-1.76505e-08
1.26399e-08
-1.56166e-08
1.21905e-08
-1.3302e-08
1.13708e-08
-1.0918e-08
1.03694e-08
-8.60965e-09
9.37425e-09
-6.45927e-09
8.55252e-09
-4.49262e-09
8.03412e-09
-2.68866e-09
7.89976e-09
-9.91563e-10
8.17375e-09
6.75646e-10
8.82184e-09
2.39638e-09
9.75417e-09
4.24553e-09
1.08333e-08
6.27491e-09
1.18866e-08
8.49992e-09
1.27237e-08
1.0888e-08
1.31562e-08
1.33494e-08
1.3022e-08
1.57318e-08
1.22103e-08
1.78172e-08
1.06886e-08
1.93244e-08
8.52902e-09
1.99146e-08
5.9343e-09
1.92027e-08
3.26111e-09
1.67718e-08
1.04144e-09
1.21906e-08
5.03783e-09
7.09817e-10
-5.71949e-09
1.81916e-09
-1.32106e-08
2.56366e-09
-1.73716e-08
2.44725e-09
-1.89016e-08
1.21221e-09
-1.84765e-08
-1.19541e-09
-1.67198e-08
-4.66289e-09
-1.4183e-08
-8.95026e-09
-1.13292e-08
-1.37306e-08
-8.52166e-09
-1.86295e-08
-6.01903e-09
-2.3262e-08
-3.9771e-09
-2.72659e-08
-2.45525e-09
-3.03306e-08
-1.42786e-09
-3.22197e-08
-7.99509e-10
-3.27879e-08
-4.23234e-10
-3.19912e-08
-1.21018e-10
-2.98893e-08
2.94603e-10
-2.66421e-08
9.98392e-10
-2.2498e-08
2.13094e-09
-1.77766e-08
3.77868e-09
-1.28449e-08
5.95628e-09
-8.08759e-09
8.59226e-09
-3.87435e-09
1.15187e-08
-5.22456e-10
1.44654e-08
1.74192e-09
1.70601e-08
2.82281e-09
1.88338e-08
2.79261e-09
1.9233e-08
1.92712e-09
1.76375e-08
7.37953e-10
1.33799e-08
5.77576e-09
1.21167e-10
-5.84067e-09
-6.43056e-10
-1.24464e-08
-3.06125e-09
-1.49534e-08
-7.53385e-09
-1.4429e-08
-1.41426e-08
-1.18678e-08
-2.27034e-08
-8.15885e-09
-3.28221e-08
-4.06435e-09
-4.3951e-08
-2.0019e-10
-5.5447e-08
2.97433e-09
-6.6627e-08
5.16103e-09
-7.68196e-08
6.21563e-09
-8.54113e-08
6.13654e-09
-9.18855e-08
5.04641e-09
-9.5854e-08
3.16911e-09
-9.708e-08
8.02796e-10
-9.5491e-08
-1.70984e-09
-9.11836e-08
-4.01272e-09
-8.44169e-08
-5.76812e-09
-7.55983e-08
-6.68761e-09
-6.52583e-08
-6.56115e-09
-5.40188e-08
-5.28312e-09
-4.25521e-08
-2.87426e-09
-3.15349e-08
5.01578e-10
-2.15965e-08
4.52706e-09
-1.32634e-08
8.72727e-09
-6.9041e-09
1.24747e-08
-2.67266e-09
1.50019e-08
-4.57079e-10
1.54222e-08
1.70686e-10
1.27523e-08
5.94643e-09
-8.62327e-10
-4.97835e-09
-4.64966e-09
-8.659e-09
-1.20634e-08
-7.53962e-09
-2.33045e-08
-3.18785e-09
-3.81524e-08
2.98012e-09
-5.60448e-08
9.73359e-09
-7.61585e-08
1.60494e-08
-9.74906e-08
2.11319e-08
-1.18939e-07
2.44232e-08
-1.39381e-07
2.56023e-08
-1.57738e-07
2.45729e-08
-1.73045e-07
2.14436e-08
-1.84498e-07
1.64998e-08
-1.91499e-07
1.01701e-08
-1.93684e-07
2.98739e-09
-1.90941e-07
-4.45277e-09
-1.83417e-07
-1.15364e-08
-1.7151e-07
-1.76753e-08
-1.55846e-07
-2.23509e-08
-1.37252e-07
-2.5155e-08
-1.16708e-07
-2.58278e-08
-9.52919e-08
-2.429e-08
-7.41216e-08
-2.06687e-08
-5.42793e-08
-1.53151e-08
-3.67379e-08
-8.8141e-09
-2.2281e-08
-1.98216e-09
-1.14244e-08
4.14549e-09
-4.3396e-09
8.33747e-09
-7.78199e-10
9.19103e-09
5.16823e-09
-2.4107e-09
-2.56764e-09
-1.08383e-08
-2.31436e-10
-2.57962e-08
7.41833e-09
-4.71295e-08
1.81454e-08
-7.41344e-08
2.9985e-08
-1.05676e-07
4.12751e-08
-1.40302e-07
5.06757e-08
-1.76358e-07
5.71879e-08
-2.12096e-07
6.01608e-08
-2.45777e-07
5.92832e-08
-2.75767e-07
5.45626e-08
-3.00616e-07
4.62935e-08
-3.19133e-07
3.50161e-08
-3.30431e-07
2.14683e-08
-3.33976e-07
6.53181e-09
-3.29602e-07
-8.82625e-09
-3.17525e-07
-2.36133e-08
-2.98328e-07
-3.68722e-08
-2.72938e-07
-4.77417e-08
-2.4258e-07
-5.55128e-08
-2.08725e-07
-5.96823e-08
-1.73017e-07
-5.99988e-08
-1.37184e-07
-5.65013e-08
-1.02951e-07
-4.95481e-08
-7.19312e-08
-3.98342e-08
-4.55188e-08
-2.83948e-08
-2.47789e-08
-1.65945e-08
-1.03378e-08
-6.10375e-09
-2.27245e-09
1.12565e-09
2.89578e-09
-4.75073e-09
2.1831e-09
-2.00496e-08
1.50675e-08
-4.60324e-08
3.34011e-08
-8.19573e-08
5.40703e-08
-1.26384e-07
7.44113e-08
-1.77338e-07
9.22294e-08
-2.32474e-07
1.05812e-07
-2.89226e-07
1.1394e-07
-3.44958e-07
1.15892e-07
-3.97096e-07
1.11421e-07
-4.43255e-07
1.00721e-07
-4.8134e-07
8.43788e-08
-5.09639e-07
6.33146e-08
-5.26887e-07
3.87166e-08
-5.32321e-07
1.19658e-08
-5.25706e-07
-1.54414e-08
-5.07345e-07
-4.19748e-08
-4.78065e-07
-6.61517e-08
-4.3919e-07
-8.66176e-08
-3.92479e-07
-1.02224e-07
-3.4006e-07
-1.12101e-07
-2.84336e-07
-1.15723e-07
-2.27873e-07
-1.12964e-07
-1.73281e-07
-1.0414e-07
-1.23071e-07
-9.00452e-08
-7.95084e-08
-7.19573e-08
-4.44666e-08
-5.16366e-08
-1.92684e-08
-3.13022e-08
-4.53063e-09
-1.36123e-08
-1.63482e-09
-8.17464e-09
1.03577e-08
-3.33598e-08
4.02526e-08
-7.50234e-08
7.50647e-08
-1.31509e-07
1.10556e-07
-2.00289e-07
1.43192e-07
-2.78198e-07
1.70138e-07
-3.61646e-07
1.89259e-07
-4.46825e-07
1.9912e-07
-5.29906e-07
1.98972e-07
-6.07205e-07
1.88721e-07
-6.75347e-07
1.68863e-07
-7.31393e-07
1.40425e-07
-7.72953e-07
1.04875e-07
-7.98272e-07
6.40351e-08
-8.06288e-07
1.99818e-08
-7.96672e-07
-2.50571e-08
-7.69839e-07
-6.88082e-08
-7.26931e-07
-1.0906e-07
-6.6978e-07
-1.43768e-07
-6.00842e-07
-1.71162e-07
-5.23106e-07
-1.89838e-07
-4.39977e-07
-1.98852e-07
-3.55142e-07
-1.97799e-07
-2.72403e-07
-1.86879e-07
-1.95502e-07
-1.66946e-07
-1.27926e-07
-1.39533e-07
-7.2701e-08
-1.06862e-07
-3.21828e-08
-7.18206e-08
-7.8363e-09
-3.79589e-08
-9.47112e-09
-1.30499e-08
2.34077e-08
-5.21059e-08
7.93085e-08
-1.15547e-07
1.38506e-07
-2.00344e-07
1.95353e-07
-3.02413e-07
2.45261e-07
-4.16929e-07
2.84654e-07
-5.38615e-07
3.10945e-07
-6.62008e-07
3.22512e-07
-7.81704e-07
3.18669e-07
-8.92581e-07
2.99597e-07
-9.89986e-07
2.66269e-07
-1.0699e-06
2.20342e-07
-1.12908e-06
1.64052e-07
-1.16513e-06
1.0009e-07
-1.17663e-06
3.1475e-08
-1.16311e-06
-3.8578e-08
-1.12512e-06
-1.06795e-07
-1.0642e-06
-1.69978e-07
-9.82825e-07
-2.25145e-07
-8.84325e-07
-2.69661e-07
-7.72794e-07
-3.01369e-07
-6.52934e-07
-3.18712e-07
-5.29891e-07
-3.20842e-07
-4.09053e-07
-3.07718e-07
-2.95814e-07
-2.80184e-07
-1.95332e-07
-2.40016e-07
-1.12246e-07
-1.89947e-07
-5.04038e-08
-1.33663e-07
-1.25496e-08
-7.58131e-08
-2.20207e-08
-1.98257e-08
4.32334e-08
-7.79045e-08
1.37387e-07
-1.7093e-07
2.31531e-07
-2.93876e-07
3.183e-07
-4.40483e-07
3.91868e-07
-6.03672e-07
4.47843e-07
-7.75919e-07
4.83192e-07
-9.49598e-07
4.96192e-07
-1.11729e-06
4.86357e-07
-1.27203e-06
4.54341e-07
-1.40757e-06
4.01814e-07
-1.51856e-06
3.31325e-07
-1.60066e-06
2.46155e-07
-1.65073e-06
1.50155e-07
-1.66684e-06
4.75907e-08
-1.64839e-06
-5.7025e-08
-1.59609e-06
-1.59103e-07
-1.51192e-06
-2.54145e-07
-1.39915e-06
-3.37917e-07
-1.26219e-06
-4.06618e-07
-1.10651e-06
-4.5705e-07
-9.38445e-07
-4.86777e-07
-7.65009e-07
-4.94278e-07
-5.93641e-07
-4.79086e-07
-4.31922e-07
-4.41903e-07
-2.87247e-07
-3.84691e-07
-1.66477e-07
-3.10717e-07
-7.55593e-08
-2.2458e-07
-1.91184e-08
-1.32254e-07
-4.11391e-08
-2.90354e-08
7.22688e-08
-1.12649e-07
2.21001e-07
-2.45022e-07
3.63904e-07
-4.18305e-07
4.91582e-07
-6.23256e-07
5.96819e-07
-8.49794e-07
6.74381e-07
-1.08747e-06
7.20869e-07
-1.3259e-06
7.34619e-07
-1.55511e-06
7.15573e-07
-1.7659e-06
6.6513e-07
-1.95006e-06
5.85968e-07
-2.10059e-06
4.81853e-07
-2.21188e-06
3.57454e-07
-2.27987e-06
2.18137e-07
-2.30205e-06
6.97745e-08
-2.27761e-06
-8.14616e-08
-2.20742e-06
-2.29296e-07
-2.09401e-06
-3.67559e-07
-1.94154e-06
-4.90387e-07
-1.75571e-06
-5.92441e-07
-1.54365e-06
-6.6911e-07
-1.3137e-06
-7.16731e-07
-1.07519e-06
-7.32785e-07
-8.38175e-07
-7.16102e-07
-6.13053e-07
-6.67025e-07
-4.10181e-07
-5.87563e-07
-2.39413e-07
-4.81484e-07
-1.09611e-07
-3.54383e-07
-2.80891e-08
-2.13775e-07
-6.92282e-08
-4.12923e-08
1.13561e-07
-1.58477e-07
3.38186e-07
-3.42109e-07
5.47536e-07
-5.8042e-07
7.29893e-07
-8.60172e-07
8.76571e-07
-1.16736e-06
9.81566e-07
-1.4878e-06
1.04131e-06
-1.80766e-06
1.05448e-06
-2.11389e-06
1.0218e-06
-2.39455e-06
9.45793e-07
-2.63913e-06
8.30554e-07
-2.83876e-06
6.81481e-07
-2.98635e-06
5.05042e-07
-3.07674e-06
3.08527e-07
-3.10678e-06
9.98151e-08
-3.07539e-06
-1.12854e-07
-2.98357e-06
-3.21111e-07
-2.83444e-06
-5.16692e-07
-2.63316e-06
-6.91673e-07
-2.38687e-06
-8.38726e-07
-2.10461e-06
-9.51373e-07
-1.79708e-06
-1.02426e-06
-1.47644e-06
-1.05343e-06
-1.15595e-06
-1.03659e-06
-8.49603e-07
-9.73374e-07
-5.71583e-07
-8.65584e-07
-3.35727e-07
-7.1734e-07
-1.5487e-07
-5.3524e-07
-4.0116e-08
-3.28529e-07
-1.09344e-07
-5.72768e-08
1.70838e-07
-2.17707e-07
4.98616e-07
-4.66726e-07
7.96555e-07
-7.8724e-07
1.05041e-06
-1.16073e-06
1.25006e-06
-1.56816e-06
1.38899e-06
-1.99069e-06
1.46384e-06
-2.41031e-06
1.4741e-06
-2.81031e-06
1.42179e-06
-3.17563e-06
1.31112e-06
-3.49318e-06
1.14811e-06
-3.752e-06
9.40301e-07
-3.9434e-06
6.96444e-07
-4.06107e-06
4.26191e-07
-4.10111e-06
1.39855e-07
-4.06212e-06
-1.51844e-07
-3.9452e-06
-4.38026e-07
-3.754e-06
-7.07893e-07
-3.49468e-06
-9.50992e-07
-3.17592e-06
-1.15749e-06
-2.80879e-06
-1.3185e-06
-2.40668e-06
-1.42637e-06
-1.985e-06
-1.47511e-06
-1.56089e-06
-1.4607e-06
-1.15275e-06
-1.38151e-06
-7.79667e-07
-1.23867e-06
-4.60685e-07
-1.03632e-06
-2.13998e-07
-7.81927e-07
-5.59692e-08
-4.86558e-07
-1.65313e-07
-7.77176e-08
2.48555e-07
-2.92729e-07
7.13627e-07
-6.23386e-07
1.12721e-06
-1.04545e-06
1.47247e-06
-1.53353e-06
1.73815e-06
-2.06225e-06
1.91771e-06
-2.60709e-06
2.00868e-06
-3.14514e-06
2.01215e-06
-3.65554e-06
1.93219e-06
-4.11987e-06
1.77545e-06
-4.52233e-06
1.55057e-06
-4.84986e-06
1.26784e-06
-5.09222e-06
9.38798e-07
-5.24194e-06
5.75913e-07
-5.29441e-06
1.92321e-07
-5.24783e-06
-1.98418e-07
-5.10331e-06
-5.82546e-07
-4.86487e-06
-9.46337e-07
-4.53951e-06
-1.27635e-06
-4.1373e-06
-1.55971e-06
-3.67133e-06
-1.78446e-06
-3.15775e-06
-1.93995e-06
-2.61555e-06
-2.01731e-06
-2.06632e-06
-2.00993e-06
-1.53377e-06
-1.91407e-06
-1.04307e-06
-1.72936e-06
-6.20035e-07
-1.45936e-06
-2.89993e-07
-1.11197e-06
-7.6543e-08
-7.00008e-07
-2.41856e-07
-1.03375e-07
3.51931e-07
-3.85902e-07
9.96154e-07
-8.16239e-07
1.55755e-06
-1.36065e-06
2.01688e-06
-1.9849e-06
2.3624e-06
-2.65573e-06
2.58854e-06
-3.34193e-06
2.69488e-06
-4.01503e-06
2.68525e-06
-4.64983e-06
2.56699e-06
-5.22456e-06
2.35017e-06
-5.72095e-06
2.04696e-06
-6.12418e-06
1.67107e-06
-6.42275e-06
1.23736e-06
-6.60833e-06
7.61489e-07
-6.67568e-06
2.59676e-07
-6.62263e-06
-2.51466e-07
-6.45008e-06
-7.55101e-07
-6.16209e-06
-1.23432e-06
-5.76609e-06
-1.67235e-06
-5.27303e-06
-2.05277e-06
-4.69762e-06
-2.35987e-06
-4.05846e-06
-2.57911e-06
-3.3781e-06
-2.69766e-06
-2.68294e-06
-2.70509e-06
-2.00279e-06
-2.59421e-06
-1.37028e-06
-2.36187e-06
-8.19804e-07
-2.00984e-06
-3.86164e-07
-1.54561e-06
-1.02872e-07
-9.833e-07
-3.44728e-07
-1.35055e-07
4.86986e-07
-4.99489e-07
1.36059e-06
-1.04875e-06
2.1068e-06
-1.73647e-06
2.7046e-06
-2.51712e-06
3.14305e-06
-3.34783e-06
3.41926e-06
-4.1897e-06
3.53675e-06
-5.00845e-06
3.504e-06
-5.77475e-06
3.33329e-06
-6.46413e-06
3.03955e-06
-7.05671e-06
2.63954e-06
-7.53679e-06
2.15115e-06
-7.89243e-06
1.59301e-06
-8.11508e-06
9.84133e-07
-8.19926e-06
3.43854e-07
-8.14244e-06
-3.08279e-07
-7.94506e-06
-9.52482e-07
-7.61065e-06
-1.56873e-06
-7.14619e-06
-2.13682e-06
-6.56249e-06
-2.63646e-06
-5.87479e-06
-3.04758e-06
-5.10319e-06
-3.35072e-06
-4.27311e-06
-3.52773e-06
-3.41557e-06
-3.56264e-06
-2.56699e-06
-3.44279e-06
-1.76875e-06
-3.16011e-06
-1.06602e-06
-2.71256e-06
-5.06129e-07
-2.1055e-06
-1.36168e-07
-1.35326e-06
-4.80896e-07
-1.73709e-07
6.60695e-07
-6.35809e-07
1.82269e-06
-1.32356e-06
2.79455e-06
-2.17371e-06
3.55475e-06
-3.12623e-06
4.09557e-06
-4.12681e-06
4.41984e-06
-5.12818e-06
4.53812e-06
-6.09068e-06
4.4665e-06
-6.982e-06
4.22461e-06
-7.77662e-06
3.83417e-06
-8.45487e-06
3.31779e-06
-9.002e-06
2.69828e-06
-9.40723e-06
1.99824e-06
-9.66298e-06
1.23989e-06
-9.7643e-06
4.45167e-07
-9.7085e-06
-3.64072e-07
-9.49518e-06
-1.1658e-06
-9.12643e-06
-1.93749e-06
-8.60736e-06
-2.65588e-06
-7.94686e-06
-3.29695e-06
-7.15859e-06
-3.83585e-06
-6.26205e-06
-4.24726e-06
-5.28372e-06
-4.50607e-06
-4.25795e-06
-4.58841e-06
-3.22753e-06
-4.47321e-06
-2.24354e-06
-4.1441e-06
-1.36442e-06
-3.59169e-06
-6.53917e-07
-2.816e-06
-1.77927e-07
-1.82925e-06
-6.58823e-07
-2.2075e-07
8.81445e-07
-7.9786e-07
2.3998e-06
-1.64289e-06
3.63958e-06
-2.6695e-06
4.58136e-06
-3.79912e-06
5.2252e-06
-4.96417e-06
5.58489e-06
-6.10929e-06
5.68324e-06
-7.19115e-06
5.54835e-06
-8.17727e-06
5.21073e-06
-9.04433e-06
4.70123e-06
-9.77626e-06
4.04971e-06
-1.03624e-05
3.28438e-06
-1.07956e-05
2.43152e-06
-1.10715e-05
1.51575e-06
-1.11868e-05
5.60464e-07
-1.11392e-05
-4.11689e-07
-1.09269e-05
-1.37806e-06
-1.05493e-05
-2.31508e-06
-1.00076e-05
-3.19758e-06
-9.30609e-06
-3.9985e-06
-8.45333e-06
-4.6886e-06
-7.46445e-06
-5.23615e-06
-6.36323e-06
-5.60729e-06
-5.18425e-06
-5.76738e-06
-3.97469e-06
-5.68277e-06
-2.79528e-06
-5.32351e-06
-1.72006e-06
-4.66691e-06
-8.34297e-07
-3.70177e-06
-2.30182e-07
-2.43337e-06
-8.89005e-07
-2.78823e-07
1.16027e-06
-9.90851e-07
3.11183e-06
-2.00958e-06
4.65831e-06
-3.21625e-06
5.78803e-06
-4.50867e-06
6.51762e-06
-5.80505e-06
6.88127e-06
-7.04425e-06
6.92243e-06
-8.18367e-06
6.68778e-06
-9.19614e-06
6.2232e-06
-1.00662e-05
5.57133e-06
-1.07869e-05
4.77033e-06
-1.13561e-05
3.8536e-06
-1.17745e-05
2.8499e-06
-1.20432e-05
1.78446e-06
-1.21627e-05
6.79971e-07
-1.21319e-05
-4.42484e-07
-1.19478e-05
-1.56214e-06
-1.16057e-05
-2.65723e-06
-1.10998e-05
-3.70345e-06
-1.04255e-05
-4.67275e-06
-9.58163e-06
-5.5325e-06
-8.57308e-06
-6.2447e-06
-7.41453e-06
-6.76584e-06
-6.13443e-06
-7.04748e-06
-4.77912e-06
-7.03807e-06
-3.41635e-06
-6.68629e-06
-2.13691e-06
-5.94635e-06
-1.05363e-06
-4.78504e-06
-2.96116e-07
-3.19089e-06
-1.18512e-06
-3.53519e-07
1.51379e-06
-1.22518e-06
3.98349e-06
-2.42845e-06
5.86158e-06
-3.79785e-06
7.15743e-06
-5.20245e-06
7.92221e-06
-6.54859e-06
8.22741e-06
-7.77632e-06
8.15017e-06
-8.85307e-06
7.76452e-06
-9.7666e-06
7.13674e-06
-1.05183e-05
6.323e-06
-1.11172e-05
5.36926e-06
-1.15762e-05
4.31262e-06
-1.19085e-05
3.18214e-06
-1.21244e-05
2.00039e-06
-1.22299e-05
7.85519e-07
-1.22258e-05
-4.46613e-07
-1.21074e-05
-1.68059e-06
-1.18648e-05
-2.89977e-06
-1.14838e-05
-4.08443e-06
-1.09471e-05
-5.20949e-06
-1.02373e-05
-6.24234e-06
-9.34089e-06
-7.14108e-06
-8.25354e-06
-7.8532e-06
-6.98636e-06
-8.31465e-06
-5.57378e-06
-8.45066e-06
-4.08217e-06
-8.17789e-06
-2.61605e-06
-7.41248e-06
-1.32144e-06
-6.07965e-06
-3.81401e-07
-4.13093e-06
-1.56652e-06
-4.57088e-07
1.97087e-06
-1.52087e-06
5.04727e-06
-2.90373e-06
7.24444e-06
-4.37388e-06
8.62758e-06
-5.77109e-06
9.31943e-06
-7.00184e-06
9.45816e-06
-8.02444e-06
9.17277e-06
-8.83329e-06
8.57337e-06
-9.44601e-06
7.74947e-06
-9.89283e-06
6.76982e-06
-1.02083e-05
5.68473e-06
-1.04251e-05
4.52943e-06
-1.05712e-05
3.32821e-06
-1.06678e-05
2.09705e-06
-1.07285e-05
8.4613e-07
-1.07574e-05
-4.17693e-07
-1.07493e-05
-1.68861e-06
-1.06895e-05
-2.95964e-06
-1.05537e-05
-4.22021e-06
-1.03099e-05
-5.45329e-06
-9.91997e-06
-6.63226e-06
-9.34366e-06
-7.71739e-06
-8.54488e-06
-8.65198e-06
-7.5008e-06
-9.35874e-06
-6.21435e-06
-9.73711e-06
-4.72887e-06
-9.66337e-06
-3.14879e-06
-8.99256e-06
-1.6526e-06
-7.57584e-06
-4.97284e-07
-5.28624e-06
-2.0638e-06
-6.14241e-07
2.58512e-06
-1.90672e-06
6.33974e-06
-3.41419e-06
8.75191e-06
-4.8204e-06
1.00338e-05
-5.95741e-06
1.04564e-05
-6.76691e-06
1.02677e-05
-7.26129e-06
9.66716e-06
-7.49111e-06
8.80319e-06
-7.52157e-06
7.77992e-06
-7.41959e-06
6.66784e-06
-7.24734e-06
5.51248e-06
-7.05875e-06
4.34083e-06
-6.89714e-06
3.1666e-06
-6.79435e-06
1.99426e-06
-6.77039e-06
8.22171e-07
-6.8332e-06
-3.54887e-07
-6.97833e-06
-1.54348e-06
-7.18855e-06
-2.74942e-06
-7.43332e-06
-3.97543e-06
-7.66831e-06
-5.21829e-06
-7.83553e-06
-6.46504e-06
-7.86497e-06
-7.68795e-06
-7.6791e-06
-8.83785e-06
-7.20194e-06
-9.83589e-06
-6.37504e-06
-1.0564e-05
-5.18345e-06
-1.0855e-05
-3.68603e-06
-1.049e-05
-2.06381e-06
-9.19806e-06
-6.65927e-07
-6.68413e-06
-2.72973e-06
-8.552e-07
3.44032e-06
-2.37196e-06
7.85651e-06
-3.787e-06
1.01669e-05
-4.72449e-06
1.09713e-05
-5.10256e-06
1.08345e-05
-4.98363e-06
1.01487e-05
-4.4837e-06
9.16722e-06
-3.73148e-06
8.05097e-06
-2.84771e-06
6.89615e-06
-1.93639e-06
5.75653e-06
-1.08176e-06
4.65785e-06
-3.48711e-07
3.60778e-06
2.15265e-07
2.60263e-06
5.77463e-07
1.63207e-06
7.17717e-07
6.81917e-07
6.2699e-07
-2.6416e-07
3.07087e-07
-1.22358e-06
-2.28538e-07
-2.2138e-06
-9.5295e-07
-3.25102e-06
-1.82287e-06
-4.34837e-06
-2.7751e-06
-5.51281e-06
-3.723e-06
-6.74005e-06
-4.55445e-06
-8.00641e-06
-5.13386e-06
-9.25648e-06
-5.31284e-06
-1.0385e-05
-4.95669e-06
-1.12111e-05
-3.99372e-06
-1.14529e-05
-2.51214e-06
-1.06796e-05
-9.07373e-07
-8.28889e-06
-3.6371e-06
-1.16982e-06
4.61014e-06
-2.62969e-06
9.31638e-06
-3.20983e-06
1.07471e-05
-2.76312e-06
1.05246e-05
-1.5158e-06
9.58719e-06
2.49554e-07
8.38337e-06
2.27954e-06
7.13724e-06
4.37338e-06
5.95713e-06
6.38264e-06
4.88689e-06
8.20408e-06
3.93508e-06
9.76987e-06
3.09206e-06
1.10373e-05
2.34034e-06
1.19801e-05
1.65985e-06
1.25822e-05
1.02992e-06
1.28341e-05
4.30054e-07
1.27301e-05
-1.60145e-07
1.22678e-05
-7.613e-07
1.1449e-05
-1.39498e-06
1.02815e-05
-2.08354e-06
8.78369e-06
-2.85057e-06
6.99109e-06
-3.72021e-06
4.96571e-06
-4.71467e-06
2.80807e-06
-5.84876e-06
6.7061e-07
-7.11902e-06
-1.23128e-06
-8.48315e-06
-2.61735e-06
-9.82504e-06
-3.17405e-06
-1.08962e-05
-2.65083e-06
-1.12029e-05
-1.19376e-06
-9.74597e-06
-4.83086e-06
-1.72915e-06
6.33929e-06
-1.19907e-06
8.78629e-06
1.45193e-06
8.09609e-06
5.1253e-06
6.8512e-06
9.12908e-06
5.58342e-06
1.3065e-05
4.44746e-06
1.67099e-05
3.49234e-06
1.99493e-05
2.71772e-06
2.27368e-05
2.09941e-06
2.50657e-05
1.60614e-06
2.69488e-05
1.20899e-06
2.84058e-05
8.83369e-07
2.94566e-05
6.08989e-07
3.01175e-05
3.69061e-07
3.03982e-05
1.49331e-07
3.03012e-05
-6.31231e-08
2.98202e-05
-2.80342e-07
2.89422e-05
-5.16963e-07
2.76457e-05
-7.87006e-07
2.59036e-05
-1.10849e-06
2.36872e-05
-1.50383e-06
2.0973e-05
-2.00048e-06
1.77554e-05
-2.63112e-06
1.40676e-05
-3.43122e-06
1.00148e-05
-4.43033e-06
5.82242e-06
-5.63268e-06
1.9117e-06
-6.98552e-06
-9.75326e-07
-8.31583e-06
-1.67887e-06
-9.04242e-06
-6.50973e-06
6.33929e-06
1.51256e-05
2.32217e-05
3.00729e-05
3.56563e-05
4.01037e-05
4.35961e-05
4.63138e-05
4.84132e-05
5.00194e-05
5.12283e-05
5.21117e-05
5.27207e-05
5.30898e-05
5.32391e-05
5.3176e-05
5.28956e-05
5.23787e-05
5.15917e-05
5.04832e-05
4.89793e-05
4.69788e-05
4.43477e-05
4.09165e-05
3.64862e-05
3.08535e-05
2.3868e-05
1.55522e-05
6.50973e-06
)
;

boundaryField
{
    movingWall
    {
        type            calculated;
        value           uniform 0;
    }
    fixedWalls
    {
        type            calculated;
        value           uniform 0;
    }
    frontAndBack
    {
        type            empty;
    }
}


// ************************************************************************* //
