/*--------------------------------*- C++ -*----------------------------------*\
  =========                 |
  \\      /  F ield         | OpenFOAM: The Open Source CFD Toolbox
   \\    /   O peration     | Website:  https://openfoam.org
    \\  /    A nd           | Version:  12
     \\/     M anipulation  |
\*---------------------------------------------------------------------------*/
FoamFile
{
    format      ascii;
    class       volVectorField;
    location    "0.3";
    object      U;
}
// * * * * * * * * * * * * * * * * * * * * * * * * * * * * * * * * * * * * * //

dimensions      [0 1 -1 0 0 0 0];

internalField   nonuniform List<vector> 
900
(
(-1.8685e-07 6.0949e-07 0)
(4.58944e-06 -1.68924e-06 0)
(1.59409e-05 -4.67815e-06 0)
(3.3209e-05 -7.12131e-06 0)
(5.4663e-05 -8.75011e-06 0)
(7.85401e-05 -9.59209e-06 0)
(0.000103296 -9.76428e-06 0)
(0.00012764 -9.40722e-06 0)
(0.000150542 -8.65574e-06 0)
(0.000171215 -7.62508e-06 0)
(0.000189084 -6.4068e-06 0)
(0.000203748 -5.06927e-06 0)
(0.00021494 -3.66062e-06 0)
(0.000222493 -2.21266e-06 0)
(0.000226311 -7.45323e-07 0)
(0.000226348 7.28583e-07 0)
(0.0002226 2.1985e-06 0)
(0.000215105 3.65131e-06 0)
(0.000203955 5.06641e-06 0)
(0.000189313 6.41112e-06 0)
(0.000171444 7.63627e-06 0)
(0.000150752 8.67245e-06 0)
(0.000127813 9.42716e-06 0)
(0.000103422 9.78443e-06 0)
(7.86174e-05 9.60913e-06 0)
(5.46965e-05 8.76087e-06 0)
(3.32113e-05 7.12356e-06 0)
(1.59287e-05 4.67154e-06 0)
(4.5774e-06 1.67692e-06 0)
(-1.90378e-07 -6.19256e-07 0)
(1.82994e-06 -1.03467e-05 0)
(1.9021e-05 -3.46488e-05 0)
(4.95429e-05 -5.7156e-05 0)
(9.09519e-05 -7.46539e-05 0)
(0.00013943 -8.61929e-05 0)
(0.000191658 -9.19506e-05 0)
(0.000244817 -9.26043e-05 0)
(0.000296533 -8.90206e-05 0)
(0.000344875 -8.20884e-05 0)
(0.000388348 -7.26256e-05 0)
(0.000425847 -6.13313e-05 0)
(0.000456587 -4.87694e-05 0)
(0.000480041 -3.53735e-05 0)
(0.000495875 -2.14644e-05 0)
(0.000503891 -7.27691e-06 0)
(0.000503997 7.00678e-06 0)
(0.000496183 2.12216e-05 0)
(0.000480524 3.51822e-05 0)
(0.000457202 4.86477e-05 0)
(0.000426543 6.1289e-05 0)
(0.000389068 7.26631e-05 0)
(0.000345562 8.21959e-05 0)
(0.000297141 8.91796e-05 0)
(0.000245313 9.27898e-05 0)
(0.000192023 9.21341e-05 0)
(0.000139668 8.63473e-05 0)
(9.108e-05 7.47581e-05 0)
(4.95929e-05 5.72013e-05 0)
(1.90291e-05 3.46451e-05 0)
(1.82819e-06 1.03271e-05 0)
(2.97258e-06 -3.51537e-05 0)
(2.89857e-05 -9.72038e-05 0)
(7.23156e-05 -0.000147477 0)
(0.00012866 -0.000184002 0)
(0.000192405 -0.000206746 0)
(0.000259233 -0.000216833 0)
(0.000325786 -0.000215967 0)
(0.000389383 -0.000206075 0)
(0.000447948 -0.000189068 0)
(0.000499953 -0.000166688 0)
(0.000544338 -0.000140426 0)
(0.000580415 -0.000111488 0)
(0.000607768 -8.07972e-05 0)
(0.000626168 -4.90346e-05 0)
(0.000635497 -1.6691e-05 0)
(0.000635702 1.5859e-05 0)
(0.000626764 4.82779e-05 0)
(0.000608708 8.01828e-05 0)
(0.000581622 0.000111067 0)
(0.000545718 0.000140229 0)
(0.000501401 0.000166719 0)
(0.000449362 0.000189307 0)
(0.00039067 0.000206478 0)
(0.000326874 0.00021647 0)
(0.000260078 0.000217364 0)
(0.000192996 0.000207232 0)
(0.000129018 0.000184381 0)
(7.24868e-05 0.000147713 0)
(2.90363e-05 9.72987e-05 0)
(2.9728e-06 3.51549e-05 0)
(3.54479e-06 -6.76104e-05 0)
(3.37959e-05 -0.000176403 0)
(8.27162e-05 -0.000258377 0)
(0.000144553 -0.000314379 0)
(0.000212394 -0.000346614 0)
(0.000281305 -0.000358135 0)
(0.000347803 -0.00035238 0)
(0.000409405 -0.000332825 0)
(0.000464444 -0.000302726 0)
(0.000511931 -0.000264946 0)
(0.000551397 -0.000221857 0)
(0.000582743 -0.000175307 0)
(0.00060608 -0.000126642 0)
(0.000621607 -7.67772e-05 0)
(0.000629506 -2.62964e-05 0)
(0.000629872 2.4421e-05 0)
(0.000622676 7.50596e-05 0)
(0.00060777 0.000125224 0)
(0.000584926 0.000174299 0)
(0.00055391 0.000221328 0)
(0.000514592 0.000264914 0)
(0.00046707 0.000303156 0)
(0.000411828 0.000333634 0)
(0.000349887 0.000353446 0)
(0.000282961 0.000359309 0)
(0.000213586 0.000347742 0)
(0.0001453 0.000315322 0)
(8.30928e-05 0.000259037 0)
(3.39187e-05 0.000176745 0)
(3.54888e-06 6.76812e-05 0)
(3.80151e-06 -0.000102825 0)
(3.42742e-05 -0.000259999 0)
(8.14299e-05 -0.000372035 0)
(0.000138478 -0.000443584 0)
(0.00019789 -0.000480188 0)
(0.000254691 -0.000487811 0)
(0.000305842 -0.000472414 0)
(0.000349668 -0.000439599 0)
(0.000385551 -0.000394335 0)
(0.000413681 -0.000340783 0)
(0.000434802 -0.000282209 0)
(0.000449957 -0.000220977 0)
(0.000460268 -0.000158616 0)
(0.000466737 -9.59443e-05 0)
(0.000470103 -3.32446e-05 0)
(0.000470737 2.95293e-05 0)
(0.000468591 9.25255e-05 0)
(0.000463205 0.000155762 0)
(0.000453763 0.0002189 0)
(0.000439202 0.000281047 0)
(0.000418368 0.000340582 0)
(0.000390208 0.000395046 0)
(0.000354003 0.000441082 0)
(0.000309611 0.000474449 0)
(0.000257724 0.000490124 0)
(0.000200107 0.000482485 0)
(0.000139897 0.000445586 0)
(8.21646e-05 0.000373522 0)
(3.45263e-05 0.000260849 0)
(3.81449e-06 0.000103053 0)
(3.75993e-06 -0.000136724 0)
(3.01304e-05 -0.000336227 0)
(6.69686e-05 -0.000469872 0)
(0.000106773 -0.00054733 0)
(0.000142169 -0.000578677 0)
(0.000168924 -0.000573858 0)
(0.000185254 -0.000542226 0)
(0.000191137 -0.000492132 0)
(0.000187872 -0.000430639 0)
(0.000177677 -0.000363343 0)
(0.000163302 -0.000294318 0)
(0.000147652 -0.000226165 0)
(0.000133461 -0.000160148 0)
(0.00012301 -9.64175e-05 0)
(0.000117915 -3.42899e-05 0)
(0.000118981 2.74266e-05 0)
(0.000126132 9.00797e-05 0)
(0.000138417 0.000154813 0)
(0.000154091 0.000222219 0)
(0.000170775 0.000292017 0)
(0.000185675 0.000362789 0)
(0.000195866 0.000431768 0)
(0.00019863 0.000494717 0)
(0.000191822 0.000545896 0)
(0.000174262 0.000578136 0)
(0.000146117 0.00058303 0)
(0.000109336 0.000551235 0)
(6.83238e-05 0.00047288 0)
(3.06122e-05 0.000338042 0)
(3.79099e-06 0.000137271 0)
(3.34277e-06 -0.000164458 0)
(1.99937e-05 -0.000390485 0)
(3.5244e-05 -0.000528166 0)
(4.12298e-05 -0.000593972 0)
(3.17246e-05 -0.000604078 0)
(4.30219e-06 -0.000573717 0)
(-4.04409e-05 -0.000516638 0)
(-9.96856e-05 -0.000444631 0)
(-0.000169026 -0.000367212 0)
(-0.00024306 -0.000291456 0)
(-0.00031596 -0.000221998 0)
(-0.000382006 -0.000161166 0)
(-0.000436056 -0.000109237 0)
(-0.000473931 -6.47961e-05 0)
(-0.000492719 -2.51707e-05 0)
(-0.000490975 1.30704e-05 0)
(-0.00046882 5.35897e-05 0)
(-0.00042793 9.97415e-05 0)
(-0.000371421 0.000154048 0)
(-0.000303631 0.000217717 0)
(-0.000229809 0.000290216 0)
(-0.000155711 0.000368938 0)
(-8.71267e-05 0.000448973 0)
(-2.93485e-05 0.000522991 0)
(1.33958e-05 0.000581282 0)
(3.85203e-05 0.000611932 0)
(4.56987e-05 0.000601173 0)
(3.76454e-05 0.000533867 0)
(2.08706e-05 0.000394054 0)
(3.40653e-06 0.000165611 0)
(2.36492e-06 -0.000179335 0)
(1.35203e-06 -0.000402728 0)
(-2.07396e-05 -0.000514394 0)
(-7.1604e-05 -0.000540135 0)
(-0.000154908 -0.000504322 0)
(-0.000269776 -0.000429125 0)
(-0.000411661 -0.000333891 0)
(-0.000573274 -0.000234608 0)
(-0.000745469 -0.00014355 0)
(-0.000918097 -6.91654e-05 0)
(-0.00108082 -1.61573e-05 0)
(-0.00122383 1.42442e-05 0)
(-0.00133854 2.38597e-05 0)
(-0.00141804 1.70042e-05 0)
(-0.00145758 -1.68922e-07 0)
(-0.00145481 -2.04035e-05 0)
(-0.00140992 -3.61078e-05 0)
(-0.0013256 -4.0144e-05 0)
(-0.00120694 -2.65925e-05 0)
(-0.00106108 8.53255e-06 0)
(-0.000896788 6.6648e-05 0)
(-0.000723943 0.000146076 0)
(-0.000552844 0.000241656 0)
(-0.000393485 0.000344514 0)
(-0.000254749 0.000442021 0)
(-0.000143567 0.000517952 0)
(-6.4059e-05 0.000552868 0)
(-1.66264e-05 0.000524694 0)
(2.88646e-06 0.00040936 0)
(2.48484e-06 0.000181583 0)
(5.3329e-07 -0.000171647 0)
(-2.95639e-05 -0.000344415 0)
(-0.000111266 -0.000382756 0)
(-0.00025121 -0.000325225 0)
(-0.000448428 -0.000207119 0)
(-0.000696621 -5.96055e-05 0)
(-0.000985117 9.0943e-05 0)
(-0.00129993 0.000223548 0)
(-0.00162499 0.000322965 0)
(-0.00194332 0.000379722 0)
(-0.00223815 0.000389887 0)
(-0.00249397 0.0003546 0)
(-0.00269732 0.000279408 0)
(-0.00283754 0.000173435 0)
(-0.00290732 4.84278e-05 0)
(-0.00290307 -8.2301e-05 0)
(-0.00282504 -0.000204969 0)
(-0.00267738 -0.000306441 0)
(-0.00246786 -0.000375324 0)
(-0.00220753 -0.000402992 0)
(-0.00191011 -0.000384518 0)
(-0.00159126 -0.00031946 0)
(-0.00126772 -0.00021248 0)
(-0.000956243 -7.37495e-05 0)
(-0.000672546 8.08798e-05 0)
(-0.000430081 0.00022998 0)
(-0.000238867 0.000346948 0)
(-0.000104446 0.000400667 0)
(-2.69703e-05 0.000356221 0)
(7.46948e-07 0.000175796 0)
(-2.57639e-06 -0.000127346 0)
(-7.79859e-05 -0.000175016 0)
(-0.000250438 -6.89846e-05 0)
(-0.000524077 0.000134992 0)
(-0.000890268 0.000387253 0)
(-0.00133431 0.00064514 0)
(-0.00183642 0.000873641 0)
(-0.00237295 0.001046 0)
(-0.00291797 0.00114401 0)
(-0.00344496 0.00115787 0)
(-0.0039283 0.00108575 0)
(-0.00434457 0.000933048 0)
(-0.00467373 0.000711342 0)
(-0.00490001 0.000437233 0)
(-0.00501265 0.000130967 0)
(-0.00500633 -0.000185031 0)
(-0.00488146 -0.000487691 0)
(-0.00464406 -0.000754847 0)
(-0.0043056 -0.000966758 0)
(-0.00388241 -0.00110756 0)
(-0.00339496 -0.00116657 0)
(-0.00286688 -0.00113947 0)
(-0.00232382 -0.00102921 0)
(-0.00179204 -0.000846689 0)
(-0.00129697 -0.000611136 0)
(-0.000861533 -0.000350109 0)
(-0.000504523 -9.91176e-05 0)
(-0.000239487 9.90914e-05 0)
(-7.37433e-05 0.000195276 0)
(-2.20862e-06 0.000134687 0)
(-7.54053e-06 -2.6488e-05 0)
(-0.000150858 0.000162085 0)
(-0.000456807 0.000515698 0)
(-0.00092481 0.000955824 0)
(-0.00153424 0.00141426 0)
(-0.00225786 0.00183397 0)
(-0.00306278 0.00216957 0)
(-0.00391172 0.0023879 0)
(-0.00476515 0.00246813 0)
(-0.0055835 0.00240138 0)
(-0.00632916 0.00218996 0)
(-0.00696815 0.00184615 0)
(-0.00747163 0.00139079 0)
(-0.00781705 0.000851586 0)
(-0.00798904 0.000261192 0)
(-0.00798006 -0.000344768 0)
(-0.00779061 -0.000929796 0)
(-0.00742926 -0.00145862 0)
(-0.0069123 -0.00189928 0)
(-0.00626309 -0.0022251 0)
(-0.00551109 -0.00241655 0)
(-0.00469067 -0.00246285 0)
(-0.00383953 -0.00236338 0)
(-0.002997 -0.00212872 0)
(-0.00220199 -0.00178133 0)
(-0.00149077 -0.00135578 0)
(-0.000894875 -0.000898409 0)
(-0.000439805 -0.000466678 0)
(-0.000144143 -0.000128444 0)
(-6.92672e-06 3.90165e-05 0)
(-1.51211e-05 0.000158599 0)
(-0.000257125 0.00074433 0)
(-0.000754045 0.00149151 0)
(-0.00149725 0.00229208 0)
(-0.00244809 0.00305444 0)
(-0.00356119 0.00370398 0)
(-0.00478526 0.00418331 0)
(-0.00606431 0.00445254 0)
(-0.00734038 0.00448918 0)
(-0.0085565 0.00428729 0)
(-0.00965918 0.00385624 0)
(-0.0106006 0.00321895 0)
(-0.0113404 0.00240984 0)
(-0.0118473 0.0014725 0)
(-0.0121 0.000457171 0)
(-0.0120878 -0.000581994 0)
(-0.0118115 -0.00158965 0)
(-0.0112829 -0.00251209 0)
(-0.0105244 -0.00329999 0)
(-0.00956847 -0.0039111 0)
(-0.00845639 -0.00431275 0)
(-0.00723657 -0.00448412 0)
(-0.00596276 -0.00441826 0)
(-0.00469178 -0.00412362 0)
(-0.00348089 -0.00362526 0)
(-0.00238485 -0.00296534 0)
(-0.00145311 -0.00220309 0)
(-0.000728588 -0.00141419 0)
(-0.000246864 -0.000690229 0)
(-1.41311e-05 -0.000137919 0)
(-2.63024e-05 0.000465443 0)
(-0.000407993 0.00167537 0)
(-0.0011715 0.00301781 0)
(-0.00229534 0.0043473 0)
(-0.00371459 0.00554339 0)
(-0.00535832 0.00651072 0)
(-0.00715001 0.00717854 0)
(-0.00900849 0.00750065 0)
(-0.0108514 0.00745472 0)
(-0.0125991 0.0070409 0)
(-0.0141775 0.0062798 0)
(-0.0155211 0.00521 0)
(-0.0165748 0.00388524 0)
(-0.0172963 0.00237125 0)
(-0.0176564 0.000742412 0)
(-0.017641 -0.000921734 0)
(-0.0172508 -0.00254011 0)
(-0.0165015 -0.0040337 0)
(-0.0154234 -0.00532921 0)
(-0.0140604 -0.00636253 0)
(-0.0124686 -0.00708213 0)
(-0.0107147 -0.00745217 0)
(-0.00887313 -0.00745531 0)
(-0.00702379 -0.00709503 0)
(-0.00524839 -0.00639745 0)
(-0.00362672 -0.00541247 0)
(-0.00223304 -0.00421404 0)
(-0.00113493 -0.00289984 0)
(-0.000392918 -0.00159116 0)
(-2.47653e-05 -0.000432414 0)
(-4.23223e-05 0.000943807 0)
(-0.000617124 0.00309091 0)
(-0.00174453 0.00530129 0)
(-0.00338344 0.00738322 0)
(-0.00543169 0.00918181 0)
(-0.00778313 0.010578 0)
(-0.0103273 0.0114874 0)
(-0.01295 0.0118588 0)
(-0.0155372 0.0116734 0)
(-0.0179803 0.010942 0)
(-0.0201792 0.0097024 0)
(-0.0220464 0.00801545 0)
(-0.0235085 0.00596158 0)
(-0.0245093 0.00363657 0)
(-0.0250104 0.00114719 0)
(-0.0249928 -0.0013932 0)
(-0.024457 -0.00386917 0)
(-0.0234236 -0.0061679 0)
(-0.0219322 -0.00818368 0)
(-0.0200407 -0.0098225 0)
(-0.0178238 -0.0110064 0)
(-0.0153706 -0.0116778 0)
(-0.0127822 -0.0118032 0)
(-0.010168 -0.0113766 0)
(-0.00764175 -0.0104224 0)
(-0.00531648 -0.00899728 0)
(-0.0033001 -0.00719124 0)
(-0.00169455 -0.00512774 0)
(-0.000595969 -0.00296435 0)
(-4.00337e-05 -0.000892825 0)
(-6.47003e-05 0.00165822 0)
(-0.000900687 0.00516472 0)
(-0.00251437 0.00860397 0)
(-0.00483575 0.0117287 0)
(-0.00771105 0.0143442 0)
(-0.0109866 0.0163062 0)
(-0.0145073 0.0175173 0)
(-0.0181162 0.017925 0)
(-0.0216594 0.0175192 0)
(-0.0249922 0.0163283 0)
(-0.0279828 0.0144149 0)
(-0.0305165 0.011871 0)
(-0.0324984 0.00881298 0)
(-0.0338553 0.00537626 0)
(-0.0345377 0.00171003 0)
(-0.0345208 -0.00202836 0)
(-0.0338047 -0.00567887 0)
(-0.0324151 -0.00908447 0)
(-0.0304024 -0.0120968 0)
(-0.0278412 -0.0145817 0)
(-0.0248281 -0.0164252 0)
(-0.0214798 -0.0175388 0)
(-0.01793 -0.0178646 0)
(-0.0143253 -0.0173806 0)
(-0.0108203 -0.0161045 0)
(-0.00757163 -0.014097 0)
(-0.00473199 -0.0114645 0)
(-0.00245032 -0.00835914 0)
(-0.000872643 -0.00498177 0)
(-6.14506e-05 -0.00158238 0)
(-9.5254e-05 0.00269052 0)
(-0.0012772 0.00811418 0)
(-0.00352737 0.0132501 0)
(-0.00673433 0.0177864 0)
(-0.0106742 0.0214848 0)
(-0.0151302 0.0241759 0)
(-0.0198899 0.0257531 0)
(-0.0247425 0.0261691 0)
(-0.029485 0.0254306 0)
(-0.0339288 0.0235931 0)
(-0.0379045 0.0207548 0)
(-0.041266 0.0170498 0)
(-0.0438931 0.0126417 0)
(-0.0456935 0.00771713 0)
(-0.0466046 0.00247925 0)
(-0.0465946 -0.00285892 0)
(-0.0456629 -0.00808092 0)
(-0.0438403 -0.0129735 0)
(-0.0411891 -0.0173333 0)
(-0.037802 -0.0209739 0)
(-0.0338009 -0.0237328 0)
(-0.0293347 -0.0254785 0)
(-0.0245757 -0.0261177 0)
(-0.0197163 -0.0256022 0)
(-0.0149622 -0.0239348 0)
(-0.0105257 -0.0211751 0)
(-0.00661845 -0.0174431 0)
(-0.00345251 -0.0129218 0)
(-0.00124278 -0.00786157 0)
(-9.0897e-05 -0.00258231 0)
(-0.000136102 0.00414209 0)
(-0.0017671 0.0122046 0)
(-0.00483336 0.0196305 0)
(-0.00916526 0.0260356 0)
(-0.0144453 0.0311372 0)
(-0.0203748 0.0347446 0)
(-0.0266686 0.0367504 0)
(-0.0330497 0.0371227 0)
(-0.0392563 0.0358981 0)
(-0.0450489 0.0331728 0)
(-0.0502155 0.0290941 0)
(-0.054575 0.0238521 0)
(-0.0579798 0.0176711 0)
(-0.0603169 0.0108018 0)
(-0.0615095 0.00351399 0)
(-0.061518 -0.00391103 0)
(-0.0603398 -0.0111876 0)
(-0.0580106 -0.018033 0)
(-0.054604 -0.0241753 0)
(-0.0502314 -0.0293611 0)
(-0.0450414 -0.0333641 0)
(-0.0392183 -0.0359946 0)
(-0.0329789 -0.0371081 0)
(-0.026569 -0.0366155 0)
(-0.0202569 -0.0344921 0)
(-0.0143246 -0.0307857 0)
(-0.00905987 -0.0256237 0)
(-0.00475868 -0.0192188 0)
(-0.00172964 -0.0118753 0)
(-0.000130691 -0.00399523 0)
(-0.000189669 0.00613569 0)
(-0.00239212 0.0177518 0)
(-0.00648322 0.0282027 0)
(-0.0122129 0.0370281 0)
(-0.0191403 0.0439045 0)
(-0.026862 0.0486308 0)
(-0.0350025 0.0511134 0)
(-0.043206 0.0513537 0)
(-0.0511428 0.0494367 0)
(-0.0585174 0.0455182 0)
(-0.0650722 0.0398128 0)
(-0.0705908 0.0325831 0)
(-0.0748981 0.0241292 0)
(-0.0778612 0.0147798 0)
(-0.0793895 0.00488377 0)
(-0.079435 -0.00519695 0)
(-0.0779923 -0.0150952 0)
(-0.0750994 -0.0244458 0)
(-0.0708391 -0.0328936 0)
(-0.065339 -0.0401021 0)
(-0.058773 -0.0457636 0)
(-0.0513608 -0.0496099 0)
(-0.0433665 -0.0514245 0)
(-0.0350962 -0.0510561 0)
(-0.0268913 -0.0484318 0)
(-0.0191192 -0.0435701 0)
(-0.0121643 -0.0365927 0)
(-0.00643297 -0.0277344 0)
(-0.00236008 -0.0173549 0)
(-0.000183693 -0.00594876 0)
(-0.000258726 0.00881656 0)
(-0.00317474 0.025121 0)
(-0.00852606 0.039485 0)
(-0.0159522 0.0513735 0)
(-0.0248518 0.0604351 0)
(-0.0346888 0.066479 0)
(-0.0449782 0.0694511 0)
(-0.0552731 0.0694143 0)
(-0.0651702 0.0665297 0)
(-0.0743164 0.061039 0)
(-0.0824116 0.0532473 0)
(-0.0892079 0.043509 0)
(-0.0945084 0.0322162 0)
(-0.0981647 0.0197884 0)
(-0.100075 0.00666456 0)
(-0.100185 -0.00670349 0)
(-0.0984838 -0.0198576 0)
(-0.0950084 -0.0323393 0)
(-0.0898442 -0.0436974 0)
(-0.0831284 -0.0534961 0)
(-0.0750528 -0.0613254 0)
(-0.0658666 -0.0668146 0)
(-0.0558789 -0.0696471 0)
(-0.0454577 -0.0695785 0)
(-0.0350261 -0.0664564 0)
(-0.0250527 -0.0602402 0)
(-0.0160424 -0.0510204 0)
(-0.00854514 -0.0390369 0)
(-0.0031649 -0.0246985 0)
(-0.000253482 -0.0085995 0)
(-0.000346586 0.0123534 0)
(-0.0041384 0.0347243 0)
(-0.0110073 0.0540428 0)
(-0.0204411 0.0697109 0)
(-0.0316303 0.0813759 0)
(-0.0438727 0.0888951 0)
(-0.0565539 0.0922969 0)
(-0.0691271 0.0917497 0)
(-0.0811155 0.0875325 0)
(-0.0921158 0.0800082 0)
(-0.101797 0.0696017 0)
(-0.109893 0.0567816 0)
(-0.116199 0.0420469 0)
(-0.120562 0.0259175 0)
(-0.122878 0.00892776 0)
(-0.123087 -0.00837759 0)
(-0.121173 -0.0254468 0)
(-0.117165 -0.041724 0)
(-0.111141 -0.0566537 0)
(-0.103231 -0.0696871 0)
(-0.09363 -0.0802916 0)
(-0.0826004 -0.0879649 0)
(-0.0704827 -0.0922537 0)
(-0.0577 -0.0927769 0)
(-0.0447588 -0.0892544 0)
(-0.0322417 -0.0815377 0)
(-0.0208004 -0.0696413 0)
(-0.0111696 -0.0537746 0)
(-0.0041798 -0.0343753 0)
(-0.000344695 -0.0121377 0)
(-0.000457726 0.0169407 0)
(-0.00531028 0.0470157 0)
(-0.0139704 0.0724673 0)
(-0.025715 0.092661 0)
(-0.0394631 0.107294 0)
(-0.0543067 0.116338 0)
(-0.0694838 0.119976 0)
(-0.0843467 0.118549 0)
(-0.0983581 0.112514 0)
(-0.111087 0.102406 0)
(-0.122197 0.088805 0)
(-0.131435 0.0723159 0)
(-0.138611 0.0535564 0)
(-0.143592 0.0331485 0)
(-0.146284 0.0117168 0)
(-0.146631 -0.0101105 0)
(-0.144609 -0.0316984 0)
(-0.14023 -0.052402 0)
(-0.133546 -0.0715644 0)
(-0.124657 -0.0885178 0)
(-0.11373 -0.10259 0)
(-0.101009 -0.113116 0)
(-0.086834 -0.11946 0)
(-0.0716601 -0.121044 0)
(-0.0560637 -0.117388 0)
(-0.0407458 -0.108157 0)
(-0.0265295 -0.0932112 0)
(-0.0143855 -0.0726616 0)
(-0.00544808 -0.0469294 0)
(-0.000463771 -0.0167938 0)
(-0.000599428 0.0228063 0)
(-0.00672998 0.0624918 0)
(-0.0174671 0.095346 0)
(-0.0317864 0.120752 0)
(-0.0482496 0.138553 0)
(-0.0656962 0.148948 0)
(-0.0832066 0.152391 0)
(-0.10005 0.149506 0)
(-0.115663 0.141014 0)
(-0.129635 0.127684 0)
(-0.141677 0.110294 0)
(-0.151594 0.0896066 0)
(-0.159261 0.0663584 0)
(-0.164593 0.0412612 0)
(-0.167536 0.0150068 0)
(-0.168051 -0.0117232 0)
(-0.166108 -0.0382436 0)
(-0.161682 -0.0638459 0)
(-0.154777 -0.0877933 0)
(-0.14543 -0.109313 0)
(-0.133729 -0.127586 0)
(-0.119844 -0.141759 0)
(-0.104061 -0.150961 0)
(-0.0868083 -0.154336 0)
(-0.0686938 -0.151101 0)
(-0.0505183 -0.140607 0)
(-0.0332922 -0.122427 0)
(-0.0182806 -0.0964501 0)
(-0.00702736 -0.0629846 0)
(-0.000620571 -0.0228502 0)
(-0.000785775 0.0302345 0)
(-0.00847043 0.0817078 0)
(-0.0215825 0.123227 0)
(-0.0386515 0.154303 0)
(-0.0577613 0.175103 0)
(-0.0774527 0.186258 0)
(-0.0966626 0.188688 0)
(-0.114631 0.183457 0)
(-0.130849 0.171672 0)
(-0.14501 0.154417 0)
(-0.156956 0.132705 0)
(-0.166632 0.107464 0)
(-0.174034 0.0795353 0)
(-0.179184 0.0496837 0)
(-0.182097 0.0186197 0)
(-0.182769 -0.0129791 0)
(-0.181171 -0.0444399 0)
(-0.177244 -0.07506 0)
(-0.170904 -0.104068 0)
(-0.162063 -0.130612 0)
(-0.15067 -0.153754 0)
(-0.136742 -0.172449 0)
(-0.12041 -0.185538 0)
(-0.101983 -0.191795 0)
(-0.0820065 -0.189987 0)
(-0.0613172 -0.178961 0)
(-0.0410966 -0.15778 0)
(-0.0229603 -0.125877 0)
(-0.00900532 -0.0832559 0)
(-0.000832126 -0.0306647 0)
(-0.00104708 0.0396258 0)
(-0.0106825 0.105329 0)
(-0.0264791 0.156563 0)
(-0.0462811 0.193215 0)
(-0.0675342 0.216131 0)
(-0.0884617 0.226739 0)
(-0.107937 0.226731 0)
(-0.125303 0.217846 0)
(-0.140249 0.201728 0)
(-0.152718 0.179851 0)
(-0.162807 0.153489 0)
(-0.170691 0.123722 0)
(-0.17658 0.0914327 0)
(-0.180661 0.057367 0)
(-0.183061 0.0221695 0)
(-0.183829 -0.0135738 0)
(-0.182934 -0.0492895 0)
(-0.18027 -0.0843714 0)
(-0.175652 -0.118134 0)
(-0.168833 -0.149749 0)
(-0.159542 -0.178199 0)
(-0.147529 -0.202255 0)
(-0.132641 -0.220462 0)
(-0.1149 -0.231142 0)
(-0.0946174 -0.232437 0)
(-0.0725086 -0.222419 0)
(-0.0498286 -0.199272 0)
(-0.0285599 -0.161558 0)
(-0.0115327 -0.108572 0)
(-0.00113117 -0.0407245 0)
(-0.00145603 0.0516425 0)
(-0.0136812 0.134238 0)
(-0.0324358 0.195587 0)
(-0.0544985 0.236558 0)
(-0.0765132 0.259406 0)
(-0.0964893 0.267006 0)
(-0.113475 0.2623 0)
(-0.127187 0.247989 0)
(-0.137763 0.226402 0)
(-0.145583 0.19944 0)
(-0.151175 0.168584 0)
(-0.155059 0.134964 0)
(-0.157691 0.0994311 0)
(-0.159446 0.0625975 0)
(-0.160591 0.0249142 0)
(-0.161262 -0.0132521 0)
(-0.161455 -0.0515537 0)
(-0.161017 -0.0896032 0)
(-0.159652 -0.126907 0)
(-0.156934 -0.162788 0)
(-0.152325 -0.196309 0)
(-0.145219 -0.22619 0)
(-0.135017 -0.250739 0)
(-0.121237 -0.267797 0)
(-0.103674 -0.274737 0)
(-0.0825979 -0.268488 0)
(-0.0590459 -0.245842 0)
(-0.0352356 -0.203733 0)
(-0.0148911 -0.139914 0)
(-0.00159016 -0.0537685 0)
(-0.00216885 0.067465 0)
(-0.0180486 0.169592 0)
(-0.0397009 0.239803 0)
(-0.0623577 0.281529 0)
(-0.081895 0.299941 0)
(-0.096614 0.300475 0)
(-0.106264 0.287941 0)
(-0.111479 0.26624 0)
(-0.113191 0.238384 0)
(-0.112428 0.206566 0)
(-0.110157 0.172312 0)
(-0.107271 0.136617 0)
(-0.104505 0.100097 0)
(-0.102426 0.0630939 0)
(-0.101423 0.02576 0)
(-0.101706 -0.0118645 0)
(-0.103305 -0.0497802 0)
(-0.106056 -0.0879561 0)
(-0.109604 -0.126251 0)
(-0.113387 -0.164324 0)
(-0.116636 -0.20152 0)
(-0.118379 -0.236742 0)
(-0.117487 -0.268292 0)
(-0.112765 -0.293703 0)
(-0.103129 -0.309585 0)
(-0.0878814 -0.311593 0)
(-0.067224 -0.294235 0)
(-0.0429529 -0.251634 0)
(-0.0195766 -0.178368 0)
(-0.0023679 -0.071012 0)
(-0.00331723 0.0893815 0)
(-0.0243978 0.212578 0)
(-0.0472455 0.286291 0)
(-0.0655818 0.320847 0)
(-0.0755253 0.327421 0)
(-0.0772044 0.315394 0)
(-0.0721445 0.291812 0)
(-0.0623029 0.261613 0)
(-0.0496213 0.22804 0)
(-0.0358183 0.193139 0)
(-0.0222993 0.158111 0)
(-0.0101876 0.123566 0)
(-0.000314974 0.0896955 0)
(0.00672643 0.0564167 0)
(0.0105485 0.0234781 0)
(0.0109342 -0.00946979 0)
(0.00782822 -0.042818 0)
(0.00134037 -0.0769449 0)
(-0.00823477 -0.112155 0)
(-0.020382 -0.148598 0)
(-0.0343156 -0.186155 0)
(-0.0489219 -0.224266 0)
(-0.0627115 -0.261694 0)
(-0.0738059 -0.296192 0)
(-0.0800041 -0.324097 0)
(-0.0790266 -0.339765 0)
(-0.0689987 -0.335616 0)
(-0.0499661 -0.3013 0)
(-0.0259111 -0.224522 0)
(-0.00354919 -0.0945641 0)
(-0.00518545 0.12432 0)
(-0.0314933 0.263416 0)
(-0.0470394 0.323806 0)
(-0.0476745 0.335691 0)
(-0.034328 0.320438 0)
(-0.0108499 0.291286 0)
(0.0184149 0.256173 0)
(0.049954 0.219706 0)
(0.0811823 0.184331 0)
(0.110217 0.151179 0)
(0.135813 0.120563 0)
(0.157185 0.0923265 0)
(0.173839 0.0660702 0)
(0.185472 0.0412702 0)
(0.191906 0.0173394 0)
(0.193029 -0.00634334 0)
(0.188784 -0.0304227 0)
(0.17916 -0.0555591 0)
(0.164217 -0.082409 0)
(0.144133 -0.1116 0)
(0.119286 -0.143662 0)
(0.090369 -0.178893 0)
(0.0585573 -0.217125 0)
(0.0257044 -0.257309 0)
(-0.00544366 -0.296873 0)
(-0.0310885 -0.330734 0)
(-0.0464741 -0.349909 0)
(-0.0471546 -0.33978 0)
(-0.0320416 -0.277692 0)
(-0.00540412 -0.131196 0)
(-0.0142209 0.184015 0)
(-0.0279402 0.316504 0)
(-0.00304547 0.331174 0)
(0.0467455 0.301591 0)
(0.106384 0.258274 0)
(0.167087 0.213821 0)
(0.224526 0.173368 0)
(0.276452 0.138582 0)
(0.321743 0.109485 0)
(0.360112 0.0853588 0)
(0.391652 0.0652788 0)
(0.416638 0.0483359 0)
(0.435388 0.0337087 0)
(0.448183 0.0206712 0)
(0.455224 0.00857464 0)
(0.456607 -0.00318426 0)
(0.452307 -0.0152099 0)
(0.442173 -0.0281366 0)
(0.425945 -0.0426475 0)
(0.40325 -0.0595433 0)
(0.37365 -0.0797586 0)
(0.336718 -0.104353 0)
(0.292182 -0.134436 0)
(0.240169 -0.170935 0)
(0.181567 -0.214053 0)
(0.118558 -0.26215 0)
(0.055621 -0.309641 0)
(0.00193269 -0.342635 0)
(-0.0262302 -0.328098 0)
(-0.0141927 -0.190414 0)
(0.101828 0.0968716 0)
(0.169708 0.136217 0)
(0.284791 0.117478 0)
(0.400533 0.0906165 0)
(0.496069 0.0676764 0)
(0.571337 0.0496685 0)
(0.630367 0.0359968 0)
(0.676455 0.0258932 0)
(0.712195 0.0185355 0)
(0.739673 0.0131935 0)
(0.760539 0.00928844 0)
(0.776046 0.00638598 0)
(0.787107 0.004165 0)
(0.79436 0.00238524 0)
(0.798207 0.000859767 0)
(0.798825 -0.000576769 0)
(0.796322 -0.00201614 0)
(0.790403 -0.00370473 0)
(0.78075 -0.00578403 0)
(0.766725 -0.00848934 0)
(0.747391 -0.0121499 0)
(0.721446 -0.0172136 0)
(0.687134 -0.024284 0)
(0.642201 -0.0341352 0)
(0.583845 -0.0476576 0)
(0.508479 -0.0657384 0)
(0.411719 -0.0891336 0)
(0.293261 -0.117029 0)
(0.17425 -0.13731 0)
(0.10287 -0.0985612 0)
)
;

boundaryField
{
    movingWall
    {
        type            fixedValue;
        value           uniform (1 0 0);
    }
    fixedWalls
    {
        type            noSlip;
    }
    frontAndBack
    {
        type            empty;
    }
}


// ************************************************************************* //
