/*--------------------------------*- C++ -*----------------------------------*\
  =========                 |
  \\      /  F ield         | OpenFOAM: The Open Source CFD Toolbox
   \\    /   O peration     | Website:  https://openfoam.org
    \\  /    A nd           | Version:  12
     \\/     M anipulation  |
\*---------------------------------------------------------------------------*/
FoamFile
{
    format      ascii;
    class       volScalarField;
    location    "0.8";
    object      p;
}
// * * * * * * * * * * * * * * * * * * * * * * * * * * * * * * * * * * * * * //

dimensions      [0 2 -2 0 0 0 0];

internalField   nonuniform List<scalar> 
400
(
8.60399e-08
0.000377667
0.000551973
0.000300185
-0.000381871
-0.00144166
-0.00281463
-0.00443036
-0.006217
-0.00810445
-0.0100253
-0.0119131
-0.0137003
-0.0153167
-0.0166902
-0.0177502
-0.0184321
-0.0186835
-0.0185085
-0.0181305
-0.000293166
0.000167123
0.000360992
7.72599e-05
-0.000634161
-0.00169644
-0.00304296
-0.00460917
-0.00633051
-0.00814372
-0.0099874
-0.0118008
-0.0135225
-0.0150891
-0.0164358
-0.017498
-0.018209
-0.018492
-0.018297
-0.0178358
0.001371
0.00176772
0.00181542
0.00131425
0.000363797
-0.000927452
-0.00248043
-0.00422885
-0.0061116
-0.00807269
-0.0100596
-0.012021
-0.0139042
-0.0156531
-0.0172064
-0.0184976
-0.0194473
-0.019947
-0.0198972
-0.0194983
0.00584372
0.0058465
0.00537885
0.00432194
0.002815
0.000992543
-0.00105131
-0.00324874
-0.00554049
-0.00788538
-0.0102475
-0.0125932
-0.0148866
-0.0170842
-0.0191296
-0.0209527
-0.0224589
-0.0235134
-0.0239768
-0.0239696
0.013684
0.0127675
0.0112018
0.00908242
0.00659042
0.00387722
0.00104721
-0.00183319
-0.00472691
-0.00761975
-0.0105113
-0.0134058
-0.0163027
-0.0191868
-0.0220204
-0.024736
-0.0272281
-0.0293439
-0.0309021
-0.0318099
0.0255521
0.0228913
0.0193484
0.0154461
0.0114089
0.0073863
0.0034804
-0.000264074
-0.00385477
-0.00733835
-0.0107849
-0.0142724
-0.0178703
-0.0216239
-0.0255394
-0.0295697
-0.0336103
-0.037509
-0.0410397
-0.0436847
0.0419911
0.0363026
0.0294588
0.0227635
0.0164742
0.0106959
0.00549682
0.000863047
-0.00330521
-0.00717112
-0.0109349
-0.014809
-0.0189924
-0.0236464
-0.0288677
-0.0346661
-0.0409685
-0.0476638
-0.0544897
-0.0601522
0.0629971
0.0523318
0.040258
0.0294084
0.0200362
0.0121153
0.0056175
0.000402993
-0.00380133
-0.00736575
-0.0107161
-0.0142959
-0.0185295
-0.0237843
-0.0303286
-0.0382953
-0.0477034
-0.0585665
-0.0706204
-0.0812469
0.08721
0.0687317
0.048729
0.031993
0.0186834
0.00848269
0.0011506
-0.00369395
-0.00662772
-0.00836822
-0.00971125
-0.0114773
-0.014461
-0.0193769
-0.0267959
-0.0370891
-0.050481
-0.0672655
-0.0872596
-0.10569
0.110521
0.0802877
0.0487811
0.0241482
0.0062745
-0.00572903
-0.0125159
-0.0148968
-0.0139511
-0.0109486
-0.0072611
-0.00429287
-0.00341716
-0.0059046
-0.0128318
-0.0249986
-0.0430357
-0.0677921
-0.0993364
-0.129535
0.123803
0.0766269
0.0292114
-0.0052903
-0.0276069
-0.0396724
-0.0428911
-0.0387979
-0.029264
-0.0163923
-0.00240331
0.0104432
0.0199166
0.0238986
0.0205052
0.00820135
-0.0143931
-0.0491533
-0.0967263
-0.143942
0.109331
0.0388468
-0.0293293
-0.074881
-0.0997789
-0.107792
-0.10163
-0.0839967
-0.0579489
-0.0267734
0.00613957
0.0373603
0.0634661
0.0811153
0.087192
0.0789494
0.0536774
0.00767257
-0.0609078
-0.131639
0.0352331
-0.0655812
-0.158742
-0.214149
-0.236191
-0.231808
-0.205914
-0.163028
-0.107875
-0.0452935
0.0198616
0.082716
0.138334
0.181728
0.208006
0.212495
0.190183
0.134152
0.0401749
-0.0613317
-0.153222
-0.290561
-0.409783
-0.468218
-0.475007
-0.442563
-0.379453
-0.292863
-0.189671
-0.0764961
0.0402666
0.154272
0.258943
0.34732
0.412172
0.445903
0.439589
0.380663
0.260106
0.1213
-0.548532
-0.723883
-0.861032
-0.903103
-0.868888
-0.780289
-0.651676
-0.49383
-0.315926
-0.12612
0.0681993
0.25983
0.441162
0.603676
0.737332
0.830309
0.867306
0.825903
0.687176
0.509316
-1.31218
-1.5109
-1.63331
-1.61139
-1.4843
-1.29023
-1.05186
-0.783763
-0.496614
-0.198539
0.104199
0.40594
0.700068
0.977653
1.22665
1.43091
1.56614
1.59243
1.46963
1.2677
-2.73138
-2.89141
-2.90675
-2.71189
-2.38976
-2.00562
-1.5914
-1.16332
-0.729311
-0.292046
0.14834
0.592219
1.03856
1.48301
1.91601
2.31975
2.65927
2.86618
2.85525
2.69338
-5.33453
-5.25661
-4.90856
-4.30771
-3.61165
-2.91183
-2.23962
-1.60023
-0.988311
-0.392893
0.199831
0.804359
1.43406
2.09878
2.80156
3.53313
4.25772
4.88106
5.24224
5.32428
-11.1826
-9.54073
-7.66715
-6.05722
-4.724
-3.6043
-2.65476
-1.83637
-1.10859
-0.431984
0.231224
0.918073
1.66654
2.5156
3.50456
4.66978
6.0497
7.69915
9.60202
11.2636
-29.316
-19.966
-13.208
-9.10227
-6.39378
-4.46386
-3.05231
-1.99195
-1.1516
-0.428672
0.260501
0.995048
1.85884
2.95379
4.41246
6.40296
9.18325
13.3626
20.1807
29.568
)
;

boundaryField
{
    movingWall
    {
        type            zeroGradient;
    }
    fixedWalls
    {
        type            zeroGradient;
    }
    frontAndBack
    {
        type            empty;
    }
}


// ************************************************************************* //
