/*--------------------------------*- C++ -*----------------------------------*\
  =========                 |
  \\      /  F ield         | OpenFOAM: The Open Source CFD Toolbox
   \\    /   O peration     | Website:  https://openfoam.org
    \\  /    A nd           | Version:  12
     \\/     M anipulation  |
\*---------------------------------------------------------------------------*/
FoamFile
{
    format      ascii;
    class       volScalarField;
    location    "9";
    object      nut;
}
// * * * * * * * * * * * * * * * * * * * * * * * * * * * * * * * * * * * * * //

dimensions      [0 2 -1 0 0 0 0];

internalField   nonuniform List<scalar> 
18225
(
1.18249e-17
3.574e-16
7.5846e-16
1.23879e-15
1.78236e-15
2.37747e-15
3.01605e-15
3.69227e-15
4.40174e-15
5.14093e-15
5.9069e-15
6.69711e-15
7.50937e-15
8.34167e-15
9.1922e-15
1.00593e-14
1.09414e-14
1.1837e-14
1.27447e-14
1.36632e-14
1.45912e-14
1.55274e-14
1.64706e-14
1.74197e-14
1.83734e-14
1.93306e-14
2.02902e-14
2.12511e-14
2.22121e-14
2.31723e-14
2.41304e-14
2.50855e-14
2.60365e-14
2.69824e-14
2.7922e-14
2.88545e-14
2.97787e-14
3.06937e-14
3.15984e-14
3.24919e-14
3.33731e-14
3.42412e-14
3.50951e-14
3.59338e-14
3.67565e-14
3.75622e-14
3.835e-14
3.91189e-14
3.98681e-14
4.05966e-14
4.13037e-14
4.19883e-14
4.26498e-14
4.32871e-14
4.38996e-14
4.44864e-14
4.50467e-14
4.55798e-14
4.60848e-14
4.6561e-14
4.70077e-14
4.74242e-14
4.78098e-14
4.81638e-14
4.84855e-14
4.87744e-14
4.90298e-14
4.92512e-14
4.94379e-14
4.95896e-14
4.97056e-14
4.97855e-14
4.98288e-14
4.98351e-14
4.98042e-14
4.97355e-14
4.96289e-14
4.94841e-14
4.93007e-14
4.90788e-14
4.88182e-14
4.85187e-14
4.81805e-14
4.78034e-14
4.73876e-14
4.69333e-14
4.64406e-14
4.59099e-14
4.53413e-14
4.47354e-14
4.40926e-14
4.34134e-14
4.26984e-14
4.19483e-14
4.11638e-14
4.03457e-14
3.94949e-14
3.86124e-14
3.76992e-14
3.67563e-14
3.57851e-14
3.47866e-14
3.37624e-14
3.27137e-14
3.1642e-14
3.05489e-14
2.9436e-14
2.83051e-14
2.71578e-14
2.59962e-14
2.48219e-14
2.36372e-14
2.2444e-14
2.12445e-14
2.0041e-14
1.88358e-14
1.76312e-14
1.64298e-14
1.52343e-14
1.40472e-14
1.28716e-14
1.17103e-14
1.05666e-14
9.44389e-15
8.34574e-15
7.27615e-15
6.23952e-15
5.24081e-15
4.28582e-15
3.38157e-15
2.537e-15
1.76427e-15
1.0806e-15
5.09303e-16
1.68513e-17
8.00097e-17
1.16615e-14
6.24366e-14
1.46451e-13
2.47002e-13
3.56314e-13
4.71752e-13
5.92348e-13
7.17606e-13
8.47169e-13
9.80722e-13
1.11797e-12
1.25865e-12
1.40247e-12
1.5492e-12
1.69859e-12
1.8504e-12
2.0044e-12
2.16038e-12
2.31812e-12
2.47741e-12
2.63805e-12
2.79984e-12
2.96259e-12
3.12609e-12
3.29017e-12
3.45463e-12
3.61928e-12
3.78394e-12
3.94842e-12
4.11255e-12
4.27615e-12
4.43902e-12
4.60101e-12
4.76193e-12
4.92161e-12
5.07986e-12
5.23653e-12
5.39144e-12
5.54442e-12
5.6953e-12
5.84392e-12
5.99011e-12
6.13371e-12
6.27456e-12
6.41249e-12
6.54735e-12
6.67898e-12
6.80724e-12
6.93196e-12
7.053e-12
7.17022e-12
7.28345e-12
7.39257e-12
7.49744e-12
7.5979e-12
7.69383e-12
7.7851e-12
7.87157e-12
7.95312e-12
8.02962e-12
8.10096e-12
8.167e-12
8.22765e-12
8.28277e-12
8.33228e-12
8.37606e-12
8.41401e-12
8.44603e-12
8.47202e-12
8.49192e-12
8.50564e-12
8.5131e-12
8.51424e-12
8.509e-12
8.49731e-12
8.47912e-12
8.45438e-12
8.42307e-12
8.38515e-12
8.3406e-12
8.28942e-12
8.23158e-12
8.1671e-12
8.096e-12
8.01829e-12
7.93401e-12
7.8432e-12
7.74593e-12
7.64225e-12
7.53224e-12
7.41599e-12
7.29361e-12
7.1652e-12
7.03089e-12
6.89081e-12
6.74512e-12
6.59398e-12
6.43756e-12
6.27605e-12
6.10964e-12
5.93856e-12
5.76303e-12
5.58328e-12
5.39956e-12
5.21214e-12
5.0213e-12
4.82732e-12
4.63049e-12
4.43114e-12
4.22959e-12
4.02617e-12
3.82123e-12
3.61513e-12
3.40825e-12
3.20098e-12
2.9937e-12
2.78683e-12
2.5808e-12
2.37605e-12
2.17302e-12
1.9722e-12
1.77407e-12
1.57912e-12
1.38788e-12
1.20089e-12
1.01872e-12
8.41931e-13
6.7119e-13
5.07332e-13
3.5187e-13
2.08686e-13
8.89784e-14
1.66205e-14
1.1405e-16
1.78204e-16
2.92766e-14
2.00765e-13
6.03282e-13
1.22564e-12
2.00639e-12
2.88934e-12
3.83859e-12
4.83407e-12
5.8649e-12
6.92496e-12
8.01051e-12
9.11899e-12
1.02484e-11
1.13971e-11
1.25634e-11
1.3746e-11
1.49433e-11
1.6154e-11
1.73767e-11
1.86099e-11
1.98523e-11
2.11025e-11
2.23592e-11
2.36209e-11
2.48862e-11
2.61539e-11
2.74226e-11
2.86909e-11
2.99574e-11
3.12208e-11
3.24798e-11
3.3733e-11
3.49791e-11
3.62168e-11
3.74447e-11
3.86615e-11
3.9866e-11
4.10568e-11
4.22326e-11
4.33922e-11
4.45342e-11
4.56576e-11
4.67609e-11
4.7843e-11
4.89026e-11
4.99386e-11
5.09498e-11
5.19349e-11
5.28929e-11
5.38225e-11
5.47228e-11
5.55924e-11
5.64305e-11
5.72358e-11
5.80074e-11
5.87441e-11
5.94451e-11
6.01093e-11
6.07356e-11
6.13233e-11
6.18712e-11
6.23787e-11
6.28446e-11
6.32683e-11
6.36489e-11
6.39855e-11
6.42775e-11
6.4524e-11
6.47244e-11
6.4878e-11
6.49843e-11
6.50425e-11
6.50522e-11
6.5013e-11
6.49243e-11
6.47857e-11
6.45968e-11
6.43575e-11
6.40673e-11
6.37263e-11
6.33342e-11
6.2891e-11
6.23968e-11
6.18515e-11
6.12554e-11
6.06088e-11
5.99119e-11
5.91651e-11
5.8369e-11
5.75241e-11
5.6631e-11
5.56905e-11
5.47034e-11
5.36707e-11
5.25933e-11
5.14725e-11
5.03094e-11
4.91053e-11
4.78615e-11
4.65797e-11
4.52614e-11
4.39082e-11
4.2522e-11
4.11046e-11
3.9658e-11
3.81842e-11
3.66853e-11
3.51636e-11
3.36214e-11
3.20611e-11
3.04851e-11
2.88959e-11
2.72962e-11
2.56887e-11
2.40762e-11
2.24614e-11
2.08473e-11
1.92367e-11
1.76328e-11
1.60387e-11
1.44575e-11
1.28926e-11
1.13476e-11
9.82652e-12
8.33427e-12
6.87744e-12
5.46603e-12
4.11686e-12
2.85983e-12
1.74728e-12
8.60126e-13
2.86292e-13
4.17631e-14
2.54276e-16
2.95365e-16
4.97538e-14
3.64702e-13
1.20741e-12
2.72153e-12
4.89436e-12
7.61679e-12
1.07567e-11
1.42005e-11
1.78642e-11
2.16906e-11
2.56416e-11
2.96918e-11
3.38241e-11
3.80263e-11
4.22895e-11
4.66065e-11
5.09712e-11
5.53781e-11
5.98224e-11
6.42993e-11
6.88041e-11
7.33323e-11
7.78794e-11
8.24407e-11
8.70118e-11
9.1588e-11
9.61649e-11
1.00738e-10
1.05302e-10
1.09853e-10
1.14387e-10
1.18898e-10
1.23382e-10
1.27834e-10
1.3225e-10
1.36625e-10
1.40954e-10
1.45234e-10
1.49459e-10
1.53625e-10
1.57727e-10
1.61762e-10
1.65724e-10
1.69609e-10
1.73414e-10
1.77133e-10
1.80762e-10
1.84298e-10
1.87736e-10
1.91072e-10
1.94302e-10
1.97422e-10
2.00429e-10
2.03318e-10
2.06086e-10
2.08729e-10
2.11244e-10
2.13626e-10
2.15873e-10
2.17981e-10
2.19947e-10
2.21767e-10
2.23439e-10
2.24959e-10
2.26325e-10
2.27534e-10
2.28582e-10
2.29468e-10
2.30188e-10
2.30741e-10
2.31124e-10
2.31334e-10
2.31371e-10
2.31233e-10
2.30917e-10
2.30422e-10
2.29747e-10
2.28891e-10
2.27852e-10
2.2663e-10
2.25225e-10
2.23637e-10
2.21864e-10
2.19909e-10
2.1777e-10
2.15449e-10
2.12948e-10
2.10266e-10
2.07406e-10
2.04369e-10
2.01159e-10
1.97777e-10
1.94226e-10
1.9051e-10
1.86632e-10
1.82595e-10
1.78404e-10
1.74064e-10
1.69579e-10
1.64954e-10
1.60194e-10
1.55307e-10
1.50296e-10
1.4517e-10
1.39934e-10
1.34596e-10
1.29164e-10
1.23643e-10
1.18043e-10
1.12372e-10
1.06637e-10
1.00848e-10
9.50134e-11
8.91426e-11
8.32449e-11
7.73302e-11
7.14088e-11
6.54916e-11
5.95902e-11
5.37174e-11
4.78881e-11
4.21198e-11
3.64348e-11
3.08628e-11
2.54454e-11
2.02424e-11
1.53411e-11
1.08661e-11
6.98341e-12
3.88373e-12
1.72349e-12
5.20822e-13
7.10915e-14
4.22179e-16
4.26424e-16
7.24496e-14
5.44112e-13
1.87514e-12
4.44682e-12
8.44589e-12
1.38561e-11
2.05224e-11
2.82303e-11
3.67648e-11
4.59405e-11
5.56099e-11
6.56614e-11
7.60123e-11
8.6602e-11
9.73852e-11
1.08328e-10
1.19404e-10
1.30592e-10
1.41874e-10
1.53234e-10
1.6466e-10
1.76139e-10
1.87657e-10
1.99205e-10
2.1077e-10
2.22341e-10
2.33907e-10
2.45457e-10
2.56979e-10
2.68463e-10
2.79898e-10
2.91271e-10
3.02572e-10
3.1379e-10
3.24913e-10
3.3593e-10
3.4683e-10
3.57601e-10
3.68233e-10
3.78714e-10
3.89033e-10
3.9918e-10
4.09142e-10
4.18911e-10
4.28474e-10
4.37822e-10
4.46944e-10
4.55829e-10
4.64467e-10
4.72849e-10
4.80964e-10
4.88803e-10
4.96355e-10
5.03612e-10
5.10564e-10
5.17202e-10
5.23517e-10
5.295e-10
5.35143e-10
5.40437e-10
5.45375e-10
5.49947e-10
5.54146e-10
5.57965e-10
5.61396e-10
5.64432e-10
5.67067e-10
5.69293e-10
5.71105e-10
5.72496e-10
5.73461e-10
5.73994e-10
5.7409e-10
5.73747e-10
5.72957e-10
5.71717e-10
5.70024e-10
5.67875e-10
5.65268e-10
5.62201e-10
5.58672e-10
5.5468e-10
5.50226e-10
5.45308e-10
5.39929e-10
5.3409e-10
5.27793e-10
5.21041e-10
5.13838e-10
5.06187e-10
4.98095e-10
4.89567e-10
4.80609e-10
4.71229e-10
4.61436e-10
4.51237e-10
4.40644e-10
4.29667e-10
4.18317e-10
4.06606e-10
3.94547e-10
3.82155e-10
3.69444e-10
3.56428e-10
3.43125e-10
3.29551e-10
3.15724e-10
3.01663e-10
2.87386e-10
2.72914e-10
2.58268e-10
2.4347e-10
2.28543e-10
2.13512e-10
1.98403e-10
1.83245e-10
1.68069e-10
1.52913e-10
1.37817e-10
1.22833e-10
1.08022e-10
9.34626e-11
7.92579e-11
6.55412e-11
5.24874e-11
4.03214e-11
2.93201e-11
1.97996e-11
1.20711e-11
6.35754e-12
2.68221e-12
7.78826e-13
1.03773e-13
6.11013e-16
5.6822e-16
9.69122e-14
7.35896e-13
2.58507e-12
6.29294e-12
1.23269e-11
2.08995e-11
3.19812e-11
4.53669e-11
6.07575e-11
7.7828e-11
9.62711e-11
1.15819e-10
1.3625e-10
1.57385e-10
1.79083e-10
2.01235e-10
2.23751e-10
2.46565e-10
2.69618e-10
2.92864e-10
3.16263e-10
3.39781e-10
3.63388e-10
3.87054e-10
4.10754e-10
4.34463e-10
4.58156e-10
4.8181e-10
5.05401e-10
5.28908e-10
5.52306e-10
5.75573e-10
5.98687e-10
6.21624e-10
6.44363e-10
6.6688e-10
6.89153e-10
7.11159e-10
7.32877e-10
7.54283e-10
7.75356e-10
7.96073e-10
8.16413e-10
8.36354e-10
8.55874e-10
8.74953e-10
8.93567e-10
9.11699e-10
9.29325e-10
9.46426e-10
9.62983e-10
9.78975e-10
9.94383e-10
1.00919e-09
1.02337e-09
1.03691e-09
1.04979e-09
1.062e-09
1.07351e-09
1.08432e-09
1.09439e-09
1.10372e-09
1.11229e-09
1.12009e-09
1.12709e-09
1.13329e-09
1.13867e-09
1.14322e-09
1.14693e-09
1.14977e-09
1.15175e-09
1.15285e-09
1.15305e-09
1.15236e-09
1.15076e-09
1.14824e-09
1.14479e-09
1.14041e-09
1.1351e-09
1.12884e-09
1.12164e-09
1.11349e-09
1.10439e-09
1.09434e-09
1.08334e-09
1.0714e-09
1.05852e-09
1.0447e-09
1.02995e-09
1.01427e-09
9.9769e-10
9.80204e-10
9.61828e-10
9.42577e-10
9.22467e-10
9.01515e-10
8.79739e-10
8.57161e-10
8.33803e-10
8.09688e-10
7.84842e-10
7.59292e-10
7.33068e-10
7.062e-10
6.78722e-10
6.50666e-10
6.22071e-10
5.92976e-10
5.6342e-10
5.33448e-10
5.03108e-10
4.72451e-10
4.41531e-10
4.10411e-10
3.7916e-10
3.47856e-10
3.16589e-10
2.85468e-10
2.5462e-10
2.24202e-10
1.94404e-10
1.65463e-10
1.37668e-10
1.11369e-10
8.69793e-11
6.49637e-11
4.58045e-11
2.99392e-11
1.76643e-11
9.02227e-12
3.70882e-12
1.05665e-12
1.39257e-13
8.1682e-16
7.1845e-16
1.22782e-13
9.37755e-13
3.3282e-12
8.22114e-12
1.63985e-11
2.83782e-11
4.43745e-11
6.43263e-11
8.79672e-11
1.14908e-10
1.44708e-10
1.76928e-10
2.11164e-10
2.47059e-10
2.84311e-10
3.22666e-10
3.61916e-10
4.01889e-10
4.42444e-10
4.83465e-10
5.24854e-10
5.66527e-10
6.08412e-10
6.50445e-10
6.92566e-10
7.34724e-10
7.76868e-10
8.18951e-10
8.60928e-10
9.02756e-10
9.44392e-10
9.85794e-10
1.02692e-09
1.06773e-09
1.10819e-09
1.14825e-09
1.18787e-09
1.22701e-09
1.26564e-09
1.30372e-09
1.34119e-09
1.37804e-09
1.41421e-09
1.44967e-09
1.48439e-09
1.51832e-09
1.55142e-09
1.58366e-09
1.61501e-09
1.64542e-09
1.67487e-09
1.70331e-09
1.73072e-09
1.75705e-09
1.78228e-09
1.80637e-09
1.82929e-09
1.85102e-09
1.87151e-09
1.89073e-09
1.90867e-09
1.92528e-09
1.94055e-09
1.95444e-09
1.96693e-09
1.97798e-09
1.98759e-09
1.99571e-09
2.00234e-09
2.00743e-09
2.01099e-09
2.01297e-09
2.01337e-09
2.01218e-09
2.00936e-09
2.0049e-09
1.9988e-09
1.99103e-09
1.98159e-09
1.97047e-09
1.95766e-09
1.94316e-09
1.92696e-09
1.90906e-09
1.88946e-09
1.86817e-09
1.84518e-09
1.82052e-09
1.79418e-09
1.76618e-09
1.73654e-09
1.70526e-09
1.67239e-09
1.63793e-09
1.60191e-09
1.56437e-09
1.52533e-09
1.48483e-09
1.44291e-09
1.39961e-09
1.35498e-09
1.30907e-09
1.26192e-09
1.2136e-09
1.16416e-09
1.11367e-09
1.0622e-09
1.00984e-09
9.56648e-10
9.02732e-10
8.48186e-10
7.93123e-10
7.37667e-10
6.8196e-10
6.26164e-10
5.70466e-10
5.15088e-10
4.60287e-10
4.06369e-10
3.53694e-10
3.02689e-10
2.53854e-10
2.07762e-10
1.65047e-10
1.26383e-10
9.24338e-11
6.37752e-11
4.07962e-11
2.35844e-11
1.18312e-11
4.79352e-12
1.35181e-12
1.77133e-13
1.03689e-15
8.75277e-16
1.4976e-13
1.14767e-12
4.09787e-12
1.02113e-11
2.05975e-11
3.61154e-11
5.72927e-11
8.43132e-11
1.17059e-10
1.55185e-10
1.98199e-10
2.4554e-10
2.9663e-10
3.5092e-10
4.07905e-10
4.6714e-10
5.28238e-10
5.90869e-10
6.5475e-10
7.19645e-10
7.85349e-10
8.51689e-10
9.18516e-10
9.85698e-10
1.05312e-09
1.12068e-09
1.18828e-09
1.25584e-09
1.32326e-09
1.39048e-09
1.45742e-09
1.52401e-09
1.59017e-09
1.65583e-09
1.72093e-09
1.78541e-09
1.84918e-09
1.9122e-09
1.9744e-09
2.0357e-09
2.09606e-09
2.1554e-09
2.21366e-09
2.27079e-09
2.32671e-09
2.38138e-09
2.43472e-09
2.48669e-09
2.53721e-09
2.58625e-09
2.63372e-09
2.67959e-09
2.7238e-09
2.76628e-09
2.80699e-09
2.84588e-09
2.88288e-09
2.91796e-09
2.95106e-09
2.98213e-09
3.01113e-09
3.038e-09
3.0627e-09
3.08519e-09
3.10542e-09
3.12335e-09
3.13894e-09
3.15214e-09
3.16293e-09
3.17126e-09
3.17709e-09
3.1804e-09
3.18116e-09
3.17933e-09
3.17488e-09
3.16779e-09
3.15802e-09
3.14557e-09
3.13041e-09
3.11253e-09
3.09191e-09
3.06854e-09
3.04241e-09
3.01352e-09
2.98188e-09
2.94747e-09
2.91031e-09
2.8704e-09
2.82777e-09
2.78243e-09
2.73439e-09
2.6837e-09
2.63038e-09
2.57446e-09
2.51599e-09
2.45501e-09
2.39158e-09
2.32576e-09
2.2576e-09
2.18717e-09
2.11456e-09
2.03984e-09
1.9631e-09
1.88445e-09
1.80399e-09
1.72184e-09
1.63813e-09
1.553e-09
1.4666e-09
1.37913e-09
1.29076e-09
1.20174e-09
1.1123e-09
1.02274e-09
9.33392e-10
8.44628e-10
7.5689e-10
6.70685e-10
5.86599e-10
5.05299e-10
4.27535e-10
3.54131e-10
2.85971e-10
2.23958e-10
1.68956e-10
1.21704e-10
8.27135e-11
5.21554e-11
2.976e-11
1.47639e-11
5.92987e-12
1.66224e-12
2.17077e-13
1.26922e-15
1.03715e-15
1.77588e-13
1.3638e-12
4.88813e-12
1.22485e-11
2.48862e-11
4.40157e-11
7.05128e-11
1.04868e-10
1.47196e-10
1.97292e-10
2.54707e-10
3.18834e-10
3.88979e-10
4.64422e-10
5.44461e-10
6.2844e-10
7.15761e-10
8.05891e-10
8.98362e-10
9.92766e-10
1.08875e-09
1.186e-09
1.28425e-09
1.38326e-09
1.48284e-09
1.58278e-09
1.68293e-09
1.78312e-09
1.88323e-09
1.98311e-09
2.08265e-09
2.18172e-09
2.28021e-09
2.37802e-09
2.47503e-09
2.57115e-09
2.66627e-09
2.76029e-09
2.85311e-09
2.94463e-09
3.03475e-09
3.12339e-09
3.21044e-09
3.29581e-09
3.37942e-09
3.46116e-09
3.54095e-09
3.6187e-09
3.69431e-09
3.76772e-09
3.83882e-09
3.90753e-09
3.97377e-09
4.03746e-09
4.09851e-09
4.15685e-09
4.21239e-09
4.26507e-09
4.3148e-09
4.3615e-09
4.40512e-09
4.44556e-09
4.48277e-09
4.51668e-09
4.54722e-09
4.57431e-09
4.59791e-09
4.61795e-09
4.63436e-09
4.6471e-09
4.6561e-09
4.66132e-09
4.6627e-09
4.66021e-09
4.65379e-09
4.64339e-09
4.62898e-09
4.61053e-09
4.588e-09
4.56136e-09
4.5306e-09
4.4957e-09
4.45663e-09
4.4134e-09
4.36599e-09
4.31441e-09
4.25866e-09
4.19875e-09
4.13471e-09
4.06656e-09
3.99433e-09
3.91806e-09
3.8378e-09
3.75359e-09
3.6655e-09
3.57361e-09
3.47799e-09
3.37873e-09
3.27593e-09
3.1697e-09
3.06016e-09
2.94745e-09
2.83172e-09
2.71313e-09
2.59187e-09
2.46815e-09
2.34217e-09
2.21422e-09
2.08455e-09
1.95349e-09
1.82138e-09
1.68863e-09
1.5557e-09
1.4231e-09
1.29142e-09
1.16132e-09
1.03357e-09
9.09014e-10
7.88582e-10
6.7331e-10
5.64306e-10
4.62723e-10
3.6972e-10
2.86388e-10
2.13664e-10
1.52222e-10
1.02364e-10
6.39158e-11
3.61552e-11
1.78071e-11
7.11242e-12
1.98615e-12
2.58826e-13
1.51219e-15
1.20273e-15
2.0604e-13
1.58451e-12
5.69344e-12
1.43194e-11
2.92358e-11
5.20161e-11
8.38989e-11
1.25713e-10
1.77858e-10
2.40339e-10
3.1283e-10
3.94754e-10
4.85368e-10
5.83834e-10
6.89287e-10
8.0087e-10
9.1777e-10
1.03924e-09
1.16458e-09
1.2932e-09
1.42454e-09
1.55813e-09
1.69353e-09
1.83037e-09
1.96831e-09
2.10706e-09
2.24633e-09
2.38589e-09
2.52552e-09
2.665e-09
2.80414e-09
2.94275e-09
3.08067e-09
3.21772e-09
3.35376e-09
3.48861e-09
3.62213e-09
3.75418e-09
3.88461e-09
4.01328e-09
4.14004e-09
4.26477e-09
4.38732e-09
4.50757e-09
4.62537e-09
4.7406e-09
4.85314e-09
4.96284e-09
5.06959e-09
5.17326e-09
5.27372e-09
5.37087e-09
5.46457e-09
5.55471e-09
5.64117e-09
5.72384e-09
5.8026e-09
5.87734e-09
5.94796e-09
6.01434e-09
6.07637e-09
6.13396e-09
6.18701e-09
6.2354e-09
6.27905e-09
6.31785e-09
6.35173e-09
6.38057e-09
6.40431e-09
6.42285e-09
6.4361e-09
6.44401e-09
6.44648e-09
6.44347e-09
6.4349e-09
6.42067e-09
6.40075e-09
6.37508e-09
6.34363e-09
6.30633e-09
6.26317e-09
6.2141e-09
6.1591e-09
6.09815e-09
6.03125e-09
5.95839e-09
5.87957e-09
5.79482e-09
5.70415e-09
5.6076e-09
5.50521e-09
5.39704e-09
5.28315e-09
5.16362e-09
5.03854e-09
4.90802e-09
4.77217e-09
4.63113e-09
4.48506e-09
4.33413e-09
4.17853e-09
4.01847e-09
3.85418e-09
3.68593e-09
3.51402e-09
3.33877e-09
3.16055e-09
2.97978e-09
2.79691e-09
2.61248e-09
2.42708e-09
2.24135e-09
2.05605e-09
1.872e-09
1.69012e-09
1.51145e-09
1.33714e-09
1.16841e-09
1.00662e-09
8.53181e-10
7.0954e-10
5.77138e-10
4.57331e-10
3.51294e-10
2.59917e-10
1.83689e-10
1.22592e-10
7.60204e-11
4.27455e-11
2.09495e-11
8.33622e-12
2.32197e-12
3.02158e-13
1.76447e-15
1.37081e-15
2.34912e-13
1.80827e-12
6.50866e-12
1.64115e-11
3.36207e-11
6.0067e-11
9.73546e-11
1.46663e-10
2.08706e-10
2.8374e-10
3.71617e-10
4.71854e-10
5.83721e-10
7.06323e-10
8.38668e-10
9.79737e-10
1.12852e-09
1.28405e-09
1.44542e-09
1.61181e-09
1.78244e-09
1.95665e-09
2.13381e-09
2.31338e-09
2.49487e-09
2.67782e-09
2.86185e-09
3.04657e-09
3.23167e-09
3.41684e-09
3.60178e-09
3.78623e-09
3.96995e-09
4.15268e-09
4.33421e-09
4.51431e-09
4.69277e-09
4.86938e-09
5.04394e-09
5.21626e-09
5.38614e-09
5.55339e-09
5.71782e-09
5.87926e-09
6.03751e-09
6.19241e-09
6.34376e-09
6.4914e-09
6.63516e-09
6.77486e-09
6.91033e-09
7.04141e-09
7.16793e-09
7.28973e-09
7.40664e-09
7.51852e-09
7.6252e-09
7.72652e-09
7.82235e-09
7.91252e-09
7.99688e-09
8.0753e-09
8.14764e-09
8.21374e-09
8.27348e-09
8.32671e-09
8.37332e-09
8.41316e-09
8.44612e-09
8.47208e-09
8.49092e-09
8.50253e-09
8.5068e-09
8.50365e-09
8.493e-09
8.47466e-09
8.44863e-09
8.4148e-09
8.3731e-09
8.32349e-09
8.26589e-09
8.20026e-09
8.12656e-09
8.04477e-09
7.95487e-09
7.85684e-09
7.7507e-09
7.63645e-09
7.51414e-09
7.3838e-09
7.24549e-09
7.09929e-09
6.94529e-09
6.78361e-09
6.61436e-09
6.43771e-09
6.25382e-09
6.06289e-09
5.86514e-09
5.66084e-09
5.45026e-09
5.23374e-09
5.01163e-09
4.78435e-09
4.55234e-09
4.31612e-09
4.07625e-09
3.83337e-09
3.5882e-09
3.34151e-09
3.09422e-09
2.84729e-09
2.60184e-09
2.35907e-09
2.12033e-09
1.88707e-09
1.66087e-09
1.44338e-09
1.23637e-09
1.0416e-09
8.60833e-10
6.95729e-10
5.47746e-10
4.18045e-10
3.07369e-10
2.15929e-10
1.43312e-10
8.84289e-11
4.95107e-11
2.41809e-11
9.59676e-12
2.66831e-12
3.46881e-13
2.02491e-15
1.54029e-15
2.64019e-13
2.0337e-12
7.32896e-12
1.85132e-11
3.80177e-11
6.81254e-11
1.10802e-10
1.67581e-10
2.39498e-10
3.27086e-10
4.30407e-10
5.49117e-10
6.82547e-10
8.29792e-10
9.89787e-10
1.16138e-09
1.3434e-09
1.53468e-09
1.73411e-09
1.94063e-09
2.15326e-09
2.37113e-09
2.5934e-09
2.81934e-09
3.04827e-09
3.27959e-09
3.51274e-09
3.74721e-09
3.98255e-09
4.21833e-09
4.45415e-09
4.68964e-09
4.92447e-09
5.15829e-09
5.3908e-09
5.6217e-09
5.85071e-09
6.07753e-09
6.30191e-09
6.52359e-09
6.74229e-09
6.95778e-09
7.1698e-09
7.3781e-09
7.58246e-09
7.78263e-09
7.97837e-09
8.16946e-09
8.35566e-09
8.53675e-09
8.7125e-09
8.8827e-09
9.04712e-09
9.20555e-09
9.35777e-09
9.50357e-09
9.64274e-09
9.77507e-09
9.90037e-09
1.00184e-08
1.0129e-08
1.0232e-08
1.03271e-08
1.04143e-08
1.04932e-08
1.05637e-08
1.06257e-08
1.06789e-08
1.07233e-08
1.07585e-08
1.07845e-08
1.08011e-08
1.08082e-08
1.08056e-08
1.07933e-08
1.0771e-08
1.07386e-08
1.0696e-08
1.06432e-08
1.058e-08
1.05063e-08
1.04222e-08
1.03274e-08
1.02221e-08
1.01061e-08
9.97939e-09
9.84207e-09
9.69411e-09
9.53556e-09
9.36646e-09
9.18691e-09
8.997e-09
8.79686e-09
8.58664e-09
8.36653e-09
8.13674e-09
7.89752e-09
7.64915e-09
7.39196e-09
7.12631e-09
6.85261e-09
6.57134e-09
6.28301e-09
5.98822e-09
5.68763e-09
5.38197e-09
5.07208e-09
4.75886e-09
4.44335e-09
4.12667e-09
3.81009e-09
3.49498e-09
3.18287e-09
2.87542e-09
2.57442e-09
2.28178e-09
1.99953e-09
1.72977e-09
1.47464e-09
1.23623e-09
1.01656e-09
8.17413e-10
6.40287e-10
4.86244e-10
3.55802e-10
2.48827e-10
1.64464e-10
1.01108e-10
5.64325e-11
2.74916e-11
1.08898e-11
3.02391e-12
3.92824e-13
2.29251e-15
1.7102e-15
2.93193e-13
2.25953e-12
8.14988e-12
2.06137e-11
4.24048e-11
7.61518e-11
1.24175e-10
1.88353e-10
2.70048e-10
3.70073e-10
4.88719e-10
6.25806e-10
7.8076e-10
9.52701e-10
1.14053e-09
1.34301e-09
1.55882e-09
1.78664e-09
2.02515e-09
2.2731e-09
2.5293e-09
2.79264e-09
3.06211e-09
3.33675e-09
3.61572e-09
3.89821e-09
4.18352e-09
4.47099e-09
4.76e-09
5.05e-09
5.34046e-09
5.63091e-09
5.9209e-09
6.20998e-09
6.49776e-09
6.78384e-09
7.06786e-09
7.34945e-09
7.62826e-09
7.90396e-09
8.17621e-09
8.4447e-09
8.7091e-09
8.96909e-09
9.22438e-09
9.47465e-09
9.71962e-09
9.95897e-09
1.01924e-08
1.04197e-08
1.06404e-08
1.08544e-08
1.10614e-08
1.1261e-08
1.1453e-08
1.16371e-08
1.18131e-08
1.19806e-08
1.21394e-08
1.22893e-08
1.243e-08
1.25611e-08
1.26826e-08
1.27941e-08
1.28953e-08
1.29861e-08
1.30662e-08
1.31354e-08
1.31934e-08
1.324e-08
1.3275e-08
1.32982e-08
1.33094e-08
1.33084e-08
1.32952e-08
1.32693e-08
1.32307e-08
1.31793e-08
1.31148e-08
1.30372e-08
1.29464e-08
1.28422e-08
1.27246e-08
1.25935e-08
1.24489e-08
1.22908e-08
1.21191e-08
1.19339e-08
1.17352e-08
1.15232e-08
1.12978e-08
1.10593e-08
1.08078e-08
1.05435e-08
1.02667e-08
9.97764e-09
9.67671e-09
9.36428e-09
9.0408e-09
8.70678e-09
8.36278e-09
8.00946e-09
7.64755e-09
7.27787e-09
6.90133e-09
6.51894e-09
6.13185e-09
5.74132e-09
5.34872e-09
4.9556e-09
4.56364e-09
4.17467e-09
3.79067e-09
3.4138e-09
3.04632e-09
2.69063e-09
2.3492e-09
2.02456e-09
1.71918e-09
1.43547e-09
1.1756e-09
9.41461e-10
7.345e-10
5.55621e-10
4.05058e-10
2.82292e-10
1.85995e-10
1.14027e-10
6.34929e-11
3.08723e-11
1.22114e-11
3.38761e-12
4.3983e-13
2.56633e-15
1.87964e-15
3.22281e-13
2.48457e-12
8.9673e-12
2.27027e-11
4.67617e-11
8.41097e-11
1.37411e-10
2.08883e-10
3.002e-10
4.12458e-10
5.4618e-10
7.01362e-10
8.77544e-10
1.0739e-09
1.28932e-09
1.5225e-09
1.77203e-09
2.03643e-09
2.31422e-09
2.60396e-09
2.90427e-09
3.21383e-09
3.53143e-09
3.85592e-09
4.18625e-09
4.52146e-09
4.86065e-09
5.20301e-09
5.54777e-09
5.89425e-09
6.24177e-09
6.58975e-09
6.93761e-09
7.2848e-09
7.63083e-09
7.9752e-09
8.31745e-09
8.65713e-09
8.9938e-09
9.32704e-09
9.65645e-09
9.98161e-09
1.03021e-08
1.06176e-08
1.09277e-08
1.1232e-08
1.15302e-08
1.18218e-08
1.21065e-08
1.23839e-08
1.26537e-08
1.29156e-08
1.31691e-08
1.34139e-08
1.36497e-08
1.3876e-08
1.40927e-08
1.42993e-08
1.44954e-08
1.46808e-08
1.48551e-08
1.50181e-08
1.51692e-08
1.53083e-08
1.54351e-08
1.55491e-08
1.56501e-08
1.57379e-08
1.5812e-08
1.58723e-08
1.59184e-08
1.59501e-08
1.59671e-08
1.59691e-08
1.59561e-08
1.59276e-08
1.58834e-08
1.58234e-08
1.57474e-08
1.56552e-08
1.55467e-08
1.54217e-08
1.52801e-08
1.51219e-08
1.49469e-08
1.47552e-08
1.45467e-08
1.43215e-08
1.40796e-08
1.38211e-08
1.35462e-08
1.32551e-08
1.29479e-08
1.26249e-08
1.22866e-08
1.19332e-08
1.15652e-08
1.11831e-08
1.07876e-08
1.03793e-08
9.95897e-09
9.52751e-09
9.08586e-09
8.63513e-09
8.17653e-09
7.7114e-09
7.24124e-09
6.7677e-09
6.29257e-09
5.81785e-09
5.34567e-09
4.87837e-09
4.41844e-09
3.96851e-09
3.53136e-09
3.10987e-09
2.70694e-09
2.3255e-09
1.96836e-09
1.63815e-09
1.33717e-09
1.06736e-09
8.30059e-10
6.25972e-10
4.55013e-10
3.16248e-10
2.07858e-10
1.27156e-10
7.0675e-11
3.43141e-11
1.35579e-11
3.75833e-12
4.87757e-13
2.84555e-15
2.04779e-15
3.51143e-13
2.70779e-12
9.77743e-12
2.47709e-11
5.10692e-11
9.19654e-11
1.50456e-10
2.29081e-10
3.29821e-10
4.5404e-10
6.02491e-10
7.75345e-10
9.72267e-10
1.19249e-09
1.43492e-09
1.69823e-09
1.9809e-09
2.28134e-09
2.59794e-09
2.92908e-09
3.27319e-09
3.62879e-09
3.99445e-09
4.36886e-09
4.75078e-09
5.13907e-09
5.53267e-09
5.93059e-09
6.33194e-09
6.73586e-09
7.14158e-09
7.54835e-09
7.9555e-09
8.36237e-09
8.76834e-09
9.17282e-09
9.57526e-09
9.97512e-09
1.03719e-08
1.0765e-08
1.1154e-08
1.15383e-08
1.19177e-08
1.22914e-08
1.26591e-08
1.30204e-08
1.33747e-08
1.37217e-08
1.40608e-08
1.43917e-08
1.47138e-08
1.50268e-08
1.53303e-08
1.56237e-08
1.59066e-08
1.61787e-08
1.64395e-08
1.66886e-08
1.69255e-08
1.71498e-08
1.73611e-08
1.7559e-08
1.77431e-08
1.7913e-08
1.80683e-08
1.82086e-08
1.83335e-08
1.84425e-08
1.85355e-08
1.86119e-08
1.86714e-08
1.87137e-08
1.87384e-08
1.87452e-08
1.8734e-08
1.87042e-08
1.86556e-08
1.85879e-08
1.8501e-08
1.83945e-08
1.82684e-08
1.81224e-08
1.79564e-08
1.77702e-08
1.75639e-08
1.73372e-08
1.70904e-08
1.68232e-08
1.65359e-08
1.62286e-08
1.59014e-08
1.55546e-08
1.51884e-08
1.48032e-08
1.43994e-08
1.39776e-08
1.35383e-08
1.30822e-08
1.26101e-08
1.21228e-08
1.16214e-08
1.11069e-08
1.05806e-08
1.00439e-08
9.49844e-09
8.94581e-09
8.38796e-09
7.82696e-09
7.26508e-09
6.70477e-09
6.14869e-09
5.59969e-09
5.06076e-09
4.53508e-09
4.02593e-09
3.53663e-09
3.07055e-09
2.63097e-09
2.22098e-09
1.84341e-09
1.50069e-09
1.19471e-09
9.26705e-10
6.9713e-10
5.05558e-10
3.50625e-10
2.30006e-10
1.40467e-10
7.79618e-11
3.78085e-11
1.49257e-11
4.13505e-12
5.3647e-13
3.12936e-15
2.21393e-15
3.79657e-13
2.9282e-12
1.05769e-11
2.68097e-11
5.53101e-11
9.9688e-11
1.63258e-10
2.48871e-10
3.58792e-10
4.94646e-10
6.574e-10
8.47398e-10
1.06442e-09
1.30779e-09
1.57641e-09
1.86894e-09
2.1838e-09
2.51929e-09
2.87368e-09
3.2452e-09
3.63214e-09
4.03283e-09
4.44568e-09
4.8692e-09
5.30198e-09
5.74272e-09
6.19019e-09
6.64327e-09
7.1009e-09
7.5621e-09
8.02596e-09
8.49163e-09
8.95829e-09
9.42518e-09
9.89159e-09
1.03568e-08
1.08202e-08
1.12812e-08
1.1739e-08
1.21932e-08
1.26431e-08
1.30881e-08
1.35278e-08
1.39615e-08
1.43887e-08
1.48089e-08
1.52215e-08
1.56259e-08
1.60218e-08
1.64085e-08
1.67854e-08
1.71522e-08
1.75082e-08
1.7853e-08
1.81859e-08
1.85066e-08
1.88144e-08
1.91089e-08
1.93896e-08
1.96558e-08
1.99072e-08
2.01432e-08
2.03633e-08
2.0567e-08
2.07538e-08
2.09232e-08
2.10747e-08
2.12079e-08
2.13223e-08
2.14175e-08
2.14929e-08
2.15481e-08
2.15828e-08
2.15965e-08
2.15889e-08
2.15597e-08
2.15082e-08
2.14342e-08
2.13375e-08
2.12178e-08
2.10748e-08
2.09082e-08
2.0718e-08
2.0504e-08
2.02659e-08
2.00039e-08
1.97179e-08
1.94078e-08
1.90738e-08
1.87161e-08
1.83348e-08
1.79302e-08
1.75027e-08
1.70528e-08
1.65809e-08
1.60878e-08
1.55741e-08
1.50406e-08
1.44885e-08
1.39187e-08
1.33325e-08
1.27313e-08
1.21167e-08
1.14904e-08
1.08544e-08
1.02107e-08
9.56167e-09
8.90991e-09
8.25813e-09
7.60931e-09
6.96664e-09
6.33347e-09
5.71338e-09
5.11003e-09
4.52721e-09
3.96872e-09
3.43834e-09
2.93968e-09
2.4761e-09
2.0506e-09
1.66568e-09
1.3232e-09
1.02422e-09
7.68946e-10
5.56593e-10
3.85352e-10
2.52395e-10
1.53931e-10
8.53368e-11
4.13471e-11
1.63113e-11
4.5168e-12
5.8584e-13
3.41701e-15
2.37741e-15
4.0771e-13
3.14498e-12
1.13626e-11
2.88115e-11
5.94688e-11
1.0725e-10
1.75773e-10
2.68181e-10
3.87011e-10
5.34126e-10
7.10695e-10
9.17223e-10
1.15361e-09
1.41923e-09
1.71303e-09
2.03363e-09
2.37943e-09
2.74863e-09
3.13938e-09
3.54981e-09
3.97805e-09
4.42228e-09
4.88076e-09
5.35185e-09
5.83399e-09
6.32572e-09
6.82567e-09
7.33257e-09
7.84524e-09
8.36257e-09
8.88352e-09
9.40713e-09
9.93247e-09
1.04587e-08
1.0985e-08
1.15105e-08
1.20346e-08
1.25564e-08
1.30753e-08
1.35906e-08
1.41017e-08
1.46079e-08
1.51084e-08
1.56028e-08
1.60904e-08
1.65705e-08
1.70425e-08
1.75058e-08
1.79598e-08
1.84038e-08
1.88374e-08
1.92597e-08
1.96703e-08
2.00685e-08
2.04536e-08
2.08252e-08
2.11825e-08
2.15249e-08
2.18518e-08
2.21626e-08
2.24567e-08
2.27335e-08
2.29923e-08
2.32326e-08
2.34538e-08
2.36551e-08
2.38362e-08
2.39963e-08
2.41349e-08
2.42515e-08
2.43454e-08
2.44162e-08
2.44633e-08
2.44862e-08
2.44845e-08
2.44579e-08
2.44055e-08
2.43271e-08
2.42222e-08
2.40907e-08
2.39321e-08
2.37462e-08
2.35327e-08
2.32914e-08
2.30222e-08
2.27251e-08
2.23999e-08
2.20467e-08
2.16656e-08
2.12568e-08
2.08205e-08
2.03571e-08
1.98671e-08
1.93509e-08
1.88092e-08
1.82429e-08
1.76527e-08
1.70398e-08
1.64053e-08
1.57506e-08
1.50771e-08
1.43867e-08
1.36812e-08
1.29627e-08
1.22336e-08
1.14963e-08
1.07537e-08
1.00089e-08
9.26505e-09
8.5257e-09
7.79458e-09
7.07559e-09
6.37285e-09
5.69055e-09
5.03297e-09
4.40438e-09
3.80895e-09
3.2506e-09
2.73296e-09
2.25916e-09
1.83176e-09
1.45254e-09
1.1224e-09
8.41279e-10
6.08018e-10
4.20364e-10
2.74979e-10
1.67519e-10
9.27839e-11
4.49218e-11
1.77115e-11
4.90264e-12
6.35745e-13
3.7078e-15
2.53768e-15
4.35208e-13
3.35738e-12
1.21319e-11
3.07696e-11
6.35316e-11
1.14626e-10
1.8796e-10
2.86951e-10
4.14387e-10
5.7235e-10
7.62195e-10
9.84571e-10
1.23948e-09
1.52635e-09
1.84417e-09
2.19154e-09
2.5668e-09
2.96809e-09
3.39347e-09
3.84095e-09
4.30854e-09
4.79429e-09
5.29634e-09
5.81289e-09
6.34226e-09
6.88284e-09
7.43316e-09
7.99181e-09
8.55748e-09
9.12897e-09
9.70512e-09
1.02849e-08
1.08672e-08
1.14511e-08
1.20357e-08
1.26202e-08
1.32037e-08
1.37853e-08
1.43644e-08
1.494e-08
1.55116e-08
1.60783e-08
1.66395e-08
1.71944e-08
1.77422e-08
1.82824e-08
1.88141e-08
1.93368e-08
1.98496e-08
2.03518e-08
2.08429e-08
2.13219e-08
2.17884e-08
2.22414e-08
2.26804e-08
2.31045e-08
2.35131e-08
2.39054e-08
2.42807e-08
2.46384e-08
2.49775e-08
2.52975e-08
2.55975e-08
2.5877e-08
2.61351e-08
2.63711e-08
2.65843e-08
2.6774e-08
2.69396e-08
2.70803e-08
2.71955e-08
2.72845e-08
2.73466e-08
2.73814e-08
2.73881e-08
2.73665e-08
2.73155e-08
2.72349e-08
2.71241e-08
2.69827e-08
2.68103e-08
2.66067e-08
2.63714e-08
2.61043e-08
2.58051e-08
2.54737e-08
2.51102e-08
2.47144e-08
2.42866e-08
2.3827e-08
2.33357e-08
2.28134e-08
2.22604e-08
2.16774e-08
2.10652e-08
2.04248e-08
1.97571e-08
1.90635e-08
1.83454e-08
1.76044e-08
1.68423e-08
1.60611e-08
1.52631e-08
1.44508e-08
1.36269e-08
1.27946e-08
1.19569e-08
1.11176e-08
1.02803e-08
9.44917e-09
8.62846e-09
7.82264e-09
7.03635e-09
6.27434e-09
5.54137e-09
4.84215e-09
4.18125e-09
3.56288e-09
2.99091e-09
2.46861e-09
1.99856e-09
1.58247e-09
1.22106e-09
9.13992e-10
6.59735e-10
4.55591e-10
2.97712e-10
1.81205e-10
1.00287e-10
4.85244e-11
1.9123e-11
5.29167e-12
6.86067e-13
4.00102e-15
2.69427e-15
4.6207e-13
3.56479e-12
1.28826e-11
3.26784e-11
6.7487e-11
1.21796e-10
1.99785e-10
3.05127e-10
4.40841e-10
6.0921e-10
8.11751e-10
1.04924e-09
1.32176e-09
1.62881e-09
1.96938e-09
2.34205e-09
2.74513e-09
3.1767e-09
3.63473e-09
4.11713e-09
4.62181e-09
5.14671e-09
5.68984e-09
6.2493e-09
6.82329e-09
7.41009e-09
8.0081e-09
8.61582e-09
9.23185e-09
9.85487e-09
1.04836e-08
1.1117e-08
1.17538e-08
1.23931e-08
1.30339e-08
1.36751e-08
1.43159e-08