/*--------------------------------*- C++ -*----------------------------------*\
  =========                 |
  \\      /  F ield         | OpenFOAM: The Open Source CFD Toolbox
   \\    /   O peration     | Website:  https://openfoam.org
    \\  /    A nd           | Version:  12
     \\/     M anipulation  |
\*---------------------------------------------------------------------------*/
FoamFile
{
    format      ascii;
    class       surfaceScalarField;
    location    "9";
    object      phi;
}
// * * * * * * * * * * * * * * * * * * * * * * * * * * * * * * * * * * * * * //

dimensions      [0 3 -1 0 0 0 0];

internalField   nonuniform List<scalar> 
36180
(
-5.39149e-12
5.12725e-12
-1.86014e-11
1.32204e-11
-3.67494e-11
1.81469e-11
-5.67537e-11
1.99995e-11
-7.61331e-11
1.93704e-11
-9.29373e-11
1.67988e-11
-1.05687e-10
1.2741e-11
-1.13264e-10
7.57257e-12
-1.14865e-10
1.59483e-12
-1.09914e-10
-4.95466e-12
-9.80355e-11
-1.18842e-11
-7.89902e-11
-1.9048e-11
-5.26663e-11
-2.63284e-11
-1.90366e-11
-3.36319e-11
2.18435e-11
-4.08837e-11
6.98649e-11
-4.80232e-11
1.24863e-10
-5.50011e-11
1.86638e-10
-6.17766e-11
2.54952e-10
-6.83162e-11
3.29542e-10
-7.45914e-11
4.10119e-10
-8.05787e-11
4.96376e-10
-8.62579e-11
5.87987e-10
-9.16124e-11
6.84613e-10
-9.66277e-11
7.85904e-10
-1.01292e-10
8.91499e-10
-1.05596e-10
1.00103e-09
-1.0953e-10
1.11412e-09
-1.1309e-10
1.23039e-09
-1.16269e-10
1.34945e-09
-1.19065e-10
1.47092e-09
-1.21475e-10
1.59442e-09
-1.23498e-10
1.71956e-09
-1.25136e-10
1.84595e-09
-1.26389e-10
1.9732e-09
-1.27259e-10
2.10096e-09
-1.27751e-10
2.22883e-09
-1.2787e-10
2.35644e-09
-1.27619e-10
2.48345e-09
-1.27007e-10
2.60949e-09
-1.2604e-10
2.73422e-09
-1.24727e-10
2.85729e-09
-1.23075e-10
2.97839e-09
-1.21096e-10
3.09719e-09
-1.18798e-10
3.21338e-09
-1.16193e-10
3.32668e-09
-1.13293e-10
3.43679e-09
-1.10109e-10
3.54344e-09
-1.06653e-10
3.64638e-09
-1.02939e-10
3.74536e-09
-9.898e-11
3.84015e-09
-9.47891e-11
3.93053e-09
-9.03805e-11
4.0163e-09
-8.57681e-11
4.09727e-09
-8.09663e-11
4.17326e-09
-7.59895e-11
4.24411e-09
-7.08521e-11
4.30968e-09
-6.55687e-11
4.36983e-09
-6.01539e-11
4.42445e-09
-5.46222e-11
4.47344e-09
-4.89881e-11
4.51671e-09
-4.3266e-11
4.55418e-09
-3.747e-11
4.58579e-09
-3.16143e-11
4.61151e-09
-2.57127e-11
4.63129e-09
-1.97789e-11
4.64511e-09
-1.38264e-11
4.65298e-09
-7.86815e-12
4.6549e-09
-1.91722e-12
4.65088e-09
4.01382e-12
4.64097e-09
9.91279e-12
4.6252e-09
1.57677e-11
4.60364e-09
2.15667e-11
4.57634e-09
2.72986e-11
4.54339e-09
3.29522e-11
4.50487e-09
3.85168e-11
4.46089e-09
4.3982e-11
4.41155e-09
4.93378e-11
4.35698e-09
5.45742e-11
4.2973e-09
5.96818e-11
4.23264e-09
6.46513e-11
4.16317e-09
6.94738e-11
4.08903e-09
7.41403e-11
4.01039e-09
7.86425e-11
3.92741e-09
8.2972e-11
3.84029e-09
8.71206e-11
3.74921e-09
9.10803e-11
3.65436e-09
9.48434e-11
3.55596e-09
9.84021e-11
3.45421e-09
1.01749e-10
3.34933e-09
1.04876e-10
3.24156e-09
1.07776e-10
3.13111e-09
1.10442e-10
3.01825e-09
1.12866e-10
2.9032e-09
1.1504e-10
2.78624e-09
1.16959e-10
2.66763e-09
1.18613e-10
2.54763e-09
1.19995e-10
2.42654e-09
1.21099e-10
2.30462e-09
1.21916e-10
2.18218e-09
1.22439e-10
2.05952e-09
1.22661e-10
1.93694e-09
1.22573e-10
1.81477e-09
1.22169e-10
1.69333e-09
1.21441e-10
1.57295e-09
1.20381e-10
1.45397e-09
1.18982e-10
1.33673e-09
1.17237e-10
1.22159e-09
1.15139e-10
1.1089e-09
1.12681e-10
9.99045e-10
1.09858e-10
8.92378e-10
1.06664e-10
7.89284e-10
1.03094e-10
6.90136e-10
9.91446e-11
5.95322e-10
9.48132e-11
5.05221e-10
9.0099e-11
4.20217e-10
8.50032e-11
3.40685e-10
7.95293e-11
2.67e-10
7.36845e-11
1.99518e-10
6.74798e-11
1.38586e-10
6.09317e-11
8.45206e-11
5.40634e-11
3.76131e-11
4.69072e-11
-1.89521e-12
3.9507e-11
-3.38171e-11
3.19218e-11
-5.80487e-11
2.42306e-11
-7.4588e-11
1.65393e-11
-8.35775e-11
8.98897e-12
-8.53474e-11
1.77005e-12
-8.04697e-11
-4.87794e-12
-6.98558e-11
-1.06136e-11
-5.48427e-11
-1.5013e-11
-3.73218e-11
-1.75205e-11
-1.98942e-11
-1.74271e-11
-6.05432e-12
-1.38396e-11
-6.05418e-12
-1.05708e-11
1.57078e-11
-3.35639e-11
3.62191e-11
-6.23204e-11
4.69036e-11
-9.14821e-11
4.91609e-11
-1.16569e-10
4.44526e-11
-1.33892e-10
3.41185e-11
-1.40485e-10
1.93289e-11
-1.33993e-10
1.07835e-12
-1.126e-10
-1.98023e-11
-7.49322e-11
-4.26246e-11
-1.99995e-11
-6.68203e-11
5.28719e-11
-9.19212e-11
1.44081e-10
-1.1754e-10
2.53805e-10
-1.43357e-10
3.82023e-10
-1.69104e-10
5.28558e-10
-1.94559e-10
6.93088e-10
-2.19534e-10
8.7518e-10
-2.43869e-10
1.07429e-09
-2.67431e-10
1.28981e-09
-2.90105e-10
1.52102e-09
-3.11792e-10
1.76717e-09
-3.32409e-10
2.02744e-09
-3.51884e-10
2.30097e-09
-3.70156e-10
2.58685e-09
-3.87173e-10
2.88414e-09
-4.02892e-10
3.19189e-09
-4.17276e-10
3.50909e-09
-4.30297e-10
3.83476e-09
-4.41931e-10
4.16785e-09
-4.52161e-10
4.50735e-09
-4.60975e-10
4.85222e-09
-4.68367e-10
5.20142e-09
-4.74335e-10
5.55391e-09
-4.78881e-10
5.90866e-09
-4.82012e-10
6.26465e-09
-4.83739e-10
6.62086e-09
-4.84078e-10
6.97628e-09
-4.83046e-10
7.32994e-09
-4.80666e-10
7.68087e-09
-4.76963e-10
8.02811e-09
-4.71967e-10
8.37074e-09
-4.65707e-10
8.70786e-09
-4.5822e-10
9.03861e-09
-4.49542e-10
9.36212e-09
-4.39711e-10
9.6776e-09
-4.28771e-10
9.98426e-09
-4.16764e-10
1.02813e-08
-4.03736e-10
1.05681e-08
-3.89735e-10
1.0844e-08
-3.74808e-10
1.11082e-08
-3.59007e-10
1.13602e-08
-3.42381e-10
1.15994e-08
-3.24984e-10
1.18253e-08
-3.06867e-10
1.20374e-08
-2.88086e-10
1.22352e-08
-2.68692e-10
1.24184e-08
-2.48742e-10
1.25865e-08
-2.28288e-10
1.27393e-08
-2.07386e-10
1.28764e-08
-1.86088e-10
1.29976e-08
-1.64451e-10
1.31026e-08
-1.42525e-10
1.31914e-08
-1.20366e-10
1.32637e-08
-9.80238e-11
1.33195e-08
-7.55514e-11
1.33587e-08
-5.29991e-11
1.33812e-08
-3.04168e-11
1.33871e-08
-7.85337e-12
1.33765e-08
1.46432e-11
1.33494e-08
3.70261e-11
1.33059e-08
5.92496e-11
1.32462e-08
8.1269e-11
1.31705e-08
1.03041e-10
1.30789e-08
1.24522e-10
1.29718e-08
1.45673e-10
1.28493e-08
1.66452e-10
1.27118e-08
1.8682e-10
1.25596e-08
2.0674e-10
1.23931e-08
2.26175e-10
1.22127e-08
2.45088e-10
1.20187e-08
2.63446e-10
1.18117e-08
2.81213e-10
1.15919e-08
2.98357e-10
1.13601e-08
3.14846e-10
1.11165e-08
3.30647e-10
1.08619e-08
3.4573e-10
1.05967e-08
3.60064e-10
1.03214e-08
3.7362e-10
1.00368e-08
3.86368e-10
9.7434e-09
3.98279e-10
9.44185e-09
4.09325e-10
9.13281e-09
4.19478e-10
8.81696e-09
4.28709e-10
8.49501e-09
4.36991e-10
8.16767e-09
4.44296e-10
7.83569e-09
4.50596e-10
7.49981e-09
4.55865e-10
7.16084e-09
4.60074e-10
6.81955e-09
4.63198e-10
6.47678e-09
4.65209e-10
6.13335e-09
4.66081e-10
5.79014e-09
4.65788e-10
5.448e-09
4.64303e-10
5.10784e-09
4.61602e-10
4.77055e-09
4.57661e-10
4.43707e-09
4.52457e-10
4.10834e-09
4.45966e-10
3.78531e-09
4.3817e-10
3.46894e-09
4.2905e-10
3.1602e-09
4.18589e-10
2.86009e-09
4.06777e-10
2.56958e-09
3.93603e-10
2.28965e-09
3.79064e-10
2.0213e-09
3.63163e-10
1.76549e-09
3.45908e-10
1.52318e-09
3.27317e-10
1.29528e-09
3.0742e-10
1.08271e-09
2.86258e-10
8.86295e-10
2.6389e-10
7.06831e-10
2.40395e-10
5.45017e-10
2.15876e-10
4.01454e-10
1.9047e-10
2.7661e-10
1.6435e-10
1.70792e-10
1.37739e-10
8.40985e-11
1.10924e-10
1.63725e-11
8.42655e-11
-3.28638e-11
5.8225e-11
-6.44785e-11
3.3385e-11
-7.98377e-11
1.04812e-11
-8.08916e-11
-9.55949e-12
-7.03243e-11
-2.55801e-11
-5.16951e-11
-3.61495e-11
-2.96031e-11
-3.95188e-11
-9.85665e-12
-3.35856e-11
-1.59107e-11
-1.0001e-11
2.57119e-11
-3.00841e-11
5.63055e-11
-5.2412e-11
6.92331e-11
-7.07389e-11
6.74891e-11
-7.9892e-11
5.36058e-11
-7.55587e-11
2.97858e-11
-5.41745e-11
-2.05576e-12
-1.28333e-11
-4.02626e-11
5.07898e-11
-8.34261e-11
1.38507e-10
-1.30342e-10
2.51674e-10
-1.79988e-10
3.91251e-10
-2.31498e-10
5.57843e-10
-2.84133e-10
7.51752e-10
-3.37267e-10
9.73011e-10
-3.90364e-10
1.22142e-09
-4.42966e-10
1.49656e-09
-4.9468e-10
1.79786e-09
-5.45168e-10
2.12457e-09
-5.94139e-10
2.4758e-09
-6.4134e-10
2.85056e-09
-6.86553e-10
3.24774e-09
-7.2959e-10
3.66615e-09
-7.70288e-10
4.1045e-09
-8.08508e-10
4.56145e-09
-8.44129e-10
5.03561e-09
-8.77051e-10
5.52552e-09
-9.07188e-10
6.0297e-09
-9.3447e-10
6.54661e-09
-9.58842e-10
7.07471e-09
-9.80259e-10
7.61242e-09
-9.98693e-10
8.15818e-09
-1.01412e-09
8.71038e-09
-1.02654e-09
9.26744e-09
-1.03594e-09
9.82778e-09
-1.04234e-09
1.03898e-08
-1.04577e-09
1.0952e-08
-1.04623e-09
1.15127e-08
-1.04379e-09
1.20705e-08
-1.03847e-09
1.26239e-08
-1.03033e-09
1.31713e-08
-1.01942e-09
1.37114e-08
-1.00582e-09
1.42428e-08
-9.896e-10
1.47641e-08
-9.70828e-10
1.5274e-08
-9.49589e-10
1.57712e-08
-9.25972e-10
1.62545e-08
-9.00068e-10
1.67227e-08
-8.71972e-10
1.71748e-08
-8.41785e-10
1.76096e-08
-8.09608e-10
1.80261e-08
-7.75549e-10
1.84234e-08
-7.39715e-10
1.88007e-08
-7.02216e-10
1.9157e-08
-6.63165e-10
1.94916e-08
-6.22676e-10
1.98037e-08
-5.80863e-10
2.00928e-08
-5.37842e-10
2.03583e-08
-4.93729e-10
2.05995e-08
-4.48639e-10
2.08161e-08
-4.02688e-10
2.10077e-08
-3.55992e-10
2.11738e-08
-3.08665e-10
2.13142e-08
-2.60821e-10
2.14288e-08
-2.12572e-10
2.15173e-08
-1.64029e-10
2.15796e-08
-1.15302e-10
2.16157e-08
-6.64969e-11
2.16255e-08
-1.77206e-11
2.16092e-08
3.09235e-11
2.15669e-08
7.93341e-11
2.14988e-08
1.27412e-10
2.1405e-08
1.7506e-10
2.12858e-08
2.22183e-10
2.11417e-08
2.6869e-10
2.09729e-08
3.1449e-10
2.07798e-08
3.59495e-10
2.0563e-08
4.03622e-10
2.0323e-08
4.46785e-10
2.00602e-08
4.88906e-10
1.97754e-08
5.29904e-10
1.94692e-08
5.69704e-10
1.91421e-08
6.08231e-10
1.87951e-08
6.45413e-10
1.84287e-08
6.81178e-10
1.80439e-08
7.15457e-10
1.76415e-08
7.48182e-10
1.72222e-08
7.79287e-10
1.67871e-08
8.08707e-10
1.63371e-08
8.36378e-10
1.58732e-08
8.62237e-10
1.53963e-08
8.86222e-10
1.49075e-08
9.08273e-10
1.44078e-08
9.28329e-10
1.38985e-08
9.4633e-10
1.33806e-08
9.62218e-10
1.28552e-08
9.75936e-10
1.23237e-08
9.87425e-10
1.17871e-08
9.96629e-10
1.12468e-08
1.00349e-09
1.0704e-08
1.00796e-09
1.01601e-08
1.00998e-09
9.61643e-09
1.0095e-09
9.07427e-09
1.00646e-09
8.53505e-09
1.00082e-09
8.00016e-09
9.92542e-10
7.47104e-09
9.81569e-10
6.94914e-09
9.67867e-10
6.43591e-09
9.514e-10
5.93281e-09
9.32139e-10
5.44134e-09
9.1006e-10
4.96297e-09
8.85149e-10
4.49917e-09
8.574e-10
4.05141e-09
8.26818e-10
3.62115e-09
7.93424e-10
3.2098e-09
7.57253e-10
2.81875e-09
7.18361e-10
2.44934e-09
6.76828e-10
2.10284e-09
6.32763e-10
1.78042e-09
5.86307e-10
1.48317e-09
5.37646e-10
1.21203e-09
4.87014e-10
9.67788e-10
4.34708e-10
7.5104e-10
3.81097e-10
5.62138e-10
3.26641e-10
4.01151e-10
2.71909e-10
2.67814e-10
2.17603e-10
1.61452e-10
1.64586e-10
8.09206e-11
1.13917e-10
2.45128e-11
6.6889e-11
-1.01267e-11
2.50802e-11
-2.61104e-11
-9.59629e-12
-2.74233e-11
-3.48362e-11
-1.90678e-11
-4.78741e-11
-7.27889e-12
-4.53743e-11
-2.31895e-11
-5.91601e-12
3.1629e-11
-1.50181e-11
6.54091e-11
-1.99604e-11
7.41768e-11
-1.46166e-11
6.21461e-11
6.17714e-12
3.28132e-11
4.67819e-11
-1.08179e-11
1.10857e-10
-6.61303e-11
2.01441e-10
-1.30845e-10
3.20999e-10
-2.02983e-10
4.71486e-10
-2.80828e-10
6.54389e-10
-3.62891e-10
8.70775e-10
-4.47883e-10
1.12133e-09
-5.34684e-10
1.40638e-09
-6.22325e-10
1.72598e-09
-7.09959e-10
2.07987e-09
-7.96853e-10
2.46755e-09
-8.82364e-10
2.88831e-09
-9.65934e-10
3.34125e-09
-1.04707e-09
3.82526e-09
-1.12536e-09
4.33911e-09
-1.2004e-09
4.88142e-09
-1.27189e-09
5.45067e-09
-1.33954e-09
6.04527e-09
-1.4031e-09
6.6635e-09
-1.46236e-09
7.30358e-09
-1.51713e-09
7.96367e-09
-1.56727e-09
8.64184e-09
-1.61265e-09
9.33615e-09
-1.65315e-09
1.00446e-08
-1.68871e-09
1.07652e-08
-1.71926e-09
1.14958e-08
-1.74477e-09
1.22345e-08
-1.7652e-09
1.29791e-08
-1.78056e-09
1.37276e-08
-1.79085e-09
1.4478e-08
-1.79612e-09
1.52281e-08
-1.79639e-09
1.59761e-08
-1.79174e-09
1.67198e-08
-1.78222e-09
1.74574e-08
-1.76793e-09
1.81869e-08
-1.74895e-09
1.89065e-08
-1.7254e-09
1.96143e-08
-1.6974e-09
2.03086e-08
-1.66507e-09
2.09875e-08
-1.62854e-09
2.16495e-08
-1.58798e-09
2.2293e-08
-1.54352e-09
2.29163e-08
-1.49533e-09
2.35181e-08
-1.44357e-09
2.40969e-08
-1.38842e-09
2.46514e-08
-1.33006e-09
2.51804e-08
-1.26867e-09
2.56826e-08
-1.20444e-09
2.6157e-08
-1.13755e-09
2.66025e-08
-1.06819e-09
2.70182e-08
-9.96567e-10
2.74032e-08
-9.22869e-10
2.77568e-08
-8.47295e-10
2.80782e-08
-7.7004e-10
2.83668e-08
-6.91301e-10
2.86221e-08
-6.11274e-10
2.88436e-08
-5.30154e-10
2.90309e-08
-4.48134e-10
2.91837e-08
-3.65406e-10
2.93018e-08
-2.8216e-10
2.93851e-08
-1.98581e-10
2.94335e-08
-1.14855e-10
2.94469e-08
-3.11612e-11
2.94255e-08
5.23221e-11
2.93694e-08
1.35421e-10
2.92789e-08
2.17965e-10
2.91541e-08
2.99787e-10
2.89956e-08
3.80724e-10
2.88037e-08
4.60618e-10
2.85788e-08
5.39313e-10
2.83217e-08
6.16659e-10
2.80328e-08
6.92507e-10
2.77129e-08
7.66715e-10
2.73626e-08
8.39142e-10
2.69829e-08
9.09654e-10
2.65744e-08
9.78116e-10
2.61383e-08
1.0444e-09
2.56753e-08
1.10838e-09
2.51865e-08
1.16994e-09
2.4673e-08
1.22894e-09
2.41359e-08
1.28529e-09
2.35764e-08
1.33885e-09
2.29955e-08
1.38953e-09
2.23947e-08
1.4372e-09
2.17752e-08
1.48177e-09
2.11383e-08
1.52312e-09
2.04854e-08
1.56116e-09
1.98179e-08
1.59577e-09
1.91374e-08
1.62687e-09
1.84452e-08
1.65435e-09
1.77431e-08
1.6781e-09
1.70324e-08
1.69805e-09
1.6315e-08
1.71409e-09
1.55923e-08
1.72614e-09
1.48662e-08
1.73409e-09
1.41383e-08
1.73788e-09
1.34103e-08
1.73741e-09
1.26842e-08
1.73261e-09
1.19616e-08
1.72339e-09
1.12445e-08
1.70969e-09
1.05346e-08
1.69145e-09
9.83384e-09
1.66861e-09
9.14412e-09
1.64112e-09
8.46731e-09
1.60894e-09
7.80532e-09
1.57205e-09
7.16003e-09
1.53044e-09
6.53331e-09
1.48411e-09
5.92703e-09
1.4331e-09
5.34301e-09
1.37745e-09
4.78302e-09
1.31724e-09
4.24879e-09
1.25259e-09
3.74197e-09
1.18365e-09
3.26412e-09
1.11062e-09
2.81667e-09
1.03376e-09
2.40093e-09
9.53384e-10
2.01804e-09
8.69901e-10
1.66895e-09
7.83801e-10
1.35436e-09
6.95685e-10
1.07472e-09
6.06285e-10
8.30138e-10
5.16487e-10
6.20383e-10
4.27358e-10
4.44788e-10
3.40182e-10
3.0221e-10
2.56495e-10
1.90965e-10
1.78134e-10
1.08758e-10
1.07286e-10
5.26138e-11
4.65484e-11
1.87832e-11
-1.00577e-12
2.6721e-12
-3.17628e-11
-1.32645e-12
-4.13757e-11
-2.45159e-11
-1.87512e-13
3.18164e-11
6.14918e-12
5.9072e-11
2.5178e-11
5.51475e-11
6.22802e-11
2.50433e-11
1.22121e-10
-2.70276e-11
2.08716e-10
-9.74128e-11
3.25486e-10
-1.82901e-10
4.75301e-10
-2.8066e-10
6.60514e-10
-3.88196e-10
8.83003e-10
-5.03316e-10
1.1442e-09
-6.24084e-10
1.44511e-09
-7.48798e-10
1.78638e-09
-8.75956e-10
2.16829e-09
-1.00423e-09
2.5908e-09
-1.13246e-09
3.05356e-09
-1.25961e-09
3.55596e-09
-1.38477e-09
4.09715e-09
-1.50713e-09
4.67605e-09
-1.62598e-09
5.29138e-09
-1.74068e-09
5.94168e-09
-1.8507e-09
6.62531e-09
-1.95553e-09
7.34052e-09
-2.05475e-09
8.08539e-09
-2.14798e-09
8.85793e-09
-2.2349e-09
9.65602e-09
-2.31523e-09
1.04775e-08
-2.38872e-09
1.132e-08
-2.45519e-09
1.21813e-08
-2.51446e-09
1.3059e-08
-2.56641e-09
1.39507e-08
-2.61093e-09
1.48539e-08
-2.64797e-09
1.57662e-08
-2.67748e-09
1.6685e-08
-2.69944e-09
1.76081e-08
-2.71388e-09
1.85328e-08
-2.72081e-09
1.94567e-08
-2.72032e-09
2.03774e-08
-2.71247e-09
2.12926e-08
-2.69737e-09
2.21998e-08
-2.67513e-09
2.30967e-08
-2.6459e-09
2.39811e-08
-2.60984e-09
2.48509e-08
-2.56711e-09
2.57037e-08
-2.5179e-09
2.65376e-08
-2.46242e-09
2.73505e-08
-2.40088e-09
2.81404e-08
-2.3335e-09
2.89056e-08
-2.26053e-09
2.96443e-08
-2.18221e-09
3.03546e-08
-2.09879e-09
3.10351e-08
-2.01055e-09
3.16842e-08
-1.91775e-09
3.23004e-08
-1.82067e-09
3.28825e-08
-1.7196e-09
3.34291e-08
-1.61481e-09
3.39391e-08
-1.5066e-09
3.44115e-08
-1.39526e-09
3.48453e-08
-1.28108e-09
3.52396e-08
-1.16437e-09
3.55937e-08
-1.0454e-09
3.59069e-08
-9.24483e-10
3.61787e-08
-8.01902e-10
3.64085e-08
-6.7795e-10
3.6596e-08
-5.52913e-10
3.67409e-08
-4.27078e-10
3.68431e-08
-3.00724e-10
3.69023e-08
-1.74128e-10
3.69187e-08
-4.75642e-11
3.68924e-08
7.87008e-11
3.68234e-08
2.04404e-10
3.6712e-08
3.29287e-10
3.65587e-08
4.53099e-10
3.63639e-08
5.75593e-10
3.61279e-08
6.96527e-10
3.58516e-08
8.15667e-10
3.55355e-08
9.32784e-10
3.51803e-08
1.04765e-09
3.4787e-08
1.16006e-09
3.43563e-08
1.26979e-09
3.38893e-08
1.37663e-09
3.33871e-08
1.48039e-09
3.28506e-08
1.58087e-09
3.22811e-08
1.67787e-09
3.16798e-08
1.77121e-09
3.1048e-08
1.86072e-09
3.03871e-08
1.9462e-09
2.96985e-08
2.02749e-09
2.89836e-08
2.10442e-09
2.8244e-08
2.17681e-09
2.74812e-08
2.24452e-09
2.6697e-08
2.30738e-09
2.58929e-08
2.36523e-09
2.50707e-08
2.41792e-09
2.42323e-08
2.46531e-09
2.33794e-08
2.50724e-09
2.25139e-08
2.54357e-09
2.16378e-08
2.57417e-09
2.0753e-08
2.59889e-09
1.98615e-08
2.61761e-09
1.89654e-08
2.63019e-09
1.80668e-08
2.63651e-09
1.71677e-08
2.63646e-09
1.62704e-08
2.62993e-09
1.5377e-08
2.61681e-09
1.44897e-08
2.59701e-09
1.36107e-08
2.57044e-09
1.27422e-08
2.53704e-09
1.18866e-08
2.49674e-09
1.1046e-08
2.44951e-09
1.02227e-08
2.39533e-09
9.41899e-09
2.33419e-09
8.63698e-09
2.26612e-09
7.87889e-09
2.19119e-09
7.14684e-09
2.10949e-09
6.44292e-09
2.02116e-09
5.76913e-09
1.92638e-09
5.12737e-09
1.8254e-09
4.51945e-09
1.71853e-09
3.94705e-09
1.60616e-09
3.41166e-09
1.48877e-09
2.91464e-09
1.36693e-09
2.45708e-09
1.24135e-09
2.03988e-09
1.11289e-09
1.66362e-09
9.82543e-10
1.32859e-09
8.51518e-10
1.03471e-09
7.21238e-10
7.81509e-10
5.93382e-10
5.6808e-10
4.69924e-10
3.93033e-10
3.53182e-10
2.54453e-10
2.45866e-10
1.49865e-10
1.51137e-10
7.61918e-11
7.26675e-11
2.97037e-11
1.47251e-11
6.00458e-12
-1.76766e-11
-1.85114e-11
6.27492e-12
2.55406e-11
3.02882e-11
3.50574e-11
7.68772e-11
8.55669e-12
1.50428e-10
-4.85088e-11
2.54847e-10
-1.31448e-10
3.93564e-10
-2.3613e-10
5.69536e-10
-3.58874e-10
7.85266e-10
-4.9639e-10
1.04281e-09
-6.45742e-10
1.3438e-09
-8.0431e-10
1.68947e-09
-9.69753e-10
2.08066e-09
-1.13998e-09
2.51783e-09
-1.31313e-09
3.00112e-09
-1.48752e-09
3.53033e-09
-1.66168e-09
4.10498e-09
-1.83426e-09
4.72428e-09
-2.00408e-09
5.38722e-09
-2.17007e-09
6.09253e-09
-2.33128e-09
6.83872e-09
-2.48688e-09
7.62411e-09
-2.6361e-09
8.44686e-09
-2.77828e-09
9.30493e-09
-2.91282e-09
1.01962e-08
-3.03923e-09
1.11183e-08
-3.15702e-09
1.20689e-08
-3.26583e-09
1.30455e-08
-3.3653e-09
1.40455e-08
-3.45516e-09
1.50662e-08
-3.53518e-09
1.61049e-08
-3.60515e-09
1.71589e-08
-3.66495e-09
1.82254e-08
-3.71447e-09
1.93016e-08
-3.75365e-09
2.03846e-08
-3.78246e-09
2.14717e-08
-3.80091e-09
2.25599e-08
-3.80904e-09
2.36465e-08
-3.80693e-09
2.47287e-08
-3.79469e-09
2.58038e-08
-3.77245e-09
2.6869e-08
-3.74037e-09
2.79218e-08
-3.69864e-09
2.89594e-08
-3.64747e-09
2.99794e-08
-3.58709e-09
3.09793e-08
-3.51777e-09
3.19566e-08
-3.43976e-09
3.29091e-08
-3.35338e-09
3.38345e-08
-3.25892e-09
3.47307e-08
-3.15671e-09
3.55956e-08
-3.04709e-09
3.64272e-08
-2.93042e-09
3.72237e-08
-2.80705e-09
3.79833e-08
-2.67737e-09
3.87044e-08
-2.54174e-09
3.93853e-08
-2.40056e-09
4.00247e-08
-2.25423e-09
4.06213e-08
-2.10314e-09
4.11737e-08
-1.9477e-09
4.16809e-08
-1.7883e-09
4.21419e-08
-1.62537e-09
4.25558e-08
-1.4593e-09
4.29218e-08
-1.2905e-09
4.32393e-08
-1.11938e-09
4.35077e-08
-9.4633e-10
4.37265e-08
-7.7176e-10
4.38955e-08
-5.96062e-10
4.40144e-08
-4.19626e-10
4.40831e-08
-2.42836e-10
4.41016e-08
-6.60711e-11
4.407e-08
1.10296e-10
4.39885e-08
2.85898e-10
4.38574e-08
4.60378e-10
4.36771e-08
6.33383e-10
4.34482e-08
8.04569e-10
4.31711e-08
9.73601e-10
4.28466e-08
1.14015e-09
4.24755e-08
1.30389e-09
4.20586e-08
1.46452e-09
4.15969e-08
1.62173e-09
4.10915e-08
1.77522e-09
4.05434e-08
1.9247e-09
3.99539e-08
2.06989e-09
3.93243e-08
2.21052e-09
3.86558e-08
2.34632e-09
3.795e-08
2.47702e-09
3.72083e-08
2.60238e-09
3.64324e-08
2.72214e-09
3.56238e-08
2.83606e-09
3.47843e-08
2.94391e-09
3.39157e-08
3.04545e-09
3.30198e-08
3.14046e-09
3.20984e-08
3.22872e-09
3.11536e-08
3.31002e-09
3.01874e-08
3.38414e-09
2.92018e-08
3.45088e-09
2.8199e-08
3.51004e-09
2.71812e-08
3.56143e-09
2.61505e-08
3.60485e-09
2.51093e-08
3.64012e-09
2.40598e-08
3.66707e-09
2.30045e-08
3.68552e-09
2.19456e-08
3.69532e-09
2.08858e-08
3.69631e-09
1.98274e-08
3.68834e-09
1.87729e-08
3.6713e-09
1.77249e-08
3.64506e-09
1.66858e-08
3.60951e-09
1.56582e-08
3.56458e-09
1.46448e-08
3.5102e-09
1.3648e-08
3.44634e-09
1.26703e-08
3.37297e-09
1.17144e-08
3.29013e-09
1.07826e-08
3.19787e-09
9.87754e-09
3.09628e-09
9.0015e-09
2.98552e-09
8.15686e-09
2.8658e-09
7.34587e-09
2.73737e-09
6.57068e-09
2.60059e-09
5.83332e-09
2.45589e-09
5.1357e-09
2.30379e-09
4.47954e-09
2.14493e-09
3.8664e-09
1.98007e-09
3.29761e-09
1.81014e-09
2.77428e-09
1.63622e-09
2.29724e-09
1.45958e-09
1.86703e-09
1.28172e-09
1.48389e-09
1.10438e-09
1.14768e-09
9.29596e-10
8.57888e-10
7.59711e-10
6.13625e-10
5.97445e-10
4.13565e-10
4.45925e-10
2.55958e-10
3.08744e-10
1.38613e-10
1.90011e-10
5.89134e-11
9.44249e-11
1.38315e-11
2.74049e-11
-4.68008e-12
1.29782e-11
1.2562e-11
5.56123e-11
-7.5776e-12
1.31477e-10
-6.73097e-11
2.43924e-10
-1.60957e-10
3.96008e-10
-2.83533e-10
5.90453e-10
-4.30576e-10
8.29628e-10
-5.9805e-10
1.11554e-09
-7.82303e-10
1.44983e-09
-9.8003e-10
1.83376e-09
-1.18825e-09
2.26826e-09
-1.40425e-09
2.75387e-09
-1.6256e-09
3.29083e-09
-1.85009e-09
3.87902e-09
-2.07572e-09
4.51805e-09
-2.3007e-09
5.20719e-09
-2.5234e-09
5.94547e-09
-2.74236e-09
6.73165e-09
-2.95625e-09
7.56424e-09
-3.16388e-09
8.44155e-09
-3.36418e-09
9.36166e-09
-3.55621e-09
1.03225e-08
-3.73909e-09
1.13217e-08
-3.91209e-09
1.2357e-08
-4.07451e-09
1.34258e-08
-4.22578e-09
1.45253e-08
-4.36537e-09
1.56529e-08
-4.49285e-09
1.68055e-08
-4.60784e-09
1.79804e-08
-4.71002e-09
1.91744e-08
-4.79916e-09
2.03845e-08
-4.87505e-09
2.16076e-08
-4.93756e-09
2.28405e-08
-4.98658e-09
2.40801e-08
-5.0221e-09
2.53233e-08
-5.0441e-09
2.65669e-08
-5.05265e-09
2.78078e-08
-5.04782e-09
2.90429e-08
-5.02977e-09
3.02691e-08
-4.99865e-09
3.14834e-08
-4.95468e-09
3.26828e-08
-4.89809e-09
3.38645e-08
-4.82915e-09
3.50256e-08
-4.74817e-09
3.61633e-08
-4.65548e-09
3.7275e-08
-4.55143e-09
3.8358e-08
-4.4364e-09
3.94099e-08
-4.3108e-09
4.04282e-08
-4.17505e-09
4.14107e-08
-4.02958e-09
4.23551e-08
-3.87486e-09
4.32595e-08
-3.71136e-09
4.41217e-08
-3.53957e-09
4.49399e-08
-3.35998e-09
4.57124e-08
-3.1731e-09
4.64377e-08
-2.97945e-09
4.71141e-08
-2.77955e-09
4.77403e-08
-2.57392e-09
4.83151e-08
-2.3631e-09
4.88373e-08
-2.14761e-09
4.9306e-08
-1.92799e-09
4.97203e-08
-1.70478e-09
5.00794e-08
-1.47849e-09
5.03827e-08
-1.24967e-09
5.06298e-08
-1.01883e-09
5.08202e-08
-7.8649e-10
5.09538e-08
-5.53166e-10
5.10303e-08
-3.19362e-10
5.10498e-08
-8.55758e-11
5.10124e-08
1.47701e-10
5.09183e-08
3.79986e-10
5.07679e-08
6.10807e-10
5.05616e-08
8.39701e-10
5.02999e-08
1.06621e-09
4.99836e-08
1.2899e-09
4.96134e-08
1.51033e-09
4.91902e-08
1.72708e-09
4.8715e-08
1.93973e-09
4.81889e-08
2.14789e-09
4.76129e-08
2.35115e-09
4.69885e-08
2.54914e-09
4.63169e-08
2.74149e-09
4.55996e-08
2.92783e-09
4.48381e-08
3.1078e-09
4.40341e-08
3.28107e-09
4.31891e-08
3.4473e-09
4.23051e-08
3.60615e-09
4.13839e-08
3.75732e-09
4.04273e-08
3.90048e-09
3.94374e-08
4.03535e-09
3.84163e-08
4.16161e-09
3.7366e-08
4.27899e-09
3.62888e-08
4.3872e-09
3.5187e-08
4.48597e-09
3.40629e-08
4.57503e-09
3.29188e-08
4.65413e-09
3.17572e-08
4.72301e-09
3.05806e-08
4.78144e-09
2.93915e-08
4.82917e-09
2.81926e-08
4.86599e-09
2.69865e-08
4.89167e-09
2.57758e-08
4.90603e-09
2.45632e-08
4.90886e-09
2.33516e-08
4.9e-09
2.21436e-08
4.87928e-09
2.09421e-08
4.84656e-09
1.97499e-08
4.80174e-09
1.85698e-08
4.7447e-09
1.74046e-08
4.67539e-09
1.62571e-08
4.59377e-09
1.51303e-08
4.49985e-09
1.40267e-08
4.39366e-09
1.29493e-08
4.27529e-09
1.19007e-08
4.1449e-09
1.08835e-08
4.00268e-09
9.90043e-09
3.84892e-09
8.95385e-09
3.68396e-09
8.04619e-09
3.50825e-09
7.17974e-09
3.32234e-09
6.35663e-09
3.1269e-09
5.57885e-09
2.92271e-09
4.84819e-09
2.71073e-09
4.16627e-09
2.49206e-09
3.53448e-09
2.26801e-09
2.95398e-09
2.04009e-09
2.42566e-09
1.81005e-09
1.95013e-09
1.57991e-09
1.52774e-09
1.35199e-09
1.1585e-09
1.12895e-09
8.42122e-10
9.13822e-10
5.78002e-10
7.10044e-10
3.6523e-10
5.21516e-10
2.026e-10
3.5264e-10
8.86514e-11
2.08373e-10
2.17136e-11
9.43424e-11
1.70333e-11
1.96711e-11
-7.10906e-12
8.1146e-11
-6.90526e-11
1.86889e-10
-1.73054e-10
3.39278e-10
-3.13347e-10
5.4052e-10
-4.84777e-10
7.92603e-10
-6.82659e-10
1.09725e-09
-9.027e-10
1.45591e-09
-1.14096e-09
1.86973e-09
-1.39385e-09
2.33954e-09
-1.65805e-09
2.86585e-09
-1.93056e-09
3.44888e-09
-2.20863e-09
4.08852e-09
-2.48973e-09
4.78437e-09
-2.77157e-09
5.53573e-09
-3.05207e-09
6.34164e-09
-3.32931e-09
7.20085e-09
-3.60156e-09
8.11186e-09
-3.86726e-09
9.07294e-09
-4.12496e-09
1.00821e-08
-4.37338e-09
1.11373e-08
-4.61137e-09
1.22361e-08
-4.83786e-09
1.33759e-08
-5.05193e-09
1.45542e-08
-5.25276e-09
1.5768e-08
-5.4396e-09
1.70144e-08
-5.61182e-09
1.82904e-08
-5.76886e-09
1.95929e-08
-5.91025e-09
2.09184e-08
-6.03561e-09
2.22639e-08
-6.14461e-09
2.36258e-08
-6.237e-09
2.50009e-08
-6.3126e-09
2.63856e-08
-6.3713e-09
2.77765e-08
-6.41304e-09
2.91702e-08
-6.43782e-09
3.05633e-08
-6.44571e-09
3.19523e-08
-6.43681e-09
3.33338e-08
-6.4113e-09
3.47045e-08
-6.36936e-09
3.60611e-08
-6.31127e-09
3.74004e-08
-6.23732e-09
3.87191e-08
-6.14785e-09
4.00141e-08
-6.04323e-09
4.12825e-08
-5.92388e-09
4.25213e-08
-5.79024e-09
4.37277e-08
-5.64278e-09
4.48989e-08
-5.48201e-09
4.60323e-08
-5.30846e-09
4.71254e-08
-5.12268e-09
4.81758e-08
-4.92525e-09
4.91812e-08
-4.71676e-09
5.01395e-08
-4.49781e-09
5.10485e-08
-4.26904e-09
5.19065e-08
-4.03108e-09
5.27116e-08
-3.78457e-09
5.34622e-08
-3.53018e-09
5.41569e-08
-3.26857e-09
5.47942e-08
-3.0004e-09
5.53729e-08
-2.72634e-09
5.5892e-08
-2.44706e-09
5.63504e-08
-2.16324e-09
5.67475e-08
-1.87554e-09
5.70824e-08
-1.58462e-09
5.73548e-08
-1.29116e-09
5.75641e-08
-9.95789e-10
5.77101e-08
-6.9917e-10
5.77927e-08
-4.01938e-10
5.78118e-08
-1.04721e-10
5.77676e-08
1.91859e-10
5.76604e-08
4.87194e-10
5.74906e-08
7.80685e-10
5.72585e-08
1.07175e-09
5.69649e-08
1.3598e-09
5.66105e-08
1.64429e-09
5.61962e-08
1.92467e-09
5.57229e-08
2.20039e-09
5.51917e-08
2.47094e-09
5.46038e-08
2.73581e-09
5.39604e-08
2.99449e-09
5.32631e-08
3.2465e-09
5.25132e-08
3.49137e-09
5.17124e-08
3.72864e-09
5.08623e-08
3.95786e-09
4.99648e-08
4.17859e-09
4.90217e-08
4.39041e-09
4.8035e-08
4.59291e-09
4.70066e-08
4.78569e-09
4.59387e-08
4.96834e-09
4.48336e-08
5.1405e-09
4.36934e-08
5.30178e-09
4.25206e-08
5.45182e-09
4.13175e-08
5.59029e-09
4.00867e-08
5.71682e-09
3.88306e-08
5.8311e-09
3.7552e-08
5.9328e-09
3.62534e-08
6.0216e-09
3.49376e-08
6.09722e-09
3.36074e-08
6.15936e-09
3.22657e-08
6.20776e-09
3.09152e-08
6.24214e-09
2.9559e-08
6.26227e-09
2.81999e-08
6.26792e-09
2.6841e-08
6.25888e-09
2.54854e-08
6.23496e-09
2.41359e-08
6.19601e-09
2.27958e-08
6.14189e-09
2.1468e-08
6.07248e-09
2.01557e-08
5.98774e-09
1.88618e-08
5.88762e-09
1.75895e-08
5.77214e-09
1.63418e-08
5.64138e-09
1.51217e-08
5.49544e-09
1.3932e-08
5.33453e-09
1.27758e-08
5.1589e-09
1.16559e-08
4.9689e-09
1.05748e-08
4.76497e-09
9.53545e-09
4.54765e-09
8.5402e-09
4.31759e-09
7.59151e-09
4.0756e-09
6.69162e-09
3.8226e-09
5.84264e-09
3.55971e-09
5.0465e-09
3.2882e-09
4.30494e-09
3.00957e-09
3.6195e-09
2.72553e-09
2.99148e-09
2.43806e-09
2.422e-09
2.14939e-09
1.9119e-09
1.86209e-09
1.46182e-09
1.57904e-09
1.07214e-09
1.3035e-09
7.43048e-10
1.03914e-09
4.745e-10
7.90064e-10
2.6629e-10
5.6085e-10
1.18076e-10
3.56586e-10
2.94454e-11
1.82973e-10
4.64784e-11
2.62346e-11
-3.33429e-11
1.06395e-10
-1.49212e-10
2.41998e-10
-3.08657e-10
4.34555e-10
-5.05903e-10
6.8548e-10
-7.35702e-10
9.96044e-10
-9.93222e-10
1.36732e-09
-1.27398e-09
1.80018e-09
-1.57382e-09
2.29522e-09
-1.88889e-09
2.85279e-09
-2.21562e-09
3.47297e-09
-2.55075e-09
4.15557e-09
-2.89122e-09
4.90009e-09
-3.23425e-09
5.70579e-09
-3.57727e-09
6.57164e-09
-3.91792e-09
7.49634e-09
-4.25401e-09
8.47835e-09
-4.58358e-09
9.51588e-09
-4.90479e-09
1.06069e-08
-5.21599e-09
1.17492e-08
-5.51568e-09
1.29403e-08
-5.80249e-09
1.41776e-08
-6.07518e-09
1.54584e-08
-6.33265e-09
1.67795e-08
-6.57391e-09
1.8138e-08
-6.79808e-09
1.95306e-08
-7.0044e-09
2.09539e-08
-7.19221e-09
2.24046e-08
-7.36092e-09
2.38791e-08
-7.51008e-09
2.53737e-08
-7.63928e-09
2.6885e-08
-7.74824e-09
2.84091e-08
-7.83672e-09
2.99424e-08
-7.90459e-09
3.14811e-08
-7.95178e-09
3.30216e-08
-7.97828e-09
3.45601e-08
-7.98417e-09
3.60928e-08
-7.96959e-09
3.76163e-08
-7.93472e-09
3.91267e-08
-7.87982e-09
4.06207e-08
-7.80521e-09
4.20946e-08
-7.71123e-09
4.3545e-08
-7.59831e-09
4.49687e-08
-7.4669e-09
4.63623e-08
-7.31749e-09
4.77227e-08
-7.15064e-09
4.90469e-08
-6.96692e-09
5.03318e-08
-6.76694e-09
5.15747e-08
-6.55134e-09
5.27728e-08
-6.32081e-09
5.39236e-08
-6.07604e-09
5.50246e-08
-5.81775e-09
5.60735e-08
-5.5467e-09
5.7068e-08
-5.26363e-09
5.80063e-08
-4.96933e-09
5.88863e-08
-4.66459e-09
5.97064e-08
-4.35022e-09
6.04648e-08
-4.027e-09
6.11602e-08
-3.69578e-09
6.17912e-08
-3.35735e-09
6.23567e-08
-3.01254e-09
6.28556e-08
-2.66218e-09
6.32871e-08
-2.30707e-09
6.36506e-08
-1.94803e-09
6.39453e-08
-1.58587e-09
6.41709e-08
-1.22139e-09
6.43271e-08
-8.55381e-10
6.44138e-08
-4.88625e-10
6.44309e-08
-1.21893e-10
6.43787e-08
2.44054e-10
6.42575e-08
6.08471e-10
6.40675e-08
9.70623e-10
6.38095e-08
1.32979e-09
6.3484e-08
1.68527e-09
6.3092e-08
2.03638e-09
6.26342e-08
2.38243e-09
6.21118e-08
2.72277e-09
6.1526e-08
3.05676e-09
6.08781e-08
3.38377e-09
6.01694e-08
3.70319e-09
5.94014e-08
4.01443e-09
5.85759e-08
4.3169e-09
5.76945e-08
4.61003e-09
5.67591e-08
4.89329e-09
5.57715e-08
5.16614e-09
5.47339e-08
5.42805e-09
5.36483e-08
5.67852e-09
5.2517e-08
5.91705e-09
5.13421e-08
6.14317e-09
5.01262e-08
6.35642e-09
4.88717e-08
6.55633e-09
4.75811e-08
6.74247e-09
4.62569e-08
6.91441e-09
4.4902e-08
7.07173e-09
4.35191e-08
7.21405e-09
4.21109e-08
7.34096e-09
4.06805e-08
7.4521e-09
3.92306e-08
7.54711e-09
3.77643e-08
7.62565e-09
3.62847e-08
7.68738e-09
3.47948e-08
7.73201e-09
3.32978e-08
7.75925e-09
3.1797e-08
7.76882e-09
3.02954e-08
7.76048e-09
2.87963e-08
7.73403e-09
2.7303e-08
7.68928e-09
2.58189e-08
7.62607e-09
2.43471e-08
7.54429e-09
2.28909e-08
7.44387e-09
2.14538e-08
7.32478e-09
2.00389e-08
7.18706e-09
1.86495e-08
7.03079e-09
1.72888e-08
6.85613e-09
1.596e-08
6.6633e-09
1.46663e-08
6.45263e-09
1.34107e-08
6.22452e-09
1.21962e-08
5.97949e-09
1.10257e-08
5.71816e-09
9.90196e-09
5.44129e-09
8.82779e-09
5.14978e-09
7.80569e-09
4.8447e-09
6.83812e-09
4.52729e-09
5.92735e-09
4.19898e-09
5.07551e-09
3.86141e-09
4.28458e-09
3.51647e-09
3.55633e-09
3.1663e-09
2.8924e-09
2.81332e-09
2.29422e-09
2.46027e-09
1.76306e-09
2.1102e-09
1.30003e-09
1.76653e-09