/*--------------------------------*- C++ -*----------------------------------*\
  =========                 |
  \\      /  F ield         | OpenFOAM: The Open Source CFD Toolbox
   \\    /   O peration     | Website:  https://openfoam.org
    \\  /    A nd           | Version:  12
     \\/     M anipulation  |
\*---------------------------------------------------------------------------*/
FoamFile
{
    format      ascii;
    class       volVectorField;
    location    "9";
    object      U;
}
// * * * * * * * * * * * * * * * * * * * * * * * * * * * * * * * * * * * * * //

dimensions      [0 1 -1 0 0 0 0];

internalField   nonuniform List<vector> 
18225
(
(-1.03393e-07 1.99926e-07 0)
(-7.539e-07 5.09455e-07 0)
(-1.82225e-06 7.07072e-07 0)
(-3.14539e-06 7.99894e-07 0)
(-4.51038e-06 8.15356e-07 0)
(-5.7592e-06 7.74323e-07 0)
(-6.77711e-06 6.93075e-07 0)
(-7.47837e-06 5.84481e-07 0)
(-7.79933e-06 4.58287e-07 0)
(-7.69415e-06 3.21524e-07 0)
(-7.13136e-06 1.7918e-07 0)
(-6.09075e-06 3.48049e-08 0)
(-4.56093e-06 -1.09089e-07 0)
(-2.5375e-06 -2.50749e-07 0)
(-2.16832e-08 -3.88934e-07 0)
(2.98078e-06 -5.22777e-07 0)
(6.46048e-06 -6.51652e-07 0)
(1.0405e-05 -7.75118e-07 0)
(1.47994e-05 -8.92843e-07 0)
(1.96269e-05 -1.0046e-06 0)
(2.48685e-05 -1.11019e-06 0)
(3.05042e-05 -1.20951e-06 0)
(3.65126e-05 -1.30244e-06 0)
(4.28712e-05 -1.38891e-06 0)
(4.95567e-05 -1.46887e-06 0)
(5.6545e-05 -1.54229e-06 0)
(6.38115e-05 -1.60915e-06 0)
(7.13311e-05 -1.66943e-06 0)
(7.90781e-05 -1.72316e-06 0)
(8.70269e-05 -1.77035e-06 0)
(9.51514e-05 -1.81103e-06 0)
(0.000103426 -1.84526e-06 0)
(0.000111823 -1.87309e-06 0)
(0.000120318 -1.89461e-06 0)
(0.000128885 -1.90988e-06 0)
(0.000137498 -1.91901e-06 0)
(0.000146131 -1.92212e-06 0)
(0.00015476 -1.91931e-06 0)
(0.00016336 -1.91072e-06 0)
(0.000171906 -1.8965e-06 0)
(0.000180375 -1.8768e-06 0)
(0.000188744 -1.85179e-06 0)
(0.00019699 -1.82163e-06 0)
(0.000205091 -1.78651e-06 0)
(0.000213027 -1.74663e-06 0)
(0.000220777 -1.70217e-06 0)
(0.000228322 -1.65335e-06 0)
(0.000235642 -1.60038e-06 0)
(0.00024272 -1.54347e-06 0)
(0.000249538 -1.48285e-06 0)
(0.000256082 -1.41874e-06 0)
(0.000262335 -1.35137e-06 0)
(0.000268283 -1.28098e-06 0)
(0.000273914 -1.20779e-06 0)
(0.000279214 -1.13203e-06 0)
(0.000284172 -1.05395e-06 0)
(0.000288779 -9.73774e-07 0)
(0.000293024 -8.91733e-07 0)
(0.000296899 -8.08056e-07 0)
(0.000300398 -7.22971e-07 0)
(0.000303513 -6.36703e-07 0)
(0.000306239 -5.49472e-07 0)
(0.000308571 -4.61493e-07 0)
(0.000310507 -3.72978e-07 0)
(0.000312043 -2.84134e-07 0)
(0.000313177 -1.95161e-07 0)
(0.000313909 -1.06255e-07 0)
(0.000314239 -1.76042e-08 0)
(0.000314168 7.05802e-08 0)
(0.000313697 1.58158e-07 0)
(0.00031283 2.4496e-07 0)
(0.000311569 3.30796e-07 0)
(0.000309919 4.15507e-07 0)
(0.000307884 4.9894e-07 0)
(0.00030547 5.80947e-07 0)
(0.000302684 6.61385e-07 0)
(0.000299533 7.40116e-07 0)
(0.000296024 8.17005e-07 0)
(0.000292165 8.91927e-07 0)
(0.000287967 9.64755e-07 0)
(0.000283437 1.03537e-06 0)
(0.000278588 1.10366e-06 0)
(0.000273428 1.16951e-06 0)
(0.000267971 1.23281e-06 0)
(0.000262227 1.29346e-06 0)
(0.00025621 1.35134e-06 0)
(0.000249931 1.40636e-06 0)
(0.000243406 1.4584e-06 0)
(0.000236647 1.50737e-06 0)
(0.00022967 1.55317e-06 0)
(0.000222489 1.59567e-06 0)
(0.00021512 1.63479e-06 0)
(0.000207579 1.6704e-06 0)
(0.000199883 1.70241e-06 0)
(0.000192048 1.73068e-06 0)
(0.000184093 1.7551e-06 0)
(0.000176036 1.77556e-06 0)
(0.000167894 1.79191e-06 0)
(0.000159688 1.80403e-06 0)
(0.000151436 1.81177e-06 0)
(0.000143158 1.81499e-06 0)
(0.000134876 1.81354e-06 0)
(0.000126611 1.80725e-06 0)
(0.000118384 1.79597e-06 0)
(0.000110217 1.77951e-06 0)
(0.000102132 1.75769e-06 0)
(9.41543e-05 1.73031e-06 0)
(8.63057e-05 1.69719e-06 0)
(7.86107e-05 1.65811e-06 0)
(7.10939e-05 1.61285e-06 0)
(6.378e-05 1.5612e-06 0)
(5.66944e-05 1.50291e-06 0)
(4.98626e-05 1.43777e-06 0)
(4.33102e-05 1.36553e-06 0)
(3.70631e-05 1.28594e-06 0)
(3.11472e-05 1.19879e-06 0)
(2.55882e-05 1.10384e-06 0)
(2.04113e-05 1.0009e-06 0)
(1.56413e-05 8.89796e-07 0)
(1.13022e-05 7.70439e-07 0)
(7.41632e-06 6.42821e-07 0)
(4.00444e-06 5.07078e-07 0)
(1.08472e-06 3.63569e-07 0)
(-1.32807e-06 2.12993e-07 0)
(-3.22371e-06 5.65139e-08 0)
(-4.5982e-06 -1.03937e-07 0)
(-5.45565e-06 -2.65356e-07 0)
(-5.8112e-06 -4.23143e-07 0)
(-5.69432e-06 -5.7041e-07 0)
(-5.15361e-06 -6.97304e-07 0)
(-4.26227e-06 -7.89782e-07 0)
(-3.12673e-06 -8.2874e-07 0)
(-1.90641e-06 -7.87071e-07 0)
(-8.3678e-07 -6.21505e-07 0)
(-1.31624e-07 -2.84891e-07 0)
(-1.8385e-07 1.38136e-06 0)
(-1.40239e-06 3.30885e-06 0)
(-3.18918e-06 4.42175e-06 0)
(-5.21855e-06 4.81027e-06 0)
(-7.12021e-06 4.59817e-06 0)
(-8.60755e-06 3.90685e-06 0)
(-9.45851e-06 2.84334e-06 0)
(-9.49621e-06 1.4974e-06 0)
(-8.58151e-06 -5.75562e-08 0)
(-6.60782e-06 -1.76238e-06 0)
(-3.49641e-06 -3.56967e-06 0)
(8.07988e-07 -5.44146e-06 0)
(6.34082e-06 -7.34727e-06 0)
(1.31209e-05 -9.26257e-06 0)
(2.1153e-05 -1.11674e-05 0)
(3.043e-05 -1.30455e-05 0)
(4.09346e-05 -1.48836e-05 0)
(5.26411e-05 -1.66704e-05 0)
(6.55164e-05 -1.83967e-05 0)
(7.9521e-05 -2.00548e-05 0)
(9.461e-05 -2.1638e-05 0)
(0.000110734 -2.31408e-05 0)
(0.00012784 -2.45585e-05 0)
(0.00014587 -2.58871e-05 0)
(0.000164766 -2.71234e-05 0)
(0.000184464 -2.82644e-05 0)
(0.0002049 -2.9308e-05 0)
(0.000226009 -3.02523e-05 0)
(0.000247722 -3.10959e-05 0)
(0.000269973 -3.18379e-05 0)
(0.00029269 -3.24776e-05 0)
(0.000315805 -3.30147e-05 0)
(0.000339247 -3.34492e-05 0)
(0.000362946 -3.37815e-05 0)
(0.000386833 -3.40121e-05 0)
(0.000410837 -3.41421e-05 0)
(0.000434891 -3.41726e-05 0)
(0.000458925 -3.4105e-05 0)
(0.000482873 -3.3941e-05 0)
(0.000506669 -3.36825e-05 0)
(0.000530247 -3.33316e-05 0)
(0.000553546 -3.28907e-05 0)
(0.000576502 -3.23623e-05 0)
(0.000599057 -3.17491e-05 0)
(0.000621153 -3.10539e-05 0)
(0.000642732 -3.02799e-05 0)
(0.000663742 -2.943e-05 0)
(0.00068413 -2.85078e-05 0)
(0.000703848 -2.75165e-05 0)
(0.000722848 -2.64596e-05 0)
(0.000741085 -2.53409e-05 0)
(0.000758517 -2.41639e-05 0)
(0.000775105 -2.29324e-05 0)
(0.000790811 -2.16501e-05 0)
(0.000805601 -2.03211e-05 0)
(0.000819444 -1.8949e-05 0)
(0.00083231 -1.75377e-05 0)
(0.000844172 -1.60912e-05 0)
(0.000855008 -1.46133e-05 0)
(0.000864795 -1.31079e-05 0)
(0.000873516 -1.15788e-05 0)
(0.000881155 -1.00298e-05 0)
(0.000887698 -8.46459e-06 0)
(0.000893136 -6.88699e-06 0)
(0.00089746 -5.3006e-06 0)
(0.000900666 -3.709e-06 0)
(0.000902749 -2.11574e-06 0)
(0.00090371 -5.2424e-07 0)
(0.00090355 1.06211e-06 0)
(0.000902275 2.64003e-06 0)
(0.00089989 4.20631e-06 0)
(0.000896405 5.7578e-06 0)
(0.000891831 7.29144e-06 0)
(0.00088618 8.80429e-06 0)
(0.000879469 1.02935e-05 0)
(0.000871714 1.17561e-05 0)
(0.000862936 1.31896e-05 0)
(0.000853154 1.45913e-05 0)
(0.000842393 1.59585e-05 0)
(0.000830677 1.72888e-05 0)
(0.000818034 1.85799e-05 0)
(0.000804491 1.98292e-05 0)
(0.000790079 2.10346e-05 0)
(0.000774829 2.21937e-05 0)
(0.000758776 2.33044e-05 0)
(0.000741953 2.43646e-05 0)
(0.000724398 2.5372e-05 0)
(0.000706148 2.63247e-05 0)
(0.000687243 2.72206e-05 0)
(0.000667724 2.80577e-05 0)
(0.000647633 2.8834e-05 0)
(0.000627015 2.95474e-05 0)
(0.000605913 3.0196e-05 0)
(0.000584376 3.07778e-05 0)
(0.00056245 3.12909e-05 0)
(0.000540185 3.17332e-05 0)
(0.000517632 3.21028e-05 0)
(0.000494842 3.23978e-05 0)
(0.00047187 3.2616e-05 0)
(0.000448769 3.27556e-05 0)
(0.000425596 3.28146e-05 0)
(0.000402407 3.27909e-05 0)
(0.000379262 3.26826e-05 0)
(0.000356219 3.24878e-05 0)
(0.00033334 3.22046e-05 0)
(0.000310686 3.1831e-05 0)
(0.000288321 3.13652e-05 0)
(0.000266307 3.08056e-05 0)
(0.000244711 3.01505e-05 0)
(0.000223598 2.93984e-05 0)
(0.000203033 2.8548e-05 0)
(0.000183083 2.75982e-05 0)
(0.000163814 2.65482e-05 0)
(0.000145294 2.53977e-05 0)
(0.000127587 2.41467e-05 0)
(0.00011076 2.27958e-05 0)
(9.48751e-05 2.13463e-05 0)
(7.9995e-05 1.98004e-05 0)
(6.61782e-05 1.81615e-05 0)
(5.34801e-05 1.64346e-05 0)
(4.19513e-05 1.46262e-05 0)
(3.1636e-05 1.27454e-05 0)
(2.2571e-05 1.08044e-05 0)
(1.4783e-05 8.81934e-06 0)
(8.28636e-06 6.81131e-06 0)
(3.08008e-06 4.80826e-06 0)
(-8.56109e-07 2.84682e-06 0)
(-3.56634e-06 9.74928e-07 0)
(-5.12444e-06 -7.44871e-07 0)
(-5.64018e-06 -2.23155e-06 0)
(-5.26649e-06 -3.38089e-06 0)
(-4.2107e-06 -4.06096e-06 0)
(-2.75708e-06 -4.10853e-06 0)
(-1.29276e-06 -3.32972e-06 0)
(-1.86967e-07 -1.51568e-06 0)
(-1.78383e-07 2.87428e-06 0)
(-1.31042e-06 6.48829e-06 0)
(-2.8016e-06 8.25456e-06 0)
(-4.26291e-06 8.47159e-06 0)
(-5.27329e-06 7.41012e-06 0)
(-5.50311e-06 5.30952e-06 0)
(-4.68911e-06 2.37829e-06 0)
(-2.61565e-06 -1.20518e-06 0)
(8.92424e-07 -5.28995e-06 0)
(5.97372e-06 -9.74938e-06 0)
(1.27342e-05 -1.44775e-05 0)
(2.12513e-05 -1.93858e-05 0)
(3.15769e-05 -2.44003e-05 0)
(4.3741e-05 -2.94588e-05 0)
(5.77543e-05 -3.45092e-05 0)
(7.36106e-05 -3.95073e-05 0)
(9.12888e-05 -4.4416e-05 0)
(0.000110755 -4.92033e-05 0)
(0.000131964 -5.38422e-05 0)
(0.00015486 -5.83094e-05 0)
(0.00017938 -6.2585e-05 0)
(0.000205452 -6.6652e-05 0)
(0.000232999 -7.04955e-05 0)
(0.000261936 -7.41032e-05 0)
(0.000292176 -7.74642e-05 0)
(0.000323625 -8.05698e-05 0)
(0.000356187 -8.34122e-05 0)
(0.000389763 -8.59856e-05 0)
(0.00042425 -8.8285e-05 0)
(0.000459545 -9.03069e-05 0)
(0.000495543 -9.20486e-05 0)
(0.000532137 -9.35086e-05 0)
(0.000569219 -9.46864e-05 0)
(0.000606684 -9.55824e-05 0)
(0.000644422 -9.61977e-05 0)
(0.000682328 -9.65345e-05 0)
(0.000720295 -9.65956e-05 0)
(0.000758219 -9.63846e-05 0)
(0.000795995 -9.59058e-05 0)
(0.000833522 -9.51642e-05 0)
(0.000870699 -9.41653e-05 0)
(0.000907428 -9.29154e-05 0)
(0.000943614 -9.14212e-05 0)
(0.000979164 -8.96901e-05 0)
(0.00101399 -8.77297e-05 0)
(0.001048 -8.55484e-05 0)
(0.00108111 -8.31546e-05 0)
(0.00111324 -8.05576e-05 0)
(0.00114432 -7.77665e-05 0)
(0.00117427 -7.4791e-05 0)
(0.00120302 -7.16411e-05 0)
(0.0012305 -6.83268e-05 0)
(0.00125666 -6.48585e-05 0)
(0.00128143 -6.12467e-05 0)
(0.00130476 -5.75021e-05 0)
(0.0013266 -5.36352e-05 0)
(0.0013469 -4.96568e-05 0)
(0.00136563 -4.55779e-05 0)
(0.00138274 -4.14091e-05 0)
(0.0013982 -3.71612e-05 0)
(0.00141198 -3.28449e-05 0)
(0.00142405 -2.84709e-05 0)
(0.00143441 -2.40498e-05 0)
(0.00144301 -1.95918e-05 0)
(0.00144987 -1.51074e-05 0)
(0.00145496 -1.06066e-05 0)
(0.00145828 -6.09931e-06 0)
(0.00145983 -1.5954e-06 0)
(0.00145961 2.89559e-06 0)
(0.00145763 7.36432e-06 0)
(0.0014539 1.18016e-05 0)
(0.00144843 1.61986e-05 0)
(0.00144124 2.05465e-05 0)
(0.00143235 2.48368e-05 0)
(0.00142178 2.90613e-05 0)
(0.00140956 3.32119e-05 0)
(0.00139572 3.72809e-05 0)
(0.00138029 4.12605e-05 0)
(0.00136331 4.51435e-05 0)
(0.00134482 4.89225e-05 0)
(0.00132486 5.25907e-05 0)
(0.00130347 5.61411e-05 0)
(0.00128071 5.95671e-05 0)
(0.00125662 6.28621e-05 0)
(0.00123126 6.602e-05 0)
(0.00120467 6.90344e-05 0)
(0.00117692 7.18992e-05 0)
(0.00114808 7.46085e-05 0)
(0.00111819 7.71563e-05 0)
(0.00108732 7.9537e-05 0)
(0.00105555 8.17447e-05 0)
(0.00102294 8.37739e-05 0)
(0.000989564 8.56189e-05 0)
(0.000955493 8.72743e-05 0)
(0.000920803 8.87344e-05 0)
(0.000885573 8.9994e-05 0)
(0.000849882 9.10475e-05 0)
(0.000813812 9.18896e-05 0)
(0.000777446 9.25151e-05 0)
(0.000740872 9.29186e-05 0)
(0.000704175 9.3095e-05 0)
(0.000667445 9.30391e-05 0)
(0.000630774 9.27461e-05 0)
(0.000594254 9.22111e-05 0)
(0.000557979 9.14295e-05 0)
(0.000522044 9.03967e-05 0)
(0.000486548 8.91089e-05 0)
(0.000451588 8.7562e-05 0)
(0.000417262 8.5753e-05 0)
(0.000383671 8.3679e-05 0)
(0.000350913 8.13379e-05 0)
(0.00031909 7.87285e-05 0)
(0.000288301 7.58506e-05 0)
(0.000258644 7.27051e-05 0)
(0.000230216 6.92944e-05 0)
(0.000203112 6.56229e-05 0)
(0.000177425 6.16971e-05 0)
(0.000153242 5.7526e-05 0)
(0.000130647 5.31221e-05 0)
(0.000109716 4.8502e-05 0)
(9.05188e-05 4.3687e-05 0)
(7.31133e-05 3.87046e-05 0)
(5.75471e-05 3.35899e-05 0)
(4.38529e-05 2.83871e-05 0)
(3.20458e-05 2.31521e-05 0)
(2.21202e-05 1.79549e-05 0)
(1.40455e-05 1.28834e-05 0)
(7.76159e-06 8.04692e-06 0)
(3.1736e-06 3.58186e-06 0)
(1.46276e-07 -3.4282e-07 0)
(-1.50202e-06 -3.51892e-06 0)
(-2.00806e-06 -5.69206e-06 0)
(-1.68173e-06 -6.55392e-06 0)
(-9.28506e-07 -5.73138e-06 0)
(-1.54167e-07 -2.77546e-06 0)
(-1.26163e-07 4.02535e-06 0)
(-7.55085e-07 8.66062e-06 0)
(-1.30444e-06 1.03887e-05 0)
(-1.38094e-06 9.70224e-06 0)
(-5.81023e-07 7.01689e-06 0)
(1.42296e-06 2.68905e-06 0)
(4.89981e-06 -2.97225e-06 0)
(1.00736e-05 -9.69965e-06 0)
(1.71288e-05 -1.72628e-05 0)
(2.6214e-05 -2.54639e-05 0)
(3.74446e-05 -3.41332e-05 0)
(5.0906e-05 -4.31253e-05 0)
(6.66565e-05 -5.23153e-05 0)
(8.47303e-05 -6.1596e-05 0)
(0.000105139 -7.0875e-05 0)
(0.000127875 -8.00729e-05 0)
(0.000152914 -8.91209e-05 0)
(0.000180212 -9.79594e-05 0)
(0.000209717 -0.000106537 0)
(0.000241358 -0.000114809 0)
(0.000275058 -0.000122736 0)
(0.000310728 -0.000130284 0)
(0.000348269 -0.000137425 0)
(0.000387577 -0.000144133 0)
(0.000428539 -0.000150386 0)
(0.000471037 -0.000156166 0)
(0.00051495 -0.000161457 0)
(0.000560149 -0.000166247 0)
(0.000606503 -0.000170526 0)
(0.00065388 -0.000174285 0)
(0.000702144 -0.000177518 0)
(0.000751157 -0.000180223 0)
(0.000800781 -0.000182396 0)
(0.000850876 -0.000184038 0)
(0.000901303 -0.000185151 0)
(0.000951924 -0.000185737 0)
(0.0010026 -0.000185803 0)
(0.0010532 -0.000185353 0)
(0.00110357 -0.000184395 0)
(0.0011536 -0.00018294 0)
(0.00120315 -0.000180996 0)
(0.00125209 -0.000178575 0)
(0.00130029 -0.00017569 0)
(0.00134764 -0.000172354 0)
(0.00139401 -0.000168582 0)
(0.0014393 -0.000164389 0)
(0.00148338 -0.00015979 0)
(0.00152616 -0.000154804 0)
(0.00156754 -0.000149447 0)
(0.0016074 -0.000143737 0)
(0.00164568 -0.000137694 0)
(0.00168226 -0.000131336 0)
(0.00171709 -0.000124683 0)
(0.00175006 -0.000117754 0)
(0.00178113 -0.00011057 0)
(0.00181021 -0.00010315 0)
(0.00183725 -9.55164e-05 0)
(0.00186219 -8.76883e-05 0)
(0.00188498 -7.96864e-05 0)
(0.00190557 -7.15313e-05 0)
(0.00192394 -6.32433e-05 0)
(0.00194004 -5.48428e-05 0)
(0.00195384 -4.63498e-05 0)
(0.00196532 -3.77843e-05 0)
(0.00197447 -2.9166e-05 0)
(0.00198127 -2.05141e-05 0)
(0.00198571 -1.18478e-05 0)
(0.0019878 -3.18593e-06 0)
(0.00198753 5.45325e-06 0)
(0.00198491 1.40516e-05 0)
(0.00197996 2.25916e-05 0)
(0.00197269 3.1056e-05 0)
(0.00196312 3.94278e-05 0)
(0.00195128 4.76907e-05 0)
(0.00193721 5.58287e-05 0)
(0.00192093 6.38262e-05 0)
(0.00190249 7.1668e-05 0)
(0.00188193 7.93392e-05 0)
(0.0018593 8.68256e-05 0)
(0.00183465 9.4113e-05 0)
(0.00180803 0.000101188 0)
(0.00177951 0.000108037 0)
(0.00174915 0.000114647 0)
(0.00171701 0.000121006 0)
(0.00168317 0.000127101 0)
(0.00164769 0.00013292 0)
(0.00161066 0.000138451 0)
(0.00157215 0.000143683 0)
(0.00153225 0.000148604 0)
(0.00149104 0.000153203 0)
(0.00144861 0.00015747 0)
(0.00140505 0.000161392 0)
(0.00136047 0.000164961 0)
(0.00131495 0.000168164 0)
(0.0012686 0.000170993 0)
(0.00122151 0.000173436 0)
(0.0011738 0.000175483 0)
(0.00112558 0.000177125 0)
(0.00107694 0.000178352 0)
(0.00102802 0.000179155 0)
(0.000978915 0.000179523 0)
(0.000929751 0.000179449 0)
(0.000880646 0.000178922 0)
(0.000831721 0.000177936 0)
(0.000783099 0.000176482 0)
(0.000734905 0.000174553 0)
(0.000687265 0.000172142 0)
(0.000640305 0.000169244 0)
(0.000594153 0.000165854 0)
(0.000548937 0.000161969 0)
(0.000504784 0.000157586 0)
(0.000461823 0.000152706 0)
(0.000420178 0.00014733 0)
(0.000379975 0.000141462 0)
(0.000341335 0.00013511 0)
(0.000304377 0.000128285 0)
(0.000269215 0.000121001 0)
(0.000235957 0.000113279 0)
(0.000204705 0.000105146 0)
(0.000175552 9.66331e-05 0)
(0.00014858 8.7784e-05 0)
(0.000123862 7.86505e-05 0)
(0.000101453 6.92976e-05 0)
(8.13932e-05 5.98051e-05 0)
(6.37017e-05 5.02707e-05 0)
(4.83755e-05 4.08138e-05 0)
(3.5385e-05 3.15794e-05 0)
(2.46702e-05 2.27436e-05 0)
(1.61369e-05 1.45194e-05 0)
(9.65201e-06 7.16318e-06 0)
(5.0393e-06 9.83068e-07 0)
(2.0733e-06 -3.65296e-06 0)
(4.70781e-07 -6.3058e-06 0)
(-1.1902e-07 -6.4461e-06 0)
(-7.8165e-08 -3.42729e-06 0)
(-5.84004e-08 4.47437e-06 0)
(2.8921e-08 8.95118e-06 0)
(7.96216e-07 9.59772e-06 0)
(2.60799e-06 7.04074e-06 0)
(5.80654e-06 1.80969e-06 0)
(1.0686e-05 -5.63992e-06 0)
(1.74968e-05 -1.49103e-05 0)
(2.64502e-05 -2.56535e-05 0)
(3.77219e-05 -3.75652e-05 0)
(5.14541e-05 -5.03798e-05 0)
(6.77579e-05 -6.38652e-05 0)
(8.67153e-05 -7.78188e-05 0)
(0.000108381 -9.20632e-05 0)
(0.000132787 -0.000106444 0)
(0.000159939 -0.000120824 0)
(0.000189825 -0.000135086 0)
(0.000222411 -0.000149124 0)
(0.000257649 -0.000162848 0)
(0.000295472 -0.000176177 0)
(0.000335801 -0.00018904 0)
(0.000378541 -0.000201376 0)
(0.00042359 -0.000213129 0)
(0.000470832 -0.000224252 0)
(0.000520142 -0.000234705 0)
(0.00057139 -0.000244451 0)
(0.000624435 -0.000253459 0)
(0.000679132 -0.000261704 0)
(0.00073533 -0.000269165 0)
(0.000792875 -0.000275823 0)
(0.000851606 -0.000281665 0)
(0.000911363 -0.000286679 0)
(0.000971981 -0.000290861 0)
(0.0010333 -0.000294204 0)
(0.00109514 -0.000296708 0)
(0.00115734 -0.000298376 0)
(0.00121975 -0.00029921 0)
(0.00128218 -0.000299219 0)
(0.00134448 -0.000298412 0)
(0.00140648 -0.000296799 0)
(0.00146802 -0.000294395 0)
(0.00152895 -0.000291216 0)
(0.00158911 -0.000287279 0)
(0.00164835 -0.000282603 0)
(0.00170652 -0.000277209 0)
(0.00176348 -0.00027112 0)
(0.00181909 -0.00026436 0)
(0.00187322 -0.000256955 0)
(0.00192574 -0.00024893 0)
(0.00197652 -0.000240313 0)
(0.00202545 -0.000231133 0)
(0.00207242 -0.000221419 0)
(0.00211732 -0.000211202 0)
(0.00216005 -0.000200511 0)
(0.00220051 -0.000189379 0)
(0.00223862 -0.000177838 0)
(0.0022743 -0.000165919 0)
(0.00230748 -0.000153655 0)
(0.00233808 -0.000141078 0)
(0.00236604 -0.000128221 0)
(0.00239131 -0.000115116 0)
(0.00241384 -0.000101797 0)
(0.00243359 -8.82954e-05 0)
(0.00245053 -7.46432e-05 0)
(0.00246462 -6.08723e-05 0)
(0.00247584 -4.70142e-05 0)
(0.00248418 -3.30999e-05 0)
(0.00248963 -1.91601e-05 0)
(0.00249218 -5.22474e-06 0)
(0.00249184 8.67652e-06 0)
(0.00248862 2.25147e-05 0)
(0.00248253 3.62615e-05 0)
(0.00247359 4.98891e-05 0)
(0.00246183 6.33704e-05 0)
(0.00244728 7.66788e-05 0)
(0.00242999 8.97885e-05 0)
(0.00240998 0.000102674 0)
(0.00238731 0.000115311 0)
(0.00236203 0.000127676 0)
(0.00233421 0.000139745 0)
(0.00230389 0.000151496 0)
(0.00227116 0.000162906 0)
(0.00223609 0.000173954 0)
(0.00219874 0.000184618 0)
(0.00215921 0.000194879 0)
(0.00211757 0.000204716 0)
(0.00207392 0.00021411 0)
(0.00202834 0.000223042 0)
(0.00198095 0.000231492 0)
(0.00193183 0.000239443 0)
(0.0018811 0.000246877 0)
(0.00182886 0.000253776 0)
(0.00177523 0.000260123 0)
(0.00172031 0.000265901 0)
(0.00166424 0.000271093 0)
(0.00160712 0.000275682 0)
(0.00154909 0.000279654 0)
(0.00149028 0.000282992 0)
(0.00143082 0.000285681 0)
(0.00137083 0.000287706 0)
(0.00131047 0.000289052 0)
(0.00124986 0.000289706 0)
(0.00118915 0.000289654 0)
(0.00112849 0.000288883 0)
(0.00106801 0.000287381 0)
(0.00100788 0.000285136 0)
(0.000948227 0.00028214 0)
(0.000889213 0.000278384 0)
(0.000830988 0.000273859 0)
(0.000773704 0.000268561 0)
(0.000717511 0.000262487 0)
(0.000662562 0.000255634 0)
(0.000609005 0.000248007 0)
(0.00055699 0.00023961 0)
(0.000506663 0.000230452 0)
(0.000458165 0.000220548 0)
(0.000411634 0.000209919 0)
(0.000367203 0.000198589 0)
(0.000324997 0.000186594 0)
(0.000285134 0.000173977 0)
(0.000247722 0.00016079 0)
(0.000212858 0.000147101 0)
(0.000180624 0.000132989 0)
(0.000151088 0.000118553 0)
(0.000124302 0.00010391 0)
(0.000100294 8.92014e-05 0)
(7.90725e-05 7.45966e-05 0)
(6.062e-05 6.02967e-05 0)
(4.48905e-05 4.65405e-05 0)
(3.18071e-05 3.36111e-05 0)
(2.12591e-05 2.18425e-05 0)
(1.30983e-05 1.16277e-05 0)
(7.13719e-06 3.42788e-06 0)
(3.15119e-06 -2.21624e-06 0)
(8.84932e-07 -4.66307e-06 0)
(8.59757e-09 -3.14176e-06 0)
(1.52761e-08 4.08003e-06 0)
(9.17266e-07 6.95294e-06 0)
(3.19784e-06 5.25198e-06 0)
(7.18129e-06 -3.15048e-07 0)
(1.3128e-05 -9.13978e-06 0)
(2.12807e-05 -2.06912e-05 0)
(3.18555e-05 -3.44998e-05 0)
(4.50371e-05 -5.0149e-05 0)
(6.09791e-05 -6.72697e-05 0)
(7.98058e-05 -8.5535e-05 0)
(0.000101613 -0.000104655 0)
(0.000126471 -0.000124372 0)
(0.000154423 -0.000144458 0)
(0.000185489 -0.00016471 0)
(0.000219667 -0.00018495 0)
(0.000256933 -0.000205016 0)
(0.000297244 -0.000224768 0)
(0.000340539 -0.000244079 0)
(0.000386741 -0.000262838 0)
(0.000435755 -0.000280945 0)
(0.000487476 -0.000298312 0)
(0.000541784 -0.000314862 0)
(0.000598546 -0.000330527 0)
(0.000657624 -0.000345246 0)
(0.000718864 -0.000358967 0)
(0.00078211 -0.000371646 0)
(0.000847195 -0.000383244 0)
(0.000913948 -0.000393728 0)
(0.000982191 -0.000403073 0)
(0.00105174 -0.000411257 0)
(0.00112242 -0.000418264 0)
(0.00119404 -0.000424082 0)
(0.0012664 -0.000428705 0)
(0.00133932 -0.000432131 0)
(0.00141261 -0.00043436 0)
(0.00148607 -0.000435399 0)
(0.00155952 -0.000435256 0)
(0.00163276 -0.000433944 0)
(0.00170562 -0.000431479 0)
(0.0017779 -0.000427879 0)
(0.00184942 -0.000423166 0)
(0.00192002 -0.000417366 0)
(0.0019895 -0.000410505 0)
(0.00205771 -0.000402613 0)
(0.00212448 -0.000393722 0)
(0.00218965 -0.000383866 0)
(0.00225307 -0.00037308 0)
(0.00231459 -0.000361403 0)
(0.00237405 -0.000348873 0)
(0.00243134 -0.000335531 0)
(0.00248632 -0.00032142 0)
(0.00253887 -0.000306582 0)
(0.00258887 -0.000291061 0)
(0.00263621 -0.000274903 0)
(0.0026808 -0.000258152 0)
(0.00272254 -0.000240855 0)
(0.00276133 -0.000223058 0)
(0.00279711 -0.000204808 0)
(0.00282981 -0.000186151 0)
(0.00285935 -0.000167135 0)
(0.00288568 -0.000147807 0)
(0.00290876 -0.000128212 0)
(0.00292854 -0.000108398 0)
(0.00294499 -8.84093e-05 0)
(0.00295809 -6.82921e-05 0)
(0.0029678 -4.80912e-05 0)
(0.00297414 -2.78506e-05 0)
(0.00297708 -7.614e-06 0)
(0.00297664 1.25759e-05 0)
(0.00297281 3.26772e-05 0)
(0.00296563 5.26485e-05 0)
(0.00295512 7.24498e-05 0)
(0.00294129 9.20415e-05 0)
(0.0029242 0.000111385 0)
(0.00290389 0.000130443 0)
(0.0028804 0.000149178 0)
(0.00285379 0.000167556 0)
(0.00282412 0.00018554 0)
(0.00279146 0.000203097 0)
(0.00275589 0.000220194 0)
(0.00271747 0.000236799 0)
(0.0026763 0.000252879 0)
(0.00263247 0.000268405 0)
(0.00258606 0.000283347 0)
(0.00253719 0.000297675 0)
(0.00248594 0.000311362 0)
(0.00243243 0.000324378 0)
(0.00237678 0.000336698 0)
(0.0023191 0.000348294 0)
(0.00225952 0.000359141 0)
(0.00219815 0.000369213 0)
(0.00213514 0.000378486 0)
(0.0020706 0.000386936 0)
(0.0020047 0.000394537 0)
(0.00193755 0.000401269 0)
(0.00186932 0.000407107 0)
(0.00180014 0.000412029 0)
(0.00173017 0.000416015 0)
(0.00165957 0.000419043 0)
(0.0015885 0.000421094 0)
(0.0015171 0.000422148 0)
(0.00144556 0.000422188 0)
(0.00137403 0.000421195 0)
(0.00130267 0.000419155 0)
(0.00123167 0.000416052 0)
(0.00116119 0.000411876 0)
(0.0010914 0.000406614 0)
(0.00102247 0.000400258 0)
(0.000954579 0.000392804 0)
(0.000887898 0.000384249 0)
(0.000822597 0.000374594 0)
(0.000758846 0.000363845 0)
(0.000696812 0.000352012 0)
(0.000636659 0.000339111 0)
(0.000578547 0.000325166 0)
(0.000522633 0.000310207 0)
(0.000469064 0.000294273 0)
(0.000417982 0.000277415 0)
(0.000369521 0.000259694 0)
(0.000323803 0.000241185 0)
(0.00028094 0.000221981 0)
(0.000241029 0.000202189 0)
(0.000204153 0.000181942 0)
(0.000170379 0.000161394 0)
(0.000139753 0.000140729 0)
(0.000112302 0.000120161 0)
(8.80286e-05 9.99428e-05 0)
(6.69127e-05 8.03686e-05 0)
(4.89073e-05 6.17811e-05 0)
(3.39372e-05 4.45781e-05 0)
(2.18976e-05 2.92198e-05 0)
(1.26538e-05 1.6237e-05 0)
(6.05626e-06 6.24145e-06 0)
(1.96136e-06 -5.46619e-08 0)
(9.77964e-08 -1.81343e-06 0)
(8.90663e-08 2.78584e-06 0)
(1.84211e-06 2.47352e-06 0)
(5.7246e-06 -2.97724e-06 0)
(1.20214e-05 -1.28149e-05 0)
(2.09049e-05 -2.63811e-05 0)
(3.25588e-05 -4.30914e-05 0)
(4.71565e-05 -6.24212e-05 0)
(6.48474e-05 -8.38991e-05 0)
(8.57547e-05 -0.000107101 0)
(0.000109976 -0.000131647 0)
(0.000137586 -0.000157195 0)
(0.000168633 -0.000183438 0)
(0.000203144 -0.000210099 0)
(0.000241122 -0.000236932 0)
(0.000282551 -0.000263712 0)
(0.000327391 -0.000290241 0)
(0.000375585 -0.000316338 0)
(0.000427058 -0.000341843 0)
(0.000481719 -0.000366611 0)
(0.000539458 -0.000390513 0)
(0.000600155 -0.000413434 0)
(0.000663673 -0.000435271 0)
(0.000729865 -0.000455934 0)
(0.000798573 -0.000475342 0)
(0.000869628 -0.000493426 0)
(0.000942854 -0.000510123 0)
(0.00101807 -0.000525383 0)
(0.00109507 -0.00053916 0)
(0.00117368 -0.000551418 0)
(0.00125368 -0.000562128 0)
(0.00133487 -0.000571266 0)
(0.00141704 -0.000578818 0)
(0.00149998 -0.000584772 0)
(0.00158348 -0.000589124 0)
(0.00166733 -0.000591875 0)
(0.00175132 -0.000593032 0)
(0.00183522 -0.000592606 0)
(0.00191884 -0.000590613 0)
(0.00200195 -0.000587073 0)
(0.00208437 -0.000582011 0)
(0.00216589 -0.000575456 0)
(0.0022463 -0.000567441 0)
(0.00232541 -0.000558 0)
(0.00240304 -0.000547173 0)
(0.002479 -0.000535004 0)
(0.00255312 -0.000521536 0)
(0.00262521 -0.000506817 0)
(0.00269512 -0.000490899 0)
(0.00276269 -0.000473832 0)
(0.00282776 -0.000455672 0)
(0.00289019 -0.000436475 0)
(0.00294984 -0.000416298 0)
(0.00300658 -0.0003952 0)
(0.0030603 -0.000373241 0)
(0.00311088 -0.000350482 0)
(0.00315821 -0.000326985 0)
(0.00320219 -0.000302812 0)
(0.00324275 -0.000278027 0)
(0.00327979 -0.000252691 0)
(0.00331325 -0.000226868 0)
(0.00334306 -0.000200621 0)
(0.00336917 -0.000174013 0)
(0.00339154 -0.000147105 0)
(0.00341013 -0.00011996 0)
(0.0034249 -9.26395e-05 0)
(0.00343583 -6.5203e-05 0)
(0.00344292 -3.77105e-05 0)
(0.00344616 -1.0221e-05 0)
(0.00344556 1.72077e-05 0)
(0.00344111 4.45189e-05 0)
(0.00343285 7.16566e-05 0)
(0.00342081 9.85664e-05 0)
(0.003405 0.000125195 0)
(0.00338548 0.00015149 0)
(0.0033623 0.0001774 0)
(0.00333551 0.000202875 0)
(0.00330517 0.000227867 0)
(0.00327136 0.000252329 0)
(0.00323414 0.000276213 0)
(0.0031936 0.000299476 0)
(0.00314984 0.000322073 0)
(0.00310294 0.000343962 0)
(0.003053 0.000365101 0)
(0.00300014 0.000385448 0)
(0.00294446 0.000404966 0)
(0.00288608 0.000423615 0)
(0.00282512 0.000441357 0)
(0.00276171 0.000458156 0)
(0.00269598 0.000473976 0)
(0.00262807 0.000488782 0)
(0.00255812 0.000502541 0)
(0.00248629 0.000515218 0)
(0.00241271 0.000526781 0)
(0.00233754 0.000537199 0)
(0.00226095 0.000546441 0)
(0.00218309 0.000554477 0)
(0.00210413 0.000561278 0)
(0.00202425 0.000566815 0)
(0.00194361 0.000571063 0)
(0.00186239 0.000573994 0)
(0.00178078 0.000575586 0)
(0.00169895 0.000575813 0)
(0.00161709 0.000574656 0)
(0.00153538 0.000572094 0)
(0.00145401 0.000568111 0)
(0.00137317 0.000562691 0)
(0.00129306 0.000555822 0)
(0.00121386 0.000547495 0)
(0.00113576 0.000537706 0)
(0.00105896 0.000526453 0)
(0.000983633 0.000513741 0)
(0.00090998 0.00049958 0)
(0.000838181 0.000483986 0)
(0.000768417 0.000466983 0)
(0.000700865 0.000448603 0)
(0.000635696 0.000428889 0)
(0.000573076 0.000407893 0)
(0.000513163 0.000385683 0)
(0.000456106 0.000362337 0)
(0.000402043 0.000337955 0)
(0.000351105 0.000312651 0)
(0.000303405 0.000286563 0)
(0.000259046 0.000259854 0)
(0.000218114 0.000232711 0)
(0.000180678 0.000205356 0)
(0.00014679 0.000178045 0)
(0.000116482 0.000151074 0)
(8.97666e-05 0.000124782 0)
(6.66347e-05 9.95601e-05 0)
(4.70557e-05 7.58557e-05 0)
(3.09759e-05 5.41781e-05 0)
(1.83212e-05 3.51063e-05 0)
(9.02226e-06 1.92968e-05 0)
(3.04904e-06 7.50085e-06 0)
(1.84752e-07 5.85278e-07 0)
(1.6056e-07 5.81508e-07 0)
(2.76811e-06 -4.55181e-06 0)
(8.27884e-06 -1.52267e-05 0)
(1.6944e-05 -3.06719e-05 0)
(2.88504e-05 -5.01993e-05 0)
(4.4121e-05 -7.31886e-05 0)
(6.28839e-05 -9.90749e-05 0)
(8.52487e-05 -0.000127343 0)
(0.000111303 -0.000157526 0)
(0.000141114 -0.000189196 0)
(0.000174727 -0.000221967 0)
(0.000212166 -0.000255487 0)
(0.000253436 -0.000289436 0)
(0.000298518 -0.000323524 0)
(0.000347376 -0.000357486 0)
(0.000399952 -0.000391086 0)
(0.000456173 -0.000424105 0)
(0.000515945 -0.000456349 0)
(0.000579159 -0.00048764 0)
(0.000645691 -0.000517819 0)
(0.000715401 -0.000546743 0)
(0.000788137 -0.000574285 0)
(0.000863734 -0.000600329 0)
(0.000942016 -0.000624774 0)
(0.0010228 -0.000647532 0)
(0.00110588 -0.000668523 0)
(0.00119107 -0.000687682 0)
(0.00127814 -0.000704952 0)
(0.00136689 -0.000720284 0)
(0.0014571 -0.00073364 0)
(0.00154853 -0.000744992 0)
(0.00164096 -0.000754316 0)
(0.00173416 -0.000761599 0)
(0.0018279 -0.000766835 0)
(0.00192194 -0.000770024 0)
(0.00201605 -0.000771174 0)
(0.00211 -0.000770298 0)
(0.00220356 -0.000767416 0)
(0.0022965 -0.000762554 0)
(0.00238861 -0.000755743 0)
(0.00247964 -0.000747018 0)
(0.0025694 -0.000736421 0)
(0.00265767 -0.000723998 0)
(0.00274424 -0.000709797 0)
(0.0028289 -0.000693873 0)
(0.00291147 -0.000676284 0)
(0.00299176 -0.00065709 0)
(0.00306959 -0.000636354 0)
(0.00314477 -0.000614145 0)
(0.00321716 -0.000590531 0)
(0.00328658 -0.000565584 0)
(0.00335288 -0.000539378 0)
(0.00341594 -0.000511987 0)
(0.00347561 -0.000483489 0)
(0.00353177 -0.000453963 0)
(0.0035843 -0.000423486 0)
(0.0036331 -0.000392139 0)
(0.00367808 -0.000360002 0)
(0.00371914 -0.000327156 0)
(0.0037562 -0.000293683 0)
(0.00378921 -0.000259662 0)
(0.0038181 -0.000225174 0)
(0.00384281 -0.000190299 0)
(0.00386332 -0.000155117 0)
(0.00387958 -0.000119707 0)
(0.00389157 -8.41465e-05 0)
(0.00389929 -4.8512e-05 0)
(0.00390272 -1.28797e-05 0)
(0.00390187 2.2676e-05 0)
(0.00389676 5.80816e-05 0)
(0.0038874 9.32654e-05 0)
(0.00387382 0.000128157 0)
(0.00385607 0.000162686 0)
(0.00383419 0.000196787 0)
(0.00380823 0.000230393 0)
(0.00377825 0.000263439 0)
(0.00374433 0.000295863 0)
(0.00370654 0.000327603 0)
(0.00366496 0.0003586 0)
(0.00361969 0.000388795 0)
(0.00357082 0.000418131 0)
(0.00351846 0.000446553 0)
(0.00346271 0.000474008 0)
(0.0034037 0.000500442 0)
(0.00334155 0.000525805 0)
(0.00327638 0.000550047 0)
(0.00320834 0.000573119 0)
(0.00313755 0.000594975 0)
(0.00306418 0.000615567 0)
(0.00298836 0.000634852 0)
(0.00291026 0.000652786 0)
(0.00283003 0.000669326 0)
(0.00274784 0.00068443 0)
(0.00266386 0.000698059 0)
(0.00257827 0.000710174 0)
(0.00249124 0.000720736 0)
(0.00240296 0.00072971 0)
(0.00231361 0.00073706 0)
(0.00222339 0.000742753 0)
(0.00213248 0.000746757 0)
(0.00204108 0.000749041 0)
(0.00194939 0.000749579 0)
(0.0018576 0.000748343 0)
(0.00176594 0.00074531 0)
(0.00167459 0.000740461 0)