/*--------------------------------*- C++ -*----------------------------------*\
  =========                 |
  \\      /  F ield         | OpenFOAM: The Open Source CFD Toolbox
   \\    /   O peration     | Website:  https://openfoam.org
    \\  /    A nd           | Version:  12
     \\/     M anipulation  |
\*---------------------------------------------------------------------------*/
FoamFile
{
    format      ascii;
    class       volScalarField;
    location    "1.5";
    object      nut;
}
// * * * * * * * * * * * * * * * * * * * * * * * * * * * * * * * * * * * * * //

dimensions      [0 2 -1 0 0 0 0];

internalField   nonuniform List<scalar> 
18225
(
3.00858e-14
1.50364e-13
3.29176e-13
5.44103e-13
7.8525e-13
1.04685e-12
1.32487e-12
1.61624e-12
1.91845e-12
2.22942e-12
2.5474e-12
2.87088e-12
3.1986e-12
3.52947e-12
3.86258e-12
4.19718e-12
4.53266e-12
4.86855e-12
5.20447e-12
5.54019e-12
5.87553e-12
6.21044e-12
6.54492e-12
6.87903e-12
7.2129e-12
7.54667e-12
7.88054e-12
8.2147e-12
8.54937e-12
8.88475e-12
9.22102e-12
9.55836e-12
9.89691e-12
1.02368e-11
1.0578e-11
1.09207e-11
1.12647e-11
1.16101e-11
1.19567e-11
1.23043e-11
1.26528e-11
1.30018e-11
1.33511e-11
1.37002e-11
1.40488e-11
1.43965e-11
1.47426e-11
1.50866e-11
1.54279e-11
1.57659e-11
1.60999e-11
1.6429e-11
1.67525e-11
1.70695e-11
1.73791e-11
1.76804e-11
1.79724e-11
1.8254e-11
1.85242e-11
1.8782e-11
1.90261e-11
1.92554e-11
1.94688e-11
1.96651e-11
1.98431e-11
2.00017e-11
2.01396e-11
2.02558e-11
2.03493e-11
2.04189e-11
2.04635e-11
2.04821e-11
2.04748e-11
2.04404e-11
2.03782e-11
2.02876e-11
2.01684e-11
2.00202e-11
1.98431e-11
1.9637e-11
1.94023e-11
1.91395e-11
1.8849e-11
1.85318e-11
1.81887e-11
1.78209e-11
1.74296e-11
1.70163e-11
1.65826e-11
1.613e-11
1.56605e-11
1.5176e-11
1.46784e-11
1.41698e-11
1.36523e-11
1.3128e-11
1.25989e-11
1.20672e-11
1.15349e-11
1.10039e-11
1.04762e-11
9.95355e-12
9.43762e-12
8.92998e-12
8.43206e-12
7.94516e-12
7.4704e-12
7.00877e-12
6.56111e-12
6.12809e-12
5.71026e-12
5.308e-12
4.92156e-12
4.55107e-12
4.19653e-12
3.85781e-12
3.53469e-12
3.22687e-12
2.93399e-12
2.65562e-12
2.39127e-12
2.14044e-12
1.90261e-12
1.6773e-12
1.46404e-12
1.26241e-12
1.0721e-12
8.9293e-13
7.24895e-13
5.68248e-13
4.23612e-13
2.92194e-13
1.76248e-13
8.03822e-14
1.60775e-14
1.50443e-13
1.36413e-11
4.63411e-11
8.56685e-11
1.28684e-10
1.74668e-10
2.23143e-10
2.73698e-10
3.25967e-10
3.79628e-10
4.34405e-10
4.90055e-10
5.46371e-10
6.03176e-10
6.60319e-10
7.17676e-10
7.75146e-10
8.32651e-10
8.90131e-10
9.47545e-10
1.00487e-09
1.0621e-09
1.11923e-09
1.17627e-09
1.23326e-09
1.29021e-09
1.34717e-09
1.40416e-09
1.46123e-09
1.51841e-09
1.57573e-09
1.63323e-09
1.69093e-09
1.74885e-09
1.80701e-09
1.8654e-09
1.92404e-09
1.9829e-09
2.04196e-09
2.10121e-09
2.1606e-09
2.2201e-09
2.27964e-09
2.33918e-09
2.39863e-09
2.45792e-09
2.51697e-09
2.57568e-09
2.63395e-09
2.69167e-09
2.74871e-09
2.80496e-09
2.86027e-09
2.9145e-09
2.96749e-09
3.0191e-09
3.06914e-09
3.11745e-09
3.16385e-09
3.20814e-09
3.25014e-09
3.28965e-09
3.32647e-09
3.36039e-09
3.39123e-09
3.41876e-09
3.44279e-09
3.4631e-09
3.47946e-09
3.49172e-09
3.4997e-09
3.50322e-09
3.50235e-09
3.49683e-09
3.48654e-09
3.47138e-09
3.4513e-09
3.42624e-09
3.3962e-09
3.36118e-09
3.32123e-09
3.27642e-09
3.22686e-09
3.17267e-09
3.11402e-09
3.05109e-09
2.9841e-09
2.91331e-09
2.83898e-09
2.7614e-09
2.68089e-09
2.59777e-09
2.5124e-09
2.42512e-09
2.3363e-09
2.2463e-09
2.15548e-09
2.06421e-09
1.97284e-09
1.88172e-09
1.79116e-09
1.70147e-09
1.61296e-09
1.52589e-09
1.44051e-09
1.35703e-09
1.27566e-09
1.19656e-09
1.11988e-09
1.04573e-09
9.74199e-10
9.05356e-10
8.39239e-10
7.75858e-10
7.15215e-10
6.57296e-10
6.02063e-10
5.49462e-10
4.99425e-10
4.51875e-10
4.06725e-10
3.63885e-10
3.23263e-10
2.84766e-10
2.48308e-10
2.13811e-10
1.81209e-10
1.50455e-10
1.21522e-10
9.44153e-11
6.91733e-11
4.58819e-11
2.47746e-11
7.29131e-12
8.0355e-14
3.30049e-13
4.63888e-11
2.35543e-10
5.31277e-10
8.75625e-10
1.24544e-09
1.63264e-09
2.0334e-09
2.44512e-09
2.86569e-09
3.29324e-09
3.72615e-09
4.163e-09
4.60255e-09
5.04375e-09
5.48574e-09
5.92781e-09
6.36942e-09
6.81017e-09
7.24979e-09
7.68816e-09
8.12522e-09
8.56104e-09
8.99576e-09
9.42959e-09
9.86277e-09
1.02956e-08
1.07284e-08
1.11614e-08
1.1595e-08
1.20295e-08
1.24651e-08
1.2902e-08
1.33404e-08
1.37805e-08
1.42222e-08
1.46656e-08
1.51107e-08
1.55573e-08
1.60052e-08
1.64543e-08
1.69041e-08
1.73544e-08
1.78046e-08
1.82544e-08
1.8703e-08
1.915e-08
1.95946e-08
2.00361e-08
2.04737e-08
2.09064e-08
2.13334e-08
2.17536e-08
2.2166e-08
2.25695e-08
2.29628e-08
2.33447e-08
2.37138e-08
2.40689e-08
2.44085e-08
2.47311e-08
2.50353e-08
2.53195e-08
2.55821e-08
2.58216e-08
2.60363e-08
2.62248e-08
2.63854e-08
2.65165e-08
2.66167e-08
2.66846e-08
2.6718e-08
2.67185e-08
2.66835e-08
2.66119e-08
2.6503e-08
2.63561e-08
2.61709e-08
2.59472e-08
2.5685e-08
2.53845e-08
2.50464e-08
2.46712e-08
2.42599e-08
2.38139e-08
2.33344e-08
2.28232e-08
2.22821e-08
2.17133e-08
2.11191e-08
2.05017e-08
1.9864e-08
1.92085e-08
1.8538e-08
1.78554e-08
1.71635e-08
1.64653e-08
1.57635e-08
1.50609e-08
1.43602e-08
1.3664e-08
1.29748e-08
1.22947e-08
1.1626e-08
1.09705e-08
1.033e-08
9.706e-09
9.09975e-09
8.51237e-09
7.94474e-09
7.39752e-09
6.8712e-09
6.36605e-09
5.88216e-09
5.41947e-09
4.97779e-09
4.55677e-09
4.15596e-09
3.77477e-09
3.41254e-09
3.06856e-09
2.74205e-09
2.43221e-09
2.13825e-09
1.85936e-09
1.59481e-09
1.3439e-09
1.10603e-09
8.80735e-10
6.67818e-10
4.67764e-10
2.83389e-10
1.25681e-10
2.47629e-11
1.75944e-13
5.47592e-13
8.60002e-11
5.32034e-10
1.41742e-09
2.59942e-09
3.94287e-09
5.37531e-09
6.8621e-09
8.38543e-09
9.93461e-09
1.15021e-08
1.3082e-08
1.46696e-08
1.62608e-08
1.78523e-08
1.94413e-08
2.10258e-08
2.2604e-08
2.41749e-08
2.57379e-08
2.72926e-08
2.88393e-08
3.03783e-08
3.19103e-08
3.34364e-08
3.49576e-08
3.64752e-08
3.79903e-08
3.95042e-08
4.10183e-08
4.25337e-08
4.40514e-08
4.55724e-08
4.70974e-08
4.8627e-08
5.01616e-08
5.17013e-08
5.32461e-08
5.47957e-08
5.63497e-08
5.79073e-08
5.94676e-08
6.10296e-08
6.25918e-08
6.41527e-08
6.57105e-08
6.72632e-08
6.88086e-08
7.03443e-08
7.18676e-08
7.33755e-08
7.48651e-08
7.63329e-08
7.77753e-08
7.91885e-08
8.05685e-08
8.19109e-08
8.32113e-08
8.44648e-08
8.56666e-08
8.68116e-08
8.78944e-08
8.89095e-08
8.98515e-08
9.07147e-08
9.14933e-08
9.21817e-08
9.27742e-08
9.32652e-08
9.36493e-08
9.3921e-08
9.407e-08
9.41058e-08
9.40163e-08
9.37977e-08
9.34467e-08
9.2961e-08
9.23386e-08
9.15787e-08
9.0681e-08
8.96459e-08
8.8475e-08
8.71706e-08
8.57358e-08
8.41748e-08
8.24925e-08
8.06949e-08
7.87885e-08
7.67809e-08
7.46802e-08
7.24952e-08
7.02352e-08
6.79101e-08
6.553e-08
6.31052e-08
6.06463e-08
5.81636e-08
5.56677e-08
5.31687e-08
5.06764e-08
4.82002e-08
4.57491e-08
4.33314e-08
4.09547e-08
3.8626e-08
3.63516e-08
3.41369e-08
3.19865e-08
2.99043e-08
2.78934e-08
2.59561e-08
2.40941e-08
2.23081e-08
2.05983e-08
1.89645e-08
1.74055e-08
1.59201e-08
1.45062e-08
1.31616e-08
1.18836e-08
1.06693e-08
9.51553e-09
8.41912e-09
7.37671e-09
6.38497e-09
5.44071e-09
4.54101e-09
3.6836e-09
2.8677e-09
2.09612e-09
1.3806e-09
7.5363e-10
2.83312e-10
4.57848e-11
2.90936e-13
7.94597e-13
1.29811e-10
8.79825e-10
2.60505e-09
5.21734e-09
8.43451e-09
1.20139e-08
1.58021e-08
1.97108e-08
2.36888e-08
2.77046e-08
3.17375e-08
3.57726e-08
3.97991e-08
4.38086e-08
4.77949e-08
5.17533e-08
5.56806e-08
5.95751e-08
6.34359e-08
6.72633e-08
7.10585e-08
7.48234e-08
7.85606e-08
8.22731e-08
8.59644e-08
8.96381e-08
9.3298e-08
9.69479e-08
1.00591e-07
1.04232e-07
1.07873e-07
1.11516e-07
1.15165e-07
1.18822e-07
1.22486e-07
1.26161e-07
1.29845e-07
1.33539e-07
1.37241e-07
1.40952e-07
1.44669e-07
1.4839e-07
1.52111e-07
1.55831e-07
1.59545e-07
1.63248e-07
1.66936e-07
1.70604e-07
1.74246e-07
1.77854e-07
1.81423e-07
1.84943e-07
1.88408e-07
1.91808e-07
1.95134e-07
1.98375e-07
2.01521e-07
2.04561e-07
2.07482e-07
2.10272e-07
2.12919e-07
2.15409e-07
2.17728e-07
2.19862e-07
2.21797e-07
2.2352e-07
2.25015e-07
2.26269e-07
2.27273e-07
2.27999e-07
2.28431e-07
2.28594e-07
2.28453e-07
2.27999e-07
2.27222e-07
2.26116e-07
2.24676e-07
2.22898e-07
2.2078e-07
2.18325e-07
2.15534e-07
2.12411e-07
2.08966e-07
2.05207e-07
2.01145e-07
1.96795e-07
1.92174e-07
1.87299e-07
1.82189e-07
1.76868e-07
1.71358e-07
1.65683e-07
1.59869e-07
1.53941e-07
1.47926e-07
1.4185e-07
1.35738e-07
1.29617e-07
1.2351e-07
1.17443e-07
1.11436e-07
1.05511e-07
9.96875e-08
9.39824e-08
8.84113e-08
8.2988e-08
7.77239e-08
7.26286e-08
6.77097e-08
6.29726e-08
5.84212e-08
5.40573e-08
4.98812e-08
4.58914e-08
4.20852e-08
3.84584e-08
3.50058e-08
3.17208e-08
2.85964e-08
2.56244e-08
2.27964e-08
2.01033e-08
1.7536e-08
1.50858e-08
1.27445e-08
1.05061e-08
8.36909e-09
6.34128e-09
4.44969e-09
2.75746e-09
1.38054e-09
4.66941e-10
6.8807e-11
4.20121e-13
1.06694e-12
1.77402e-10
1.25853e-09
3.9681e-09
8.46273e-09
1.44249e-08
2.14029e-08
2.90164e-08
3.70017e-08
4.51885e-08
5.34695e-08
6.17759e-08
7.00624e-08
7.82987e-08
8.6464e-08
9.45443e-08
1.02531e-07
1.10417e-07
1.18203e-07
1.25887e-07
1.33472e-07
1.40963e-07
1.48366e-07
1.55688e-07
1.62936e-07
1.7012e-07
1.77249e-07
1.84331e-07
1.91376e-07
1.98392e-07
2.05389e-07
2.12372e-07
2.19349e-07
2.26326e-07
2.33308e-07
2.40299e-07
2.47301e-07
2.54316e-07
2.61345e-07
2.68387e-07
2.75442e-07
2.82507e-07
2.89579e-07
2.96653e-07
3.03724e-07
3.10786e-07
3.17831e-07
3.24851e-07
3.31836e-07
3.38776e-07
3.45659e-07
3.52471e-07
3.592e-07
3.65828e-07
3.7234e-07
3.78718e-07
3.84943e-07
3.90993e-07
3.96848e-07
4.02484e-07
4.07878e-07
4.13004e-07
4.17837e-07
4.22349e-07
4.26513e-07
4.303e-07
4.33684e-07
4.36633e-07
4.39122e-07
4.41145e-07
4.42609e-07
4.43524e-07
4.43922e-07
4.43733e-07
4.42936e-07
4.41515e-07
4.39456e-07
4.36747e-07
4.33381e-07
4.29354e-07
4.24667e-07
4.19324e-07
4.13333e-07
4.06709e-07
3.99469e-07
3.91636e-07
3.83235e-07
3.74299e-07
3.64861e-07
3.54961e-07
3.44641e-07
3.33945e-07
3.2292e-07
3.11617e-07
3.00084e-07
2.88375e-07
2.7654e-07
2.64629e-07
2.52695e-07
2.40784e-07
2.28945e-07
2.1722e-07
2.05652e-07
1.94278e-07
1.83133e-07
1.72248e-07
1.6165e-07
1.51362e-07
1.41403e-07
1.31788e-07
1.22527e-07
1.13629e-07
1.05096e-07
9.69283e-08
8.91232e-08
8.16745e-08
7.45733e-08
6.78081e-08
6.13653e-08
5.52296e-08
4.9384e-08
4.38104e-08
3.84899e-08
3.34044e-08
2.8537e-08
2.38753e-08
1.94156e-08
1.5171e-08
1.11861e-08
7.55637e-09
4.4497e-09
2.0933e-09
6.64466e-10
9.34604e-11
5.60486e-13
1.36239e-12
2.28621e-10
1.66294e-09
5.44604e-09
1.21213e-08
2.15099e-08
3.30256e-08
4.60149e-08
5.99312e-08
7.43745e-08
8.90715e-08
1.03839e-07
1.18555e-07
1.33143e-07
1.47549e-07
1.61743e-07
1.75704e-07
1.89423e-07
2.02899e-07
2.16135e-07
2.29138e-07
2.41922e-07
2.54499e-07
2.66887e-07
2.79103e-07
2.91166e-07
3.03095e-07
3.14909e-07
3.26627e-07
3.38268e-07
3.49847e-07
3.6138e-07
3.72882e-07
3.84365e-07
3.95838e-07
4.07312e-07
4.18791e-07
4.30282e-07
4.41787e-07
4.53307e-07
4.64843e-07
4.76391e-07
4.87947e-07
4.99506e-07
5.1106e-07
5.22599e-07
5.34113e-07
5.45588e-07
5.5701e-07
5.68362e-07
5.79624e-07
5.90776e-07
6.01796e-07
6.12657e-07
6.23334e-07
6.33795e-07
6.4401e-07
6.53944e-07
6.63562e-07
6.72826e-07
6.81695e-07
6.90127e-07
6.9808e-07
7.05508e-07
7.12364e-07
7.18603e-07
7.24174e-07
7.29029e-07
7.33122e-07
7.36461e-07
7.38844e-07
7.40344e-07
7.40987e-07
7.40658e-07
7.39322e-07
7.36952e-07
7.33525e-07
7.29022e-07
7.23431e-07
7.16745e-07
7.08965e-07
7.00098e-07
6.90158e-07
6.79166e-07
6.67153e-07
6.54153e-07
6.40211e-07
6.25377e-07
6.09709e-07
5.93268e-07
5.76126e-07
5.58354e-07
5.4003e-07
5.21235e-07
5.02052e-07
4.82567e-07
4.62862e-07
4.43024e-07
4.23135e-07
4.03277e-07
3.83525e-07
3.63956e-07
3.44636e-07
3.25631e-07
3.06998e-07
2.88789e-07
2.71051e-07
2.53821e-07
2.37132e-07
2.2101e-07
2.05473e-07
1.90534e-07
1.76198e-07
1.62466e-07
1.49332e-07
1.36785e-07
1.2481e-07
1.13387e-07
1.02492e-07
9.20977e-08
8.21752e-08
7.26927e-08
6.36188e-08
5.49244e-08
4.65869e-08
3.85969e-08
3.09694e-08
2.37603e-08
1.70926e-08
1.1182e-08
6.3323e-09
2.85453e-09
8.71708e-10
1.19502e-10
7.09944e-13
1.67974e-12
2.83388e-10
2.09212e-09
7.01661e-09
1.60745e-08
2.9379e-08
4.63419e-08
6.60712e-08
8.76805e-08
1.10436e-07
1.33786e-07
1.57338e-07
1.80828e-07
2.04078e-07
2.26973e-07
2.49442e-07
2.71445e-07
2.92962e-07
3.13993e-07
3.34544e-07
3.54636e-07
3.74292e-07
3.93541e-07
4.12416e-07
4.30951e-07
4.49183e-07
4.67146e-07
4.84877e-07
5.02411e-07
5.1978e-07
5.37019e-07
5.54152e-07
5.71206e-07
5.88202e-07
6.05159e-07
6.22094e-07
6.39019e-07
6.55944e-07
6.72876e-07
6.89819e-07
7.06775e-07
7.2374e-07
7.40711e-07
7.57679e-07
7.74636e-07
7.91567e-07
8.08456e-07
8.25286e-07
8.42033e-07
8.58674e-07
8.75181e-07
8.91523e-07
9.07664e-07
9.23569e-07
9.39195e-07
9.54499e-07
9.69433e-07
9.83947e-07
9.97986e-07
1.01149e-06
1.02441e-06
1.03667e-06
1.04821e-06
1.05897e-06
1.06887e-06
1.07785e-06
1.08584e-06
1.09276e-06
1.09855e-06
1.10323e-06
1.10647e-06
1.10843e-06
1.10911e-06
1.10835e-06
1.1061e-06
1.10232e-06
1.09699e-06
1.09007e-06
1.08155e-06
1.07142e-06
1.05968e-06
1.04636e-06
1.03145e-06
1.01501e-06
9.97077e-07
9.77696e-07
9.56935e-07
9.34868e-07
9.11578e-07
8.87156e-07
8.61702e-07
8.35321e-07
8.08126e-07
7.80233e-07
7.51762e-07
7.22836e-07
6.93578e-07
6.64109e-07
6.34552e-07
6.05023e-07
5.75636e-07
5.46499e-07
5.17713e-07
4.89373e-07
4.61566e-07
4.34367e-07
4.07846e-07
3.82061e-07
3.5706e-07
3.32884e-07
3.0956e-07
2.87108e-07
2.65537e-07
2.44849e-07
2.25036e-07
2.06081e-07
1.8796e-07
1.70645e-07
1.54098e-07
1.38279e-07
1.23143e-07
1.08643e-07
9.47351e-08
8.13826e-08
6.85642e-08
5.62878e-08
4.46128e-08
3.3678e-08
2.373e-08
1.5135e-08
8.3273e-09
3.64646e-09
1.08671e-09
1.4672e-10
8.66897e-13
2.01841e-12
3.41674e-10
2.54628e-09
8.67389e-09
2.02691e-08
3.78471e-08
6.09489e-08
8.85244e-08
1.19344e-07
1.52271e-07
1.86376e-07
2.2096e-07
2.55524e-07
2.89722e-07
3.23328e-07
3.56202e-07
3.88264e-07
4.19479e-07
4.49841e-07
4.79369e-07
5.08096e-07
5.36065e-07
5.63329e-07
5.89945e-07
6.15974e-07
6.41476e-07
6.66512e-07
6.91142e-07
7.15424e-07
7.39411e-07
7.63153e-07
7.86695e-07
8.1008e-07
8.33345e-07
8.56522e-07
8.79636e-07
9.02709e-07
9.25758e-07
9.48795e-07
9.71829e-07
9.94861e-07
1.01789e-06
1.04091e-06
1.06392e-06
1.08689e-06
1.10982e-06
1.13268e-06
1.15544e-06
1.17807e-06
1.20054e-06
1.22282e-06
1.24484e-06
1.26658e-06
1.28797e-06
1.30896e-06
1.32948e-06
1.34948e-06
1.36887e-06
1.38759e-06
1.40555e-06
1.42268e-06
1.43888e-06
1.45407e-06
1.46816e-06
1.48106e-06
1.49267e-06
1.50291e-06
1.51168e-06
1.51889e-06
1.52455e-06
1.52824e-06
1.53023e-06
1.53044e-06
1.52869e-06
1.52492e-06
1.51909e-06
1.51114e-06
1.50107e-06
1.48885e-06
1.47447e-06
1.45794e-06
1.43928e-06
1.41853e-06
1.39573e-06
1.37094e-06
1.34423e-06
1.31568e-06
1.28541e-06
1.25351e-06
1.22011e-06
1.18533e-06
1.14933e-06
1.11223e-06
1.07421e-06
1.03541e-06
9.95993e-07
9.56124e-07
9.1596e-07
8.75663e-07
8.35385e-07
7.95278e-07
7.55485e-07
7.1614e-07
6.77369e-07
6.39288e-07
6.02002e-07
5.65603e-07
5.3017e-07
4.95772e-07
4.62462e-07
4.3028e-07
3.99255e-07
3.69402e-07
3.40723e-07
3.13208e-07
2.86837e-07
2.61578e-07
2.3739e-07
2.14223e-07
1.9202e-07
1.70721e-07
1.50267e-07
1.30603e-07
1.11694e-07
9.35334e-08
7.61699e-08
5.97371e-08
4.44897e-08
3.08291e-08
1.92831e-08
1.039e-08
4.45982e-09
1.30814e-09
1.74928e-10
1.03006e-12
2.37825e-12
4.03493e-10
3.02605e-09
1.04184e-08
2.46872e-08
4.68227e-08
7.65976e-08
1.12894e-07
1.54168e-07
1.98846e-07
2.45545e-07
2.93162e-07
3.40875e-07
3.881e-07
4.34447e-07
4.79668e-07
5.23621e-07
5.66239e-07
6.0751e-07
6.4746e-07
6.86144e-07
7.23633e-07
7.60011e-07
7.95371e-07
8.29808e-07
8.6342e-07
8.96303e-07
9.28548e-07
9.60244e-07
9.91472e-07
1.02231e-06
1.05282e-06
1.08307e-06
1.11311e-06
1.143e-06
1.17276e-06
1.20244e-06
1.23205e-06
1.26162e-06
1.29115e-06
1.32065e-06
1.35013e-06
1.37957e-06
1.40895e-06
1.43827e-06
1.4675e-06
1.49661e-06
1.52556e-06
1.55431e-06
1.58282e-06
1.61103e-06
1.63888e-06
1.66631e-06
1.69325e-06
1.71962e-06
1.74535e-06
1.77033e-06
1.79449e-06
1.81772e-06
1.83993e-06
1.861e-06
1.88083e-06
1.89931e-06
1.91632e-06
1.93175e-06
1.94549e-06
1.95742e-06
1.96744e-06
1.97542e-06
1.98134e-06
1.98479e-06
1.98611e-06
1.9851e-06
1.98159e-06
1.97551e-06
1.96681e-06
1.95546e-06
1.94143e-06
1.9247e-06
1.90529e-06
1.8832e-06
1.85847e-06
1.83114e-06
1.80127e-06
1.76894e-06
1.73425e-06
1.6973e-06
1.65821e-06
1.61713e-06
1.57421e-06
1.52959e-06
1.48346e-06
1.43599e-06
1.38737e-06
1.33779e-06
1.28745e-06
1.23654e-06
1.18525e-06
1.13379e-06
1.08233e-06
1.03107e-06
9.8018e-07
9.29823e-07
8.80158e-07
8.31326e-07
7.8346e-07
7.36674e-07
6.91071e-07
6.46734e-07
6.03734e-07
5.62124e-07
5.21941e-07
4.83205e-07
4.45922e-07
4.1008e-07
3.75654e-07
3.42606e-07
3.10883e-07
2.80424e-07
2.51158e-07
2.23012e-07
1.95916e-07
1.69815e-07
1.44681e-07
1.20539e-07
9.75009e-08
7.5802e-08
5.58418e-08
3.81937e-08
2.35412e-08
1.24939e-08
5.28903e-09
1.53491e-09
2.03963e-10
1.19839e-12
2.75936e-12
4.68897e-10
3.53225e-09
1.22531e-08
2.93278e-08
5.62704e-08
9.31575e-08
1.38878e-07
1.91617e-07
2.4935e-07
3.10186e-07
3.72542e-07
4.35195e-07
4.97251e-07
5.58097e-07
6.1734e-07
6.74748e-07
7.30212e-07
7.83709e-07
8.35275e-07
8.84992e-07
9.32965e-07
9.79322e-07
1.0242e-06
1.06774e-06
1.11008e-06
1.15136e-06
1.19173e-06
1.23129e-06
1.27017e-06
1.30847e-06
1.3463e-06
1.38373e-06
1.42085e-06
1.45772e-06
1.49438e-06
1.53089e-06
1.56728e-06
1.60356e-06
1.63977e-06
1.67589e-06
1.71194e-06
1.74789e-06
1.78374e-06
1.81946e-06
1.85501e-06
1.89035e-06
1.92544e-06
1.96023e-06
1.99465e-06
2.02863e-06
2.0621e-06
2.09498e-06
2.12717e-06
2.15858e-06
2.1891e-06
2.21864e-06
2.24707e-06
2.27427e-06
2.30013e-06
2.32451e-06
2.34728e-06
2.36832e-06
2.38748e-06
2.40464e-06
2.41967e-06
2.43243e-06
2.44281e-06
2.45067e-06
2.45586e-06
2.45809e-06
2.45795e-06
2.4548e-06
2.44861e-06
2.43933e-06
2.42692e-06
2.41133e-06
2.39256e-06
2.37059e-06
2.34545e-06
2.31715e-06
2.28574e-06
2.25128e-06
2.21386e-06
2.17357e-06
2.13052e-06
2.08484e-06
2.03669e-06
1.98622e-06
1.93361e-06
1.87904e-06
1.82272e-06
1.76484e-06
1.70563e-06
1.64531e-06
1.58409e-06
1.52221e-06
1.4599e-06
1.39736e-06
1.33483e-06
1.27251e-06
1.21061e-06
1.14933e-06
1.08883e-06
1.0293e-06
9.70873e-07
9.13701e-07
8.57899e-07
8.03569e-07
7.50794e-07
6.99639e-07
6.5015e-07
6.02353e-07
5.56255e-07
5.11844e-07
4.69092e-07
4.27954e-07
3.88367e-07
3.50259e-07
3.13549e-07
2.78154e-07
2.44e-07
2.11033e-07
1.7925e-07
1.48723e-07
1.19643e-07
9.23712e-08
6.74688e-08
4.56874e-08
2.78539e-08
1.46222e-08
6.13012e-09
1.76606e-09
2.33688e-10
1.37101e-12
3.16208e-12
5.37962e-10
4.06578e-09
1.4182e-08
3.41979e-08
6.6186e-08
1.10576e-07
1.66318e-07
2.31357e-07
3.0322e-07
3.79468e-07
4.57981e-07
5.37063e-07
6.15449e-07
6.92254e-07
7.669e-07
8.39046e-07
9.08527e-07
9.75302e-07
1.03942e-06
1.101e-06
1.16018e-06
1.21715e-06
1.2721e-06
1.32522e-06
1.3767e-06
1.42675e-06
1.47553e-06
1.52323e-06
1.56999e-06
1.61596e-06
1.66127e-06
1.70603e-06
1.75034e-06
1.79428e-06
1.83791e-06
1.8813e-06
1.92448e-06
1.96749e-06
2.01033e-06
2.05302e-06
2.09555e-06
2.13791e-06
2.18007e-06
2.22199e-06
2.26364e-06
2.30495e-06
2.34588e-06
2.38635e-06
2.42629e-06
2.4656e-06
2.50419e-06
2.54197e-06
2.57882e-06
2.61462e-06
2.64925e-06
2.68259e-06
2.7145e-06
2.74484e-06
2.77347e-06
2.80024e-06
2.825e-06
2.84761e-06
2.86792e-06
2.88578e-06
2.90105e-06
2.91359e-06
2.92327e-06
2.92997e-06
2.93338e-06
2.93331e-06
2.93082e-06
2.92457e-06
2.9148e-06
2.90145e-06
2.88449e-06
2.86391e-06
2.83969e-06
2.81185e-06
2.78041e-06
2.7454e-06
2.7069e-06
2.66497e-06
2.61973e-06
2.57128e-06
2.51975e-06
2.4653e-06
2.4081e-06
2.34832e-06
2.28616e-06
2.22184e-06
2.15557e-06
2.08759e-06
2.01812e-06
1.94743e-06
1.87574e-06
1.80333e-06
1.73042e-06
1.65728e-06
1.58413e-06
1.51122e-06
1.43878e-06
1.36701e-06
1.29612e-06
1.2263e-06
1.15772e-06
1.09053e-06
1.02487e-06
9.60858e-07
8.98582e-07
8.38119e-07
7.79522e-07
7.22822e-07
6.68028e-07
6.15128e-07
5.64089e-07
5.14859e-07
4.67371e-07
4.2154e-07
3.77277e-07
3.34493e-07
2.93114e-07
2.531e-07
2.14478e-07
1.77379e-07
1.42092e-07
1.09114e-07
7.91795e-08
5.3217e-08
3.21854e-08
1.67637e-08
6.98003e-09
2.00082e-09
2.63988e-10
1.54721e-12
3.58685e-12
6.1078e-10
4.62765e-09
1.62096e-08
3.93081e-08
7.65816e-08
1.28848e-07
1.95145e-07
2.73209e-07
3.60109e-07
4.52833e-07
5.4867e-07
6.454e-07
7.41336e-07
8.35277e-07
9.26432e-07
1.01433e-06
1.09873e-06
1.17959e-06
1.25697e-06
1.33101e-06
1.40192e-06
1.46994e-06
1.53531e-06
1.59831e-06
1.65918e-06
1.71819e-06
1.77555e-06
1.8315e-06
1.88623e-06
1.93992e-06
1.99274e-06
2.04482e-06
2.0963e-06
2.14726e-06
2.19778e-06
2.24795e-06
2.29779e-06
2.34735e-06
2.39664e-06
2.44567e-06
2.49442e-06
2.54287e-06
2.59099e-06
2.63874e-06
2.68605e-06
2.73287e-06
2.77911e-06
2.82469e-06
2.86952e-06
2.91348e-06
2.95648e-06
2.99838e-06
3.03906e-06
3.07839e-06
3.11622e-06
3.1524e-06
3.18679e-06
3.21923e-06
3.24956e-06
3.27763e-06
3.30327e-06
3.32632e-06
3.34663e-06
3.36405e-06
3.37842e-06
3.38962e-06
3.3975e-06
3.40195e-06
3.40249e-06
3.39918e-06
3.39337e-06
3.38317e-06
3.36896e-06
3.35075e-06
3.32855e-06
3.30233e-06
3.27211e-06
3.23792e-06
3.19978e-06
3.15775e-06
3.11193e-06
3.06239e-06
3.00925e-06
2.95265e-06
2.89273e-06
2.82967e-06
2.76364e-06
2.69485e-06
2.62352e-06
2.54986e-06
2.47411e-06
2.39653e-06
2.31737e-06
2.2369e-06
2.15537e-06
2.07306e-06
1.99023e-06
1.90715e-06
1.82407e-06
1.74126e-06
1.65895e-06
1.57738e-06
1.49676e-06
1.41731e-06
1.33919e-06
1.26258e-06
1.18764e-06
1.11448e-06
1.04321e-06
9.7391e-07
9.06639e-07
8.41432e-07
7.78297e-07
7.17221e-07
6.58167e-07
6.01078e-07
5.45877e-07
4.92474e-07
4.40772e-07
3.90679e-07
3.42125e-07
2.95088e-07
2.49634e-07
2.05962e-07
1.64466e-07
1.2579e-07
9.08398e-08
6.07194e-08
3.6511e-08
1.89106e-08
7.83644e-09
2.23853e-09
2.94772e-10
1.72646e-12
4.03423e-12
6.87457e-10
5.21885e-09
1.83403e-08
4.46703e-08
8.74777e-08
1.4799e-07
2.25352e-07
3.17098e-07
4.19832e-07
5.29936e-07
6.44073e-07
7.59453e-07
8.73922e-07
9.85934e-07
1.09446e-06
1.19888e-06
1.2989e-06
1.39443e-06
1.48556e-06
1.57248e-06
1.65546e-06
1.73479e-06
1.81081e-06
1.88384e-06
1.95421e-06
2.02224e-06
2.08821e-06
2.15241e-06
2.21507e-06
2.27642e-06
2.33666e-06
2.39596e-06
2.45445e-06
2.51226e-06
2.56948e-06
2.62618e-06
2.68243e-06
2.73824e-06
2.79364e-06
2.84862e-06
2.90317e-06
2.95726e-06
3.01084e-06
3.06386e-06
3.11624e-06
3.1679e-06
3.21875e-06
3.2687e-06
3.31762e-06
3.36539e-06
3.41189e-06
3.45698e-06
3.50051e-06
3.54233e-06
3.58229e-06
3.62022e-06
3.65596e-06
3.68935e-06
3.72022e-06
3.7484e-06
3.77373e-06
3.79604e-06
3.81518e-06
3.831e-06
3.84334e-06
3.85208e-06
3.85709e-06
3.85826e-06
3.85491e-06
3.84762e-06
3.83737e-06
3.82265e-06
3.80326e-06
3.77956e-06
3.75154e-06
3.71922e-06
3.68261e-06
3.64175e-06
3.5967e-06
3.54752e-06
3.49432e-06
3.4372e-06
3.37628e-06
3.31172e-06
3.24368e-06
3.17234e-06
3.09789e-06
3.02056e-06
2.94055e-06
2.85812e-06
2.77352e-06
2.687e-06
2.59883e-06
2.50929e-06
2.41866e-06
2.32722e-06
2.23525e-06
2.14302e-06
2.05081e-06
1.95889e-06
1.86751e-06
1.77691e-06
1.68734e-06
1.59899e-06
1.51208e-06
1.42678e-06
1.34324e-06
1.2616e-06
1.18197e-06
1.10444e-06
1.02907e-06
9.55893e-07
8.84918e-07
8.1613e-07
7.49488e-07
6.84928e-07
6.22366e-07
5.61705e-07
5.02843e-07
4.45685e-07
3.9017e-07
3.36298e-07
2.84175e-07
2.34072e-07
1.86494e-07
1.42229e-07
1.02358e-07
6.81524e-08
4.08142e-08
2.10575e-08
8.69763e-09
2.47873e-09
3.25975e-10
1.90835e-12
4.50481e-12
7.68102e-10
5.84041e-09
2.05785e-08
5.02968e-08
9.88977e-08
1.68036e-07
2.56964e-07
3.63018e-07
4.82311e-07
6.10595e-07
7.43865e-07
8.78726e-07
1.01253e-06
1.14335e-06
1.26991e-06
1.39144e-06
1.50756e-06
1.61818e-06
1.72339e-06
1.82346e-06
1.91869e-06
2.00948e-06
2.09622e-06
2.17932e-06
2.25919e-06
2.3362e-06
2.41072e-06
2.48306e-06
2.55353e-06
2.62238e-06
2.68985e-06
2.75614e-06
2.82141e-06
2.88579e-06
2.94939e-06
3.01229e-06
3.07455e-06
3.13619e-06
3.19724e-06
3.25768e-06
3.31748e-06
3.37661e-06
3.43501e-06
3.4926e-06
3.5493e-06
3.60502e-06
3.65965e-06
3.71307e-06
3.76515e-06
3.81576e-06
3.86474e-06
3.91196e-06
3.95724e-06
4.00043e-06
4.04137e-06
4.07988e-06
4.11579e-06
4.14893e-06
4.17913e-06
4.20623e-06
4.23006e-06
4.25047e-06
4.26729e-06
4.2804e-06
4.28964e-06
4.2949e-06
4.29606e-06
4.29302e-06
4.28489e-06
4.273e-06
4.25747e-06
4.23763e-06
4.21253e-06
4.18286e-06
4.14865e-06
4.10991e-06
4.06669e-06
4.01904e-06
3.96703e-06
3.91075e-06
3.85029e-06
3.78578e-06
3.71736e-06
3.64518e-06
3.56942e-06
3.49027e-06
3.40793e-06
3.32262e-06
3.23458e-06
3.14405e-06
3.05129e-06
2.95657e-06
2.86016e-06
2.76235e-06
2.66342e-06
2.56367e-06
2.46338e-06
2.36283e-06
2.26232e-06
2.16212e-06
2.06249e-06
1.96369e-06
1.86595e-06
1.76951e-06
1.67458e-06
1.58132e-06
1.48992e-06
1.40051e-06
1.31321e-06
1.22811e-06
1.14527e-06
1.06472e-06
9.86478e-07
9.10521e-07
8.36803e-07
7.65253e-07
6.95781e-07
6.28282e-07
5.62648e-07
4.98786e-07
4.36641e-07
3.76234e-07
3.17716e-07
2.61431e-07
2.07988e-07
1.58319e-07
1.13673e-07
7.54886e-08
4.50849e-08
2.3201e-08
9.56249e-09
2.72109e-09
3.57551e-10
2.09261e-12
4.99921e-12
8.52831e-10
6.49335e-09
2.29286e-08
5.61996e-08
1.10866e-07
1.89022e-07
2.90025e-07
4.10997e-07
5.47537e-07
6.94728e-07
8.47866e-07
1.00291e-06
1.1567e-06
1.30692e-06
1.45203e-06
1.59109e-06
1.72366e-06
1.84963e-06
1.96913e-06
2.08247e-06
2.19004e-06
2.29231e-06
2.38975e-06
2.48287e-06
2.57214e-06
2.65801e-06
2.7409e-06
2.82121e-06
2.89926e-06
2.97537e-06
3.0498e-06
3.12278e-06
3.19448e-06
3.26506e-06
3.33463e-06
3.40328e-06
3.47107e-06
3.53802e-06
3.60414e-06
3.66941e-06
3.73381e-06
3.79727e-06
3.85972e-06
3.92109e-06
3.98126e-06
4.04014e-06
4.0976e-06
4.15351e-06
4.20772e-06
4.26009e-06
4.31047e-06
4.35868e-06
4.40456e-06
4.44795e-06
4.48868e-06
4.52657e-06
4.56144e-06
4.59315e-06
4.62151e-06
4.64636e-06
4.66756e-06
4.68496e-06
4.69841e-06
4.70779e-06
4.71297e-06
4.71385e-06
4.71032e-06
4.70224e-06
4.68862e-06
4.67164e-06
4.65024e-06
4.62465e-06
4.59364e-06
4.55768e-06
4.51704e-06
4.47176e-06
4.42189e-06
4.36749e-06
4.30864e-06
4.24543e-06
4.17798e-06
4.10642e-06
4.0309e-06
3.95157e-06
3.86861e-06
3.78222e-06
3.69261e-06
3.6e-06
3.50462e-06
3.40673e-06
3.30658e-06
3.20444e-06
3.1006e-06
2.99533e-06
2.88894e-06
2.78171e-06
2.67393e-06
2.56591e-06
2.45792e-06
2.35025e-06
2.24318e-06
2.13697e-06
2.03187e-06
1.9281e-06
1.82589e-06
1.72542e-06
1.62688e-06
1.53039e-06
1.4361e-06
1.34407e-06
1.2544e-06
1.16709e-06
1.08218e-06
9.99618e-07
9.19369e-07
8.41352e-07
7.65468e-07
6.91606e-07
6.19652e-07
5.49513e-07
4.8114e-07
4.14576e-07
3.50011e-07
2.87858e-07
2.28827e-07
1.73988e-07
1.2475e-07
8.27127e-08
4.93175e-08
2.53395e-08
1.04305e-08
2.96548e-09
3.89482e-10
2.27913e-12
5.51806e-12
9.41754e-10
7.17864e-09
2.53946e-08
6.239e-08
1.23406e-07
2.10987e-07
3.24586e-07
4.61088e-07
6.15541e-07
7.82323e-07
9.55991e-07
1.13184e-06
1.30617e-06
1.47625e-06
1.64029e-06
1.79719e-06
1.94644e-06
2.08792e-06
2.2218e-06
2.34844e-06
2.46833e-06
2.582e-06
2.69005e-06
2.79304e-06
2.89154e-06
2.98606e-06
3.0771e-06
3.16509e-06
3.25044e-06
3.33348e-06
3.41451e-06
3.49378e-06
3.5715e-06
3.64782e-06
3.72287e-06
3.79673e-06
3.86946e-06
3.94109e-06
4.01161e-06
4.08101e-06
4.14923e-06
4.21621e-06
4.28187e-06
4.34611e-06
4.40882e-06
4.46987e-06
4.52914e-06
4.58648e-06
4.64173e-06
4.69475e-06
4.74537e-06
4.79342e-06
4.83873e-06
4.88114e-06
4.92047e-06
4.95656e-06
4.98924e-06
5.01836e-06
5.04376e-06
5.06529e-06
5.08281e-06
5.0962e-06
5.10532e-06
5.11008e-06
5.11038e-06
5.10612e-06
5.09725e-06
5.08328e-06
5.06387e-06
5.04129e-06
5.01376e-06
4.98186e-06
4.94489e-06
4.90249e-06
4.85538e-06
4.80358e-06
4.74716e-06
4.68619e-06
4.62075e-06
4.55095e-06
4.47691e-06
4.39876e-06
4.31664e-06
4.23072e-06
4.14118e-06
4.04822e-06
3.95203e-06
3.85284e-06
3.75088e-06
3.6464e-06
3.53966e-06
3.43092e-06
3.32046e-06
3.20857e-06
3.09553e-06
2.98164e-06
2.8672e-06
2.7525e-06
2.63784e-06
2.5235e-06
2.40976e-06
2.2969e-06
2.18516e-06
2.07479e-06
1.96601e-06
1.85902e-06
1.75399e-06
1.65109e-06
1.55043e-06
1.45211e-06
1.35619e-06
1.26272e-06
1.1717e-06
1.08309e-06
9.96848e-07
9.12885e-07
8.31097e-07
7.51363e-07
6.73565e-07
5.97606e-07
5.23444e-07
4.5114e-07
3.80918e-07
3.13253e-07
2.48948e-07
1.89199e-07
1.3557e-07
8.98182e-08
5.35106e-08
2.7473e-08
1.13019e-08
3.21193e-09
4.21769e-10
2.46791e-12
6.06193e-12
1.03498e-09
7.89719e-09
2.79802e-08
6.88782e-08
1.36541e-07
2.33968e-07
3.60699e-07
5.13345e-07
6.86368e-07
8.73396e-07
1.06821e-06
1.26542e-06
1.46075e-06
1.65108e-06
1.83434e-06
2.00929e-06
2.17535e-06
2.3324e-06
2.48065e-06
2.62055e-06
2.75265e-06
2.8776e-06
2.99607e-06
3.10872e-06
3.21619e-06
3.31908e-06
3.41796e-06
3.51331e-06
3.60558e-06
3.69515e-06
3.78235e-06
3.86745e-06
3.95067e-06
4.03219e-06
4.11212e-06
4.19057e-06
4.26758e-06
4.34318e-06
4.41735e-06
4.49007e-06
4.56127e-06
4.63088e-06
4.69882e-06
4.76496e-06
4.82919e-06
4.89138e-06
4.95139e-06
5.00905e-06
5.06423e-06
5.11675e-06
5.16645e-06
5.21318e-06
5.25676e-06
5.29702e-06
5.33382e-06
5.36699e-06
5.39638e-06
5.42184e-06
5.44325e-06
5.46047e-06
5.47338e-06
5.48188e-06
5.48586e-06
5.48525e-06
5.47997e-06
5.46995e-06
5.45516e-06
5.43476e-06
5.40962e-06
5.38087e-06
5.34703e-06
5.30859e-06
5.26562e-06
5.21685e-06
5.16336e-06
5.10522e-06
5.0425e-06
4.97527e-06
4.90363e-06
4.82768e-06
4.74754e-06
4.66334e-06
4.57523e-06
4.48337e-06
4.38793e-06
4.2891e-06
4.18708e-06
4.08208e-06
3.97433e-06
3.86406e-06
3.75154e-06
3.63701e-06
3.52075e-06
3.40304e-06
3.28417e-06
3.16443e-06
3.04411e-06
2.92351e-06
2.80293e-06
2.68265e-06
2.56297e-06
2.44415e-06
2.32646e-06
2.21015e-06
2.09545e-06
1.98255e-06
1.87166e-06
1.76292e-06
1.65647e-06
1.55241e-06
1.4508e-06
1.35169e-06
1.25508e-06
1.16094e-06
1.06921e-06
9.79799e-07
8.92593e-07
8.07466e-07
7.24294e-07
6.42976e-07
5.63472e-07
4.85855e-07
4.10382e-07
3.37577e-07
2.68326e-07
2.03942e-07
1.46131e-07
9.68063e-08
5.76663e-08
2.9603e-08
1.21771e-08
3.46062e-09
4.54437e-10
2.6591e-12
6.63137e-12
1.1326e-09
8.64983e-09
3.06887e-08
7.56737e-08
1.50289e-07
2.57999e-07
3.98412e-07
5.67823e-07
7.60071e-07
9.6798e-07
1.18452e-06
1.40359e-06
1.62033e-06
1.83122e-06
2.03392e-06
2.22705e-06
2.40997e-06
2.58258e-06
2.74514e-06
2.89817e-06
3.04232e-06
3.17833e-06
3.30697e-06
3.42899e-06
3.54513e-06
3.65605e-06
3.76239e-06
3.86469e-06
3.96344e-06
4.05907e-06
4.15194e-06
4.24232e-06
4.33047e-06
4.41656e-06
4.50072e-06