/*--------------------------------*- C++ -*----------------------------------*\
  =========                 |
  \\      /  F ield         | OpenFOAM: The Open Source CFD Toolbox
   \\    /   O peration     | Website:  https://openfoam.org
    \\  /    A nd           | Version:  12
     \\/     M anipulation  |
\*---------------------------------------------------------------------------*/
FoamFile
{
    format      ascii;
    class       volScalarField;
    location    "1.5";
    object      p;
}
// * * * * * * * * * * * * * * * * * * * * * * * * * * * * * * * * * * * * * //

dimensions      [0 2 -2 0 0 0 0];

internalField   nonuniform List<scalar> 
18225
(
3.37918e-08
6.8537e-07
-6.09462e-06
-2.08333e-05
-4.24851e-05
-7.03363e-05
-0.000103728
-0.000142009
-0.000184549
-0.000230772
-0.000280179
-0.000332367
-0.000387024
-0.000443911
-0.000502839
-0.000563652
-0.000626201
-0.00069033
-0.000755873
-0.000822644
-0.000890443
-0.000959057
-0.00102827
-0.00109787
-0.00116764
-0.00123738
-0.00130691
-0.00137604
-0.00144461
-0.00151245
-0.00157939
-0.00164524
-0.00170983
-0.00177294
-0.00183434
-0.00189377
-0.00195096
-0.00200559
-0.00205735
-0.00210588
-0.00215082
-0.0021918
-0.00222843
-0.00226033
-0.00228713
-0.00230845
-0.00232392
-0.00233315
-0.00233579
-0.00233151
-0.00232002
-0.00230109
-0.00227451
-0.00224013
-0.0021978
-0.00214745
-0.00208903
-0.00202253
-0.00194804
-0.00186568
-0.00177565
-0.00167823
-0.00157376
-0.00146267
-0.00134547
-0.00122275
-0.00109516
-0.000963407
-0.000828327
-0.000690794
-0.000551744
-0.000412171
-0.000273124
-0.00013569
-9.89823e-07
0.000129835
0.00025563
0.000375246
0.000487542
0.000591407
0.000685766
0.000769599
0.000841947
0.000901932
0.000948762
0.000981745
0.0010003
0.00100396
0.000992399
0.000965398
0.000922889
0.000864938
0.000791749
0.00070366
0.000601145
0.000484802
0.000355352
0.000213626
6.05592e-05
-0.000102826
-0.000275425
-0.000456072
-0.000643545
-0.000836587
-0.00103392
-0.00123425
-0.00143628
-0.00163874
-0.00184038
-0.00204
-0.0022364
-0.00242848
-0.00261518
-0.0027955
-0.00296848
-0.00313327
-0.00328904
-0.00343506
-0.00357063
-0.00369513
-0.00380798
-0.00390867
-0.00399676
-0.00407186
-0.00413366
-0.00418199
-0.00421678
-0.00423821
-0.00424672
-0.00424321
-0.0042292
-0.00420715
-0.0041809
-0.0041563
-0.00414089
-4.40164e-06
-3.63479e-06
-1.00003e-05
-2.42191e-05
-4.48823e-05
-7.10661e-05
-0.000102212
-0.000137827
-0.000177425
-0.000220545
-0.000266783
-0.000315802
-0.000367335
-0.000421171
-0.000477137
-0.000535081
-0.000594857
-0.000656305
-0.00071925
-0.000783497
-0.000848836
-0.000915048
-0.000981907
-0.00104919
-0.00111669
-0.00118419
-0.00125152
-0.00131848
-0.00138492
-0.00145066
-0.00151555
-0.00157941
-0.00164206
-0.0017033
-0.00176291
-0.00182064
-0.00187624
-0.0019294
-0.00197982
-0.00202716
-0.00207109
-0.00211123
-0.00214723
-0.00217873
-0.00220536
-0.00222678
-0.00224261
-0.0022525
-0.0022561
-0.0022531
-0.00224322
-0.00222624
-0.00220197
-0.00217026
-0.00213098
-0.00208404
-0.00202941
-0.00196707
-0.00189711
-0.00181964
-0.00173486
-0.00164302
-0.00154447
-0.0014396
-0.0013289
-0.00121295
-0.00109234
-0.000967772
-0.000840055
-0.00071001
-0.000578531
-0.000446574
-0.000315145
-0.000185283
-5.80629e-05
6.5422e-05
0.000184067
0.00029677
0.00040244
0.000500012
0.000588459
0.000666803
0.000734129
0.000789597
0.000832451
0.000862032
0.000877786
0.000879273
0.000866174
0.000838295
0.000795573
0.000738077
0.000666005
0.000579689
0.000479587
0.000366278
0.000240458
0.000102928
-4.54133e-05
-0.00020358
-0.000370512
-0.000545088
-0.000726138
-0.000912456
-0.00110281
-0.00129596
-0.00149068
-0.00168574
-0.00187994
-0.00207213
-0.00226119
-0.00244604
-0.00262568
-0.00279915
-0.00296556
-0.00312407
-0.00327392
-0.00341442
-0.00354491
-0.00366483
-0.00377364
-0.0038709
-0.00395622
-0.00402928
-0.00408987
-0.00413786
-0.00417331
-0.00419644
-0.00420778
-0.00420821
-0.00419915
-0.00418272
-0.00416193
-0.00414089
-0.00412548
-2.55939e-06
-1.23614e-06
-7.23843e-06
-2.13906e-05
-4.15935e-05
-6.66394e-05
-9.59864e-05
-0.000129261
-0.000166117
-0.000206232
-0.000249308
-0.000295096
-0.000343387
-0.00039402
-0.000446849
-0.000501743
-0.000558558
-0.000617139
-0.000677306
-0.00073886
-0.000801581
-0.000865242
-0.000929608
-0.000994453
-0.00105955
-0.00112471
-0.00118972
-0.00125443
-0.00131864
-0.00138222
-0.001445
-0.00150683
-0.00156751
-0.00162688
-0.00168471
-0.00174079
-0.00179486
-0.00184664
-0.00189583
-0.00194214
-0.00198521
-0.00202472
-0.00206031
-0.00209165
-0.00211839
-0.00214019
-0.00215671
-0.0021676
-0.00217251
-0.00217116
-0.00216327
-0.00214865
-0.00212711
-0.0020985
-0.00206269
-0.0020196
-0.00196919
-0.00191145
-0.00184645
-0.00177429
-0.00169516
-0.0016093
-0.00151703
-0.00141873
-0.00131487
-0.00120597
-0.00109261
-0.000975484
-0.000855332
-0.000732944
-0.000609181
-0.000484955
-0.000361227
-0.000238994
-0.000119283
-3.14466e-06
0.000108365
0.000214187
0.000313276
0.000404611
0.000487207
0.000560127
0.000622494
0.000673502
0.000712429
0.000738643
0.000751616
0.00075093
0.00073628
0.000707487
0.000664493
0.000607369
0.000536313
0.000451648
0.00035382
0.00024339
0.000121031
-1.24811e-05
-0.000156279
-0.000309411
-0.000470857
-0.000639537
-0.000814325
-0.000994063
-0.00117757
-0.00136366
-0.00155114
-0.00173885
-0.00192565
-0.00211042
-0.0022921
-0.00246968
-0.00264218
-0.00280872
-0.00296843
-0.00312055
-0.00326436
-0.0033992
-0.00352449
-0.0036397
-0.00374437
-0.00383809
-0.00392055
-0.0039915
-0.00405078
-0.00409834
-0.00413427
-0.00415885
-0.00417258
-0.00417626
-0.00417106
-0.00415864
-0.0041409
-0.00411984
-0.00410084
9.12392e-06
1.07194e-05
4.83262e-06
-9.45414e-06
-2.96502e-05
-5.42707e-05
-8.26891e-05
-0.000114545
-0.000149574
-0.000187544
-0.000228253
-0.000271527
-0.000317221
-0.000365218
-0.00041541
-0.00046769
-0.000521932
-0.000577991
-0.000635692
-0.000694839
-0.000755212
-0.00081658
-0.00087871
-0.00094137
-0.00100434
-0.00106742
-0.00113041
-0.00119314
-0.00125545
-0.0013172
-0.00137822
-0.00143836
-0.00149746
-0.00155535
-0.00161182
-0.00166667
-0.00171964
-0.00177048
-0.00181891
-0.00186462
-0.00190731
-0.00194663
-0.00198226
-0.00201388
-0.00204114
-0.00206373
-0.00208131
-0.00209353
-0.00210007
-0.00210064
-0.00209498
-0.00208288
-0.00206418
-0.00203872
-0.00200638
-0.00196706
-0.00192071
-0.00186733
-0.00180696
-0.0017397
-0.00166573
-0.00158526
-0.00149859
-0.00140609
-0.0013082
-0.00120541
-0.00109829
-0.000987491
-0.000873723
-0.000757752
-0.000640404
-0.000522559
-0.000405145
-0.000289124
-0.000175493
-6.52658e-05
4.05319e-05
0.000140874
0.000234747
0.000321158
0.000399151
0.000467815
0.000526299
0.000573819
0.000609674
0.000633252
0.000644039
0.000641629
0.000625731
0.00059617
0.000552895
0.000495979
0.000425616
0.000342127
0.000245948
0.000137631
1.78363e-05
-0.000112679
-0.000253067
-0.000402398
-0.000559679
-0.000723855
-0.000893832
-0.00106848
-0.00124666
-0.00142722
-0.00160901
-0.00179089
-0.00197178
-0.0021506
-0.00232633
-0.00249799
-0.00266466
-0.00282549
-0.00297968
-0.00312649
-0.00326526
-0.00339537
-0.00351629
-0.00362753
-0.0037287
-0.00381942
-0.00389944
-0.00396854
-0.00402661
-0.00407362
-0.00410969
-0.00413503
-0.00415008
-0.00415545
-0.00415204
-0.00414098
-0.00412321
-0.00409902
-0.0040745
3.10326e-05
3.18728e-05
2.52996e-05
1.04022e-05
-1.02372e-05
-3.49794e-05
-6.30935e-05
-9.41941e-05
-0.000128056
-0.000164508
-0.000203429
-0.000244708
-0.000288269
-0.000334035
-0.000381946
-0.000431918
-0.000483855
-0.000537625
-0.000593069
-0.000649998
-0.0007082
-0.000767448
-0.000827512
-0.000888163
-0.000949185
-0.00101037
-0.00107155
-0.00113253
-0.00119318
-0.00125334
-0.00131287
-0.00137162
-0.00142945
-0.00148618
-0.00154163
-0.00159559
-0.00164784
-0.00169812
-0.00174617
-0.0017917
-0.0018344
-0.00187395
-0.00191004
-0.00194234
-0.00197055
-0.00199433
-0.00201335
-0.00202728
-0.00203579
-0.0020386
-0.00203545
-0.00202615
-0.00201051
-0.00198837
-0.00195962
-0.00192414
-0.00188187
-0.0018328
-0.00177696
-0.00171444
-0.00164537
-0.00156998
-0.00148854
-0.00140139
-0.00130894
-0.00121168
-0.00111014
-0.00100495
-0.000896786
-0.000786396
-0.00067458
-0.000562189
-0.000450126
-0.000339329
-0.000230769
-0.000125435
-2.43322e-05
7.1537e-05
0.000161178
0.00024362
0.000317922
0.000383192
0.000438591
0.000483352
0.000516783
0.000538283
0.000547348
0.000543579
0.000526689
0.000496507
0.000452986
0.000396197
0.000326336
0.000243719
0.000148779
4.20615e-05
-7.57828e-05
-0.000204005
-0.000341769
-0.00048816
-0.000642198
-0.000802849
-0.000969037
-0.00113966
-0.00131358
-0.0014897
-0.00166688
-0.00184402
-0.00202006
-0.00219396
-0.00236474
-0.00253145
-0.00269321
-0.00284921
-0.00299868
-0.00314094
-0.00327536
-0.00340138
-0.0035185
-0.00362628
-0.00372436
-0.00381244
-0.00389026
-0.00395767
-0.00401456
-0.00406091
-0.00409681
-0.00412242
-0.00413806
-0.00414414
-0.00414126
-0.00413012
-0.00411086
-0.00408257
-0.00405232
6.24312e-05
6.15063e-05
5.33412e-05
3.72412e-05
1.56787e-05
-9.66287e-06
-3.79702e-05
-6.88315e-05
-0.00010203
-0.000137455
-0.000175036
-0.000214734
-0.000256523
-0.000300384
-0.000346293
-0.000394207
-0.000444054
-0.00049573
-0.000549092
-0.000603966
-0.000660151
-0.000717432
-0.000775583
-0.000834385
-0.000893625
-0.000953107
-0.00101265
-0.0010721
-0.00113129
-0.00119011
-0.0012484
-0.00130604
-0.00136288
-0.00141876
-0.00147351
-0.00152693
-0.00157881
-0.00162891
-0.00167697
-0.0017227
-0.00176581
-0.00180601
-0.00184297
-0.00187638
-0.00190594
-0.00193132
-0.00195219
-0.00196823
-0.00197909
-0.0019845
-0.00198421
-0.001978
-0.00196569
-0.00194712
-0.00192215
-0.00189067
-0.00185259
-0.00180788
-0.00175657
-0.00169871
-0.00163445
-0.00156396
-0.00148751
-0.0014054
-0.00131804
-0.00122588
-0.00112944
-0.00102932
-0.000926176
-0.000820729
-0.000713759
-0.000606098
-0.000498629
-0.00039227
-0.000287973
-0.000186715
-8.94815e-05
2.73632e-06
8.8957e-05
0.000168219
0.000239594
0.000302194
0.000355191
0.000397821
0.000429398
0.000449323
0.000457096
0.000452318
0.000434705
0.000404087
0.000360414
0.000303759
0.000234314
0.000152395
5.84308e-05
-4.7035e-05
-0.000163356
-0.000289788
-0.000425501
-0.000569588
-0.000721076
-0.00087894
-0.00104212
-0.00120952
-0.00138003
-0.00155254
-0.00172597
-0.00189922
-0.00207125
-0.00224106
-0.00240767
-0.0025702
-0.00272778
-0.00287965
-0.00302506
-0.00316338
-0.00329401
-0.00341645
-0.00353022
-0.00363494
-0.00373028
-0.00381598
-0.00389181
-0.00395763
-0.00401335
-0.00405896
-0.00409447
-0.00412002
-0.00413577
-0.00414196
-0.00413895
-0.00412706
-0.00410585
-0.00407352
-0.00403819
0.000102557
9.89739e-05
8.83682e-05
7.0457e-05
4.74813e-05
2.10885e-05
-7.86384e-06
-3.89356e-05
-7.19185e-05
-0.000106741
-0.000143383
-0.000181867
-0.000222219
-0.000264476
-0.000308653
-0.00035475
-0.000402727
-0.000452509
-0.000503974
-0.000556971
-0.000611313
-0.000666799
-0.000723215
-0.00078035
-0.000838
-0.000895978
-0.000954111
-0.00101225
-0.00107024
-0.00112798
-0.00118531
-0.00124213
-0.0012983
-0.00135366
-0.00140806
-0.00146131
-0.00151321
-0.00156352
-0.00161198
-0.00165835
-0.00170231
-0.00174359
-0.00178186
-0.00181683
-0.00184819
-0.00187562
-0.00189878
-0.00191733
-0.00193096
-0.00193936
-0.00194229
-0.00193951
-0.00193085
-0.00191611
-0.00189516
-0.00186785
-0.0018341
-0.00179385
-0.0017471
-0.00169391
-0.00163437
-0.00156865
-0.00149699
-0.00141968
-0.0013371
-0.00124967
-0.00115791
-0.00106238
-0.000963716
-0.000862631
-0.000759883
-0.000656288
-0.000552712
-0.000450063
-0.000349281
-0.00025133
-0.000157192
-6.78481e-05
1.57232e-05
9.25642e-05
0.000161748
0.000222388
0.000273655
0.000314783
0.000345085
0.000363959
0.0003709
0.000365509
0.000347496
0.000316688
0.000273032
0.000216598
0.000147577
6.62813e-05
-2.68603e-05
-0.000131307
-0.000246413
-0.000371436
-0.000505545
-0.000647837
-0.000797341
-0.000953035
-0.00111386
-0.00127873
-0.00144654
-0.0016162
-0.00178662
-0.00195673
-0.00212551
-0.00229197
-0.00245516
-0.00261421
-0.0027683
-0.00291668
-0.00305865
-0.0031936
-0.00332099
-0.00344033
-0.0035512
-0.00365324
-0.00374617
-0.00382974
-0.00390377
-0.00396814
-0.00402275
-0.00406756
-0.00410258
-0.00412784
-0.00414342
-0.00414939
-0.0041459
-0.00413302
-0.00410987
-0.00407407
-0.0040346
0.000150544
0.000143541
0.000129743
0.00010944
8.45781e-05
5.67077e-05
2.66994e-05
-4.98294e-06
-3.81468e-05
-7.27436e-05
-0.000108809
-0.000146411
-0.000185637
-0.00022657
-0.000269277
-0.000313795
-0.000360124
-0.000408218
-0.000457987
-0.0005093
-0.000561991
-0.000615876
-0.000670756
-0.00072643
-0.000782709
-0.000839412
-0.00089638
-0.000953465
-0.00101054
-0.00106748
-0.00112417
-0.0011805
-0.00123634
-0.00129155
-0.00134599
-0.00139946
-0.00145179
-0.00150274
-0.00155207
-0.00159951
-0.0016448
-0.00168763
-0.0017277
-0.00176471
-0.00179835
-0.0018283
-0.00185422
-0.00187576
-0.00189259
-0.00190442
-0.00191096
-0.001912
-0.00190732
-0.00189674
-0.00188007
-0.00185717
-0.00182793
-0.00179227
-0.00175017
-0.00170165
-0.00164681
-0.00158578
-0.00151877
-0.00144606
-0.001368
-0.00128499
-0.00119753
-0.00110616
-0.0010115
-0.000914255
-0.000815156
-0.000715014
-0.000614683
-0.000515064
-0.00041709
-0.000321722
-0.000229939
-0.000142724
-6.10555e-05
1.41045e-05
8.18234e-05
0.00014121
0.000191426
0.000231698
0.00026133
0.000279711
0.000286329
0.000280774
0.000262748
0.000232073
0.000188687
0.000132657
6.41679e-05
-1.64701e-05
-0.00010883
-0.000212371
-0.000326447
-0.000450314
-0.000583141
-0.00072402
-0.000871978
-0.00102599
-0.001185
-0.00134792
-0.00151364
-0.00168108
-0.00184915
-0.00201679
-0.00218298
-0.00234676
-0.00250719
-0.00266342
-0.00281465
-0.00296014
-0.00309925
-0.00323138
-0.00335602
-0.00347273
-0.00358113
-0.00368087
-0.00377171
-0.00385344
-0.00392589
-0.00398895
-0.00404253
-0.00408657
-0.00412105
-0.00414594
-0.00416122
-0.00416684
-0.00416279
-0.00414895
-0.00412416
-0.00408567
-0.00404311
0.000205454
0.000194408
0.000176754
0.00015354
0.000126358
9.6617e-05
6.51861e-05
3.2534e-05
-1.15778e-06
-3.58677e-05
-7.16774e-05
-0.000108702
-0.000147087
-0.000186961
-0.000228446
-0.000271619
-0.000316523
-0.000363145
-0.000411426
-0.000461262
-0.000512513
-0.00056501
-0.000618575
-0.000673021
-0.000728171
-0.000783857
-0.00083993
-0.000896253
-0.000952708
-0.00100918
-0.00106557
-0.00112177
-0.00117767
-0.00123313
-0.00128802
-0.00134216
-0.00139537
-0.00144743
-0.0014981
-0.00154713
-0.00159425
-0.00163915
-0.00168154
-0.00172112
-0.00175756
-0.00179055
-0.00181974
-0.00184477
-0.00186531
-0.00188102
-0.00189164
-0.00189691
-0.00189661
-0.00189053
-0.00187847
-0.00186025
-0.00183575
-0.00180487
-0.00176755
-0.0017238
-0.00167368
-0.0016173
-0.00155486
-0.00148661
-0.00141286
-0.00133402
-0.00125054
-0.00116297
-0.0010719
-0.000978017
-0.000882052
-0.000784803
-0.00068712
-0.000589897
-0.000494069
-0.000400596
-0.000310462
-0.000224654
-0.000144161
-6.99524e-05
-2.97357e-06
5.58718e-05
0.000105732
0.000145819
0.000175423
0.000193917
0.000200774
0.000195571
0.000177998
0.000147863
0.000105096
4.97539e-05
-1.79835e-05
-9.78117e-05
-0.000189306
-0.000291927
-0.000405026
-0.000527858
-0.000659586
-0.000799298
-0.000946015
-0.00109871
-0.0012563
-0.00141772
-0.00158184
-0.00174758
-0.00191384
-0.00207958
-0.00224377
-0.00240546
-0.00256372
-0.0027177
-0.00286664
-0.00300982
-0.00314661
-0.00327644
-0.00339883
-0.00351334
-0.00361965
-0.00371747
-0.00380656
-0.00388673
-0.00395783
-0.00401976
-0.00407244
-0.0041158
-0.00414978
-0.00417431
-0.00418929
-0.0041946
-0.00419008
-0.00417551
-0.00414955
-0.00410923
-0.00406464
0.000266334
0.000250722
0.000228668
0.000202083
0.000172185
0.000140221
0.00010704
7.31001e-05
3.85749e-05
3.44879e-06
-3.23914e-05
-6.91193e-05
-0.000106924
-0.000145994
-0.000186496
-0.000228558
-0.00027226
-0.000317631
-0.000364645
-0.000413228
-0.000463264
-0.000514611
-0.000567105
-0.00062058
-0.000674872
-0.000729828
-0.000785309
-0.000841192
-0.000897368
-0.000953739
-0.00101021
-0.00106668
-0.00112305
-0.0011792
-0.001235
-0.00129029
-0.00134488
-0.00139856
-0.00145111
-0.00150227
-0.00155177
-0.0015993
-0.00164458
-0.0016873
-0.00172712
-0.00176373
-0.00179675
-0.00182583
-0.0018506
-0.00187072
-0.00188591
-0.0018959
-0.00190042
-0.00189925
-0.00189217
-0.00187897
-0.0018595
-0.00183363
-0.00180128
-0.00176243
-0.00171712
-0.00166543
-0.00160753
-0.00154365
-0.00147408
-0.0013992
-0.00131945
-0.00123536
-0.00114752
-0.00105659
-0.000963292
-0.000868424
-0.000772835
-0.000677416
-0.000583105
-0.000490868
-0.000401697
-0.000316592
-0.000236552
-0.000162565
-9.5592e-05
-3.65549e-05
1.36743e-05
5.42877e-05
8.4553e-05
0.000103825
0.000111554
0.000107299
9.07319e-05
6.16434e-05
1.99501e-05
-3.43049e-05
-0.000100951
-0.000179691
-0.000270104
-0.000371654
-0.000483692
-0.000605468
-0.000736142
-0.000874793
-0.00102044
-0.00117203
-0.00132849
-0.00148873
-0.00165162
-0.00181606
-0.00198096
-0.00214526
-0.00230795
-0.00246804
-0.00262464
-0.00277691
-0.00292408
-0.00306545
-0.0032004
-0.00332841
-0.003449
-0.00356178
-0.00366643
-0.00376269
-0.00385035
-0.00392925
-0.00399926
-0.00406028
-0.00411223
-0.00415505
-0.00418865
-0.00421292
-0.00422772
-0.00423286
-0.00422811
-0.00421316
-0.00418657
-0.00414529
-0.00409964
0.00033224
0.000311628
0.00028471
0.000254353
0.000221391
0.000186894
0.000151672
0.000116169
8.05366e-05
4.47294e-05
8.59606e-06
-2.80883e-05
-6.55603e-05
-0.000104067
-0.00014382
-0.000185001
-0.000227732
-0.000272083
-0.000318063
-0.000365632
-0.000414702
-0.000465155
-0.000516849
-0.000569639
-0.000623374
-0.000677919
-0.000733145
-0.000788946
-0.000845221
-0.000901886
-0.000958853
-0.00101604
-0.00107335
-0.00113068
-0.00118789
-0.00124485
-0.00130136
-0.00135724
-0.00141224
-0.00146612
-0.0015186
-0.0015694
-0.00161819
-0.00166466
-0.0017085
-0.00174934
-0.00178681
-0.00182054
-0.00185015
-0.00187527
-0.00189559
-0.00191081
-0.00192066
-0.00192487
-0.00192319
-0.0019154
-0.00190131
-0.00188075
-0.00185363
-0.00181989
-0.00177953
-0.00173262
-0.00167929
-0.00161976
-0.00155429
-0.00148323
-0.00140703
-0.00132617
-0.00124124
-0.0011529
-0.00106185
-0.0009689
-0.00087489
-0.000780716
-0.000687321
-0.000595684
-0.000506805
-0.000421702
-0.000341392
-0.000266882
-0.000199157
-0.000139164
-8.77983e-05
-4.58956e-05
-1.42146e-05
6.57228e-06
1.58904e-05
1.32722e-05
-1.63437e-06
-2.90596e-05
-6.91071e-05
-0.000121751
-0.000186833
-0.00026407
-0.000353047
-0.000453231
-0.000563977
-0.000684531
-0.000814049
-0.000951601
-0.00109619
-0.00124677
-0.00140224
-0.0015615
-0.0017234
-0.00188685
-0.00205072
-0.00221395
-0.00237552
-0.00253446
-0.00268984
-0.00284085
-0.0029867
-0.00312673
-0.00326032
-0.00338695
-0.00350619
-0.00361765
-0.00372103
-0.00381611
-0.00390268
-0.00398062
-0.00404981
-0.00411017
-0.00416163
-0.0042041
-0.0042375
-0.00426169
-0.00427651
-0.00428171
-0.00427703
-0.00426211
-0.00423548
-0.00419405
-0.00414824
0.000402235
0.000376257
0.000344078
0.000309602
0.000273274
0.000235973
0.000198458
0.000161151
0.000124172
8.74502e-05
5.07849e-05
1.39135e-05
-2.34621e-05
-6.16333e-05
-0.000100872
-0.000141402
-0.000183397
-0.000226967
-0.000272162
-0.000318973
-0.000367346
-0.000417187
-0.000468381
-0.000520797
-0.00057431
-0.000628795
-0.000684142
-0.000740254
-0.000797048
-0.000854446
-0.000912376
-0.000970763
-0.00102952
-0.00108856
-0.00114775
-0.00120695
-0.00126599
-0.00132467
-0.00138276
-0.00144001
-0.00149614
-0.00155086
-0.00160384
-0.00165476
-0.00170329
-0.00174905
-0.00179166
-0.00183071
-0.0018658
-0.00189656
-0.00192262
-0.00194368
-0.00195942
-0.00196955
-0.00197378
-0.00197185
-0.00196355
-0.00194868
-0.0019271
-0.00189873
-0.00186354
-0.00182157
-0.00177292
-0.00171778
-0.0016564
-0.0015891
-0.00151629
-0.00143848
-0.00135621
-0.00127015
-0.00118099
-0.00108953
-0.000996622
-0.000903166
-0.000810111
-0.00071845
-0.000629199
-0.000543396
-0.00046208
-0.000386284
-0.000317018
-0.00025526
-0.000201938
-0.000157919
-0.000123993
-0.000100868
-8.9149e-05
-8.93365e-05
-0.000101812
-0.000126835
-0.000164533
-0.000214903
-0.000277808
-0.000352977
-0.00044001
-0.000538382
-0.000647449
-0.000766459
-0.000894563
-0.00103083
-0.00117424
-0.00132375
-0.00147823
-0.00163657
-0.00179761
-0.00196023
-0.0021233
-0.00228574
-0.0024465
-0.00260461
-0.00275916
-0.00290929
-0.00305424
-0.00319334
-0.003326
-0.00345168
-0.00356998
-0.00368052
-0.00378304
-0.0038773
-0.00396315
-0.00404046
-0.00410914
-0.00416912
-0.00422034
-0.00426271
-0.00429614
-0.0043205
-0.00433559
-0.00434115
-0.0043369
-0.00432245
-0.00429634
-0.00425554
-0.00421036
0.000475372
0.000443716
0.000405939
0.000367051
0.000327098
0.000286758
0.000246735
0.000207415
0.000168884
0.000131036
9.36283e-05
5.63522e-05
1.88546e-05
-1.92054e-05
-5.81565e-05
-9.82703e-05
-0.000139772
-0.000182813
-0.000227485
-0.000273815
-0.000321782
-0.000371318
-0.000422336
-0.000474726
-0.000528383
-0.000583196
-0.000639076
-0.000695936
-0.000753707
-0.000812323
-0.000871727
-0.000931849
-0.000992621
-0.00105395
-0.00111572
-0.00117779
-0.00124001
-0.00130217
-0.00136404
-0.00142536
-0.00148587
-0.00154524
-0.00160316
-0.00165928
-0.00171324
-0.00176468
-0.00181316
-0.00185827
-0.00189958
-0.00193667
-0.00196917
-0.00199673
-0.002019
-0.00203564
-0.00204635
-0.00205082
-0.0020488
-0.00204005
-0.00202441
-0.00200176
-0.00197204
-0.00193524
-0.00189146
-0.00184083
-0.00178359
-0.00172004
-0.00165058
-0.00157568
-0.00149589
-0.00141184
-0.00132426
-0.00123391
-0.00114167
-0.00104843
-0.000955163
-0.000862868
-0.000772585
-0.000685373
-0.000602297
-0.00052442
-0.000452785
-0.000388404
-0.000332241
-0.000285202
-0.000248118
-0.000221733
-0.000206694
-0.000203538
-0.000212686
-0.00023443
-0.000268932
-0.000316217
-0.000376173
-0.000448552
-0.00053297
-0.000628915
-0.00073575
-0.000852729
-0.000979
-0.00111362
-0.00125558
-0.0014038
-0.00155716
-0.0017145
-0.00187467
-0.00203652
-0.00219889
-0.00236069
-0.00252087
-0.00267842
-0.00283241
-0.002982
-0.00312641
-0.00326496
-0.00339706
-0.00352219
-0.00363995
-0.00374998
-0.00385201
-0.00394584
-0.00403133
-0.00410837
-0.00417687
-0.00423678
-0.00428806
-0.00433062
-0.00436437
-0.00438918
-0.00440484
-0.0044111
-0.00440765
-0.00439412
-0.00436908
-0.0043296
-0.00428576
0.000550706
0.000513102
0.000469441
0.00042589
0.000382092
0.000338514
0.000295799
0.000254286
0.000214027
0.000174866
0.000136527
9.86419e-05
6.08167e-05
2.26466e-05
-1.62417e-05
-5.61804e-05
-9.74367e-05
-0.000140213
-0.00018464
-0.000230786
-0.000278658
-0.000328226
-0.000379422
-0.000432164
-0.000486364
-0.000541934
-0.000598796
-0.000656883
-0.000716134
-0.000776501
-0.000837933
-0.000900378
-0.000963769
-0.00102803
-0.00109304
-0.00115868
-0.00122478
-0.00129115
-0.00135755
-0.00142373
-0.00148939
-0.00155422
-0.00161788
-0.00168001
-0.00174024
-0.00179816
-0.00185334
-0.00190531
-0.00195363
-0.00199785
-0.00203755
-0.00207235
-0.00210186
-0.00212571
-0.00214354
-0.00215502
-0.00215985
-0.00215776
-0.00214855
-0.00213205
-0.00210816
-0.00207686
-0.0020382
-0.00199229
-0.00193933
-0.00187961
-0.0018135
-0.00174146
-0.00166402
-0.0015818
-0.00149552
-0.00140597
-0.00131398
-0.0012205
-0.00112648
-0.00103296
-0.000940982
-0.00085164
-0.000766029
-0.000685243
-0.000610364
-0.000542441
-0.000482482
-0.000431437
-0.000390182
-0.000359509
-0.000340111
-0.000332571
-0.000337354
-0.000354796
-0.000385098
-0.000428322
-0.00048439
-0.000553082
-0.000634038
-0.000726763
-0.000830637
-0.000944919
-0.00106876
-0.00120122
-0.00134127
-0.00148783
-0.00163976
-0.00179589
-0.00195505
-0.00211604
-0.00227771
-0.00243893
-0.00259863
-0.00275578
-0.00290944
-0.00305874
-0.0032029
-0.00334123
-0.00347313
-0.00359808
-0.00371567
-0.00382557
-0.00392751
-0.0040213
-0.0041068
-0.00418393
-0.00425261
-0.0043128
-0.00436446
-0.00440753
-0.00444193
-0.00446751
-0.00448409
-0.0044914
-0.00448916
-0.00447699
-0.00445353
-0.00441599
-0.00437408
0.000627282
0.000583498
0.000533708
0.000485282
0.00043745
0.000390468
0.000344906
0.000301051
0.000258907
0.000218272
0.000178824
0.000140146
0.000101791
6.32985e-05
2.42436e-05
-1.57623e-05
-5.70331e-05
-9.98223e-05
-0.0001443
-0.000190577
-0.000238694
-0.000288652
-0.000340412
-0.000393917
-0.000449097
-0.000505888
-0.000564225
-0.000624058
-0.00068534
-0.000748037
-0.000812106
-0.00087751
-0.000944187
-0.00101207
-0.00108105
-0.001151
-0.00122176
-0.00129314
-0.00136489
-0.00143675
-0.00150842
-0.00157957
-0.00164986
-0.00171889
-0.00178627
-0.00185158
-0.00191434
-0.00197407
-0.00203028
-0.00208248
-0.00213024
-0.00217311
-0.00221066
-0.00224249
-0.00226819
-0.00228739
-0.00229973
-0.00230492
-0.0023027
-0.00229287
-0.0022753
-0.00224992
-0.00221673
-0.00217583
-0.00212739
-0.00207166
-0.00200899
-0.00193982
-0.00186468
-0.00178417
-0.00169899
-0.00160994
-0.00151786
-0.0014237
-0.00132842
-0.00123308
-0.00113875
-0.00104655
-0.000957598
-0.000873037
-0.000793985
-0.000721537
-0.000656749
-0.000600619
-0.000554078
-0.000517971
-0.000493045
-0.000479938
-0.000479168
-0.000491123
-0.000516052
-0.000554065
-0.000605124
-0.000669045
-0.000745502
-0.000834026
-0.000934015
-0.00104474
-0.00116537
-0.00129496
-0.00143248
-0.00157684
-0.00172688
-0.00188142
-0.00203925
-0.00219918
-0.00236001
-0.0025206
-0.00267982
-0.00283665
-0.00299011
-0.00313932
-0.00328346
-0.00342184
-0.00355384
-0.00367895
-0.00379674
-0.00390688
-0.0040091
-0.00410323
-0.00418914
-0.00426673
-0.00433597
-0.00439681
-0.00444922
-0.00449316
-0.00452854
-0.00455525
-0.00457311
-0.00458185
-0.00458122
-0.00457084
-0.00454944
-0.00451438
-0.00447493
0.000704134
0.000653969
0.000597836
0.000544354
0.000492334
0.00044181
0.000393272
0.00034695
0.000302785
0.000260535
0.000219816
0.000180171
0.00014109
0.000102066
6.26113e-05
2.22915e-05
-1.92666e-05
-6.23573e-05
-0.000107202
-0.000153945
-0.000202671
-0.000253408
-0.000306148
-0.000360859
-0.000417495
-0.000476008
-0.000536355
-0.000598498
-0.00066241
-0.000728062
-0.000795431
-0.000864482
-0.00093517
-0.00100742
-0.00108115
-0.00115623
-0.00123249
-0.00130973
-0.00138771
-0.00146617
-0.00154478
-0.0016232
-0.00170106
-0.00177796
-0.00185348
-0.00192714
-0.00199847
-0.00206692
-0.00213199
-0.00219314
-0.00224988
-0.00230174
-0.00234824
-0.00238892
-0.00242333
-0.00245104
-0.00247167
-0.00248487
-0.00249032
-0.00248779
-0.00247711
-0.00245816
-0.00243091
-0.00239541
-0.00235181
-0.00230033
-0.00224129
-0.0021751
-0.00210228
-0.00202341
-0.00193921
-0.00185044
-0.00175796
-0.0016627
-0.00156568
-0.00146795
-0.00137061
-0.0012748
-0.00118168
-0.00109244
-0.00100823
-0.000930209
-0.000859473
-0.000797082
-0.000744027
-0.000701214
-0.000669454
-0.000649447
-0.000641775
-0.000646886
-0.00066509
-0.000696551
-0.000741284
-0.000799153
-0.00086987
-0.000953004
-0.00104798
-0.0011541
-0.00127053
-0.00139635
-0.00153051
-0.00167194
-0.00181945
-0.00197185
-0.00212792
-0.00228641
-0.00244613
-0.00260589
-0.00276454
-0.00292102
-0.00307432
-0.00322354
-0.00336783
-0.00350648
-0.00363885
-0.00376441
-0.00388274
-0.00399347
-0.00409637
-0.00419122
-0.00427792
-0.00435638
-0.00442657
-0.00448844
-0.00454199
-0.00458718
-0.00462393
-0.00465215
-0.00467166
-0.00468222
-0.00468358
-0.00467541
-0.00465651
-0.00462441
-0.00458787
0.000780267
0.000723545
0.000660891
0.000602205
0.00054587
0.000491692
0.000440074
0.000391177
0.00034488
0.000300883
0.000258749
0.000217967
0.000177972
0.000138204
9.81165e-05
5.72242e-05
1.50984e-05
-2.86011e-05
-7.41442e-05
-0.000121715
-0.000171436
-0.000223369
-0.000277538
-0.000333933
-0.000392535
-0.000453315
-0.000516249
-0.000581314
-0.000648498
-0.000717786
-0.000789166
-0.000862612
-0.00093809
-0.00101553
-0.00109485
-0.00117593
-0.00125859
-0.00134263
-0.00142781
-0.00151384
-0.00160039
-0.0016871
-0.00177358
-0.00185939
-0.00194409
-0.00202719
-0.00210814
-0.00218639
-0.00226137
-0.00233252
-0.00239929
-0.00246116
-0.00251761
-0.00256811
-0.00261218
-0.00264934
-0.00267913
-0.00270116
-0.00271509
-0.00272061
-0.0027175
-0.00270561
-0.00268487
-0.00265528
-0.00261695
-0.00257008
-0.00251494
-0.00245194
-0.00238155
-0.00230436
-0.00222105
-0.0021324
-0.00203926
-0.00194256
-0.00184334
-0.00174266
-0.00164164
-0.00154147
-0.00144334
-0.00134847
-0.00125807
-0.00117335
-0.00109546
-0.00102553
-0.000964617
-0.000913695
-0.000873649
-0.000845251
-0.000829156
-0.000825885
-0.000835819
-0.000859188
-0.000896071
-0.00094639
-0.00100991
-0.00108625
-0.00117487
-0.00127509
-0.00138613
-0.00150705
-0.00163684
-0.0017744
-0.00191856
-0.00206809
-0.00222176
-0.00237831
-0.00253649
-0.0026951
-0.00285295
-0.00300894
-0.00316204
-0.00331128
-0.00345582
-0.0035949
-0.00372786
-0.00385414
-0.0039733
-0.00408498
-0.00418889
-0.00428486
-0.00437276
-0.00445249
-0.00452403
-0.00458736
-0.00464245
-0.00468929
-0.00472781
-0.00475792
-0.00477947
-0.00479226
-0.004796
-0.00479042
-0.00477441
-0.00474569
-0.00471244
0.000854661
0.000791234
0.000721912
0.000657902
0.000597151
0.000539229
0.000484448
0.000432887
0.000384361
0.000338498
0.000294814
0.000252731
0.000211639
0.000170911
0.000129954
8.82202e-05
4.52352e-05
6.01598e-07
-4.59901e-05
-9.47725e-05
-0.000145902
-0.000199479
-0.000255554
-0.000314149
-0.000375265
-0.000438896
-0.000505036
-0.000573681
-0.00064483
-0.000718486
-0.000794643
-0.00087329
-0.000954395
-0.0010379
-0.00112372
-0.00121174
-0.00130177
-0.00139362
-0.00148702
-0.00158169
-0.00167726
-0.00177337
-0.00186958
-0.00196545
-0.00206049
-0.00215416
-0.00224591
-0.00233511
-0.00242117
-0.00250348
-0.00258143
-0.00265445
-0.00272195
-0.00278338
-0.00283818
-0.0028858
-0.00292576
-0.0029576
-0.00298091
-0.00299534
-0.00300063
-0.00299656
-0.00298301
-0.00295996
-0.00292746
-0.00288566
-0.00283482
-0.0027753
-0.00270756
-0.00263215
-0.00254976
-0.00246114
-0.00236713
-0.00226869
-0.00216684
-0.00206267
-0.00195734
-0.00185204
-0.00174802
-0.00164654
-0.00154886
-0.00145624
-0.00136991
-0.00129106
-0.00122083
-0.00116026
-0.00111032
-0.00107188
-0.00104566
-0.00103228
-0.0010322
-0.00104573
-0.00107302
-0.00111406
-0.0011687
-0.0012366
-0.00131728
-0.0014101
-0.0015143
-0.00162899
-0.00175316
-0.00188571
-0.00202548
-0.00217122
-0.00232169
-0.00247559
-0.00263166
-0.00278864
-0.00294533
-0.00310057
-0.0032533
-0.00340251
-0.00354731
-0.00368691
-0.00382062
-0.00394784