/*--------------------------------*- C++ -*----------------------------------*\
  =========                 |
  \\      /  F ield         | OpenFOAM: The Open Source CFD Toolbox
   \\    /   O peration     | Website:  https://openfoam.org
    \\  /    A nd           | Version:  12
     \\/     M anipulation  |
\*---------------------------------------------------------------------------*/
FoamFile
{
    format      ascii;
    class       surfaceScalarField;
    location    "1.5";
    object      phi;
}
// * * * * * * * * * * * * * * * * * * * * * * * * * * * * * * * * * * * * * //

dimensions      [0 3 -1 0 0 0 0];

internalField   nonuniform List<scalar> 
36180
(
5.10926e-11
-5.13624e-11
1.76994e-10
-1.259e-10
3.351e-10
-1.58096e-10
4.98209e-10
-1.63097e-10
6.45846e-10
-1.47628e-10
7.6426e-10
-1.18406e-10
8.447e-10
-8.04342e-11
8.82137e-10
-3.74329e-11
8.74124e-10
8.01513e-12
8.20006e-10
5.41186e-11
7.20311e-10
9.96936e-11
5.76312e-10
1.43995e-10
3.89701e-10
1.86605e-10
1.62354e-10
2.2734e-10
-1.03813e-10
2.66158e-10
-4.06968e-10
3.03146e-10
-7.45425e-10
3.38447e-10
-1.11767e-09
3.72232e-10
-1.52237e-09
4.0469e-10
-1.95837e-09
4.35993e-10
-2.4247e-09
4.66326e-10
-2.92055e-09
4.95835e-10
-3.44523e-09
5.24678e-10
-3.9982e-09
5.52961e-10
-4.57901e-09
5.80806e-10
-5.18729e-09
6.08281e-10
-5.82277e-09
6.3547e-10
-6.48517e-09
6.624e-10
-7.17428e-09
6.89108e-10
-7.88987e-09
7.15578e-10
-8.63167e-09
7.41796e-10
-9.39937e-09
7.67697e-10
-1.01926e-08
7.93214e-10
-1.10108e-08
8.18234e-10
-1.18535e-08
8.42638e-10
-1.27197e-08
8.66264e-10
-1.36087e-08
8.88947e-10
-1.45192e-08
9.10484e-10
-1.54499e-08
9.30672e-10
-1.63991e-08
9.49275e-10
-1.73652e-08
9.66064e-10
-1.8346e-08
9.80783e-10
-1.93392e-08
9.93189e-10
-2.03422e-08
1.00302e-09
-2.13523e-08
1.01005e-09
-2.23663e-08
1.01401e-09
-2.33809e-08
1.01465e-09
-2.43927e-08
1.01173e-09
-2.53977e-08
1.00499e-09
-2.63919e-08
9.94201e-10
-2.7371e-08
9.79155e-10
-2.83307e-08
9.59677e-10
-2.92663e-08
9.35609e-10
-3.01731e-08
9.06807e-10
-3.10463e-08
8.73141e-10
-3.18808e-08
8.34503e-10
-3.26716e-08
7.90813e-10
-3.34136e-08
7.42022e-10
-3.41017e-08
6.88117e-10
-3.47309e-08
6.29125e-10
-3.5296e-08
5.65117e-10
-3.57922e-08
4.96207e-10
-3.62147e-08
4.22553e-10
-3.65591e-08
3.44359e-10
-3.68209e-08
2.61853e-10
-3.69963e-08
1.75372e-10
-3.70818e-08
8.54818e-11
-3.70739e-08
-7.90603e-12
-3.697e-08
-1.03907e-10
-3.67678e-08
-2.02199e-10
-3.64655e-08
-3.02245e-10
-3.60621e-08
-4.03434e-10
-3.5557e-08
-5.05155e-10
-3.49502e-08
-6.0676e-10
-3.42426e-08
-7.07575e-10
-3.34357e-08
-8.06904e-10
-3.25317e-08
-9.04036e-10
-3.15334e-08
-9.98254e-10
-3.04446e-08
-1.08884e-09
-2.92695e-08
-1.17507e-09
-2.80132e-08
-1.25627e-09
-2.66815e-08
-1.33175e-09
-2.52806e-08
-1.40088e-09
-2.38176e-08
-1.46305e-09
-2.22998e-08
-1.51772e-09
-2.07355e-08
-1.56439e-09
-1.91328e-08
-1.60263e-09
-1.75008e-08
-1.63207e-09
-1.58483e-08
-1.65244e-09
-1.41848e-08
-1.66352e-09
-1.25196e-08
-1.6652e-09
-1.08622e-08
-1.65744e-09
-9.22186e-09
-1.6403e-09
-7.60793e-09
-1.61393e-09
-6.02938e-09
-1.57855e-09
-4.49491e-09
-1.53448e-09
-3.01279e-09
-1.48212e-09
-1.59086e-09
-1.42194e-09
-2.36378e-10
-1.35448e-09
1.04397e-09
-1.28035e-09
2.24418e-09
-1.20021e-09
3.35893e-09
-1.11475e-09
4.38364e-09
-1.02471e-09
5.3145e-09
-9.30858e-10
6.14848e-09
-8.33981e-10
6.88333e-09
-7.34856e-10
7.51759e-09
-6.34256e-10
8.05054e-09
-5.32949e-10
8.48222e-09
-4.31682e-10
8.81339e-09
-3.31174e-10
9.04551e-09
-2.32111e-10
9.18065e-09
-1.35144e-10
9.22154e-09
-4.08921e-11
9.17146e-09
5.00838e-11
9.03427e-09
1.37186e-10
8.8143e-09
2.19971e-10
8.51641e-09
2.9789e-10
8.14596e-09
3.70444e-10
7.70885e-09
4.37116e-10
7.21149e-09
4.97357e-10
6.66093e-09
5.50557e-10
6.06492e-09
5.96017e-10
5.43201e-09
6.32909e-10
4.77177e-09
6.60235e-10
4.09499e-09
6.7678e-10
3.41393e-09
6.81062e-10
2.74265e-09
6.71277e-10
2.09739e-09
6.45259e-10
1.4969e-09
6.00492e-10
9.62659e-10
5.34242e-10
5.18649e-10
4.4401e-10
1.90032e-10
3.28617e-10
-8.89674e-13
1.90922e-10
-4.78912e-11
4.70014e-11
-4.78913e-11
1.25713e-10
-1.77098e-10
3.95863e-10
-3.9606e-10
7.31244e-10
-4.93472e-10
1.07268e-09
-5.04522e-10
1.37403e-09
-4.48974e-10
1.60084e-09
-3.45203e-10
1.72935e-09
-2.08938e-10
1.74437e-09
-5.24439e-11
1.63719e-09
1.15198e-10
1.40392e-09
2.87386e-10
1.04407e-09
4.59538e-10
5.59549e-10
6.28514e-10
-4.62415e-11
7.92388e-10
-7.6894e-10
9.50029e-10
-1.60381e-09
1.10101e-09
-2.54597e-09
1.2453e-09
-3.59071e-09
1.38317e-09
-4.73362e-09
1.51513e-09
-5.97072e-09
1.64178e-09
-7.29852e-09
1.76378e-09
-8.71399e-09
1.88179e-09
-1.02146e-08
1.99645e-09
-1.17983e-08
2.10835e-09
-1.34633e-08
2.21798e-09
-1.52083e-08
2.32578e-09
-1.70321e-08
2.43209e-09
-1.89338e-08
2.53715e-09
-2.09125e-08
2.6411e-09
-2.29674e-08
2.74399e-09
-2.50975e-08
2.84575e-09
-2.7302e-08
2.94622e-09
-2.95794e-08
3.04515e-09
-3.19284e-08
3.14217e-09
-3.4347e-08
3.23683e-09
-3.6833e-08
3.32861e-09
-3.93836e-08
3.41688e-09
-4.19956e-08
3.50096e-09
-4.46652e-08
3.58011e-09
-4.73881e-08
3.65353e-09
-5.01592e-08
3.72035e-09
-5.29728e-08
3.7797e-09
-5.58227e-08
3.83065e-09
-5.87018e-08
3.8723e-09
-6.16025e-08
3.90369e-09
-6.45164e-08
3.92391e-09
-6.74344e-08
3.93202e-09
-7.03468e-08
3.92711e-09
-7.32434e-08
3.90828e-09
-7.61131e-08
3.87468e-09
-7.89444e-08
3.82549e-09
-8.17252e-08
3.75998e-09
-8.4443e-08
3.67748e-09
-8.70848e-08
3.57741e-09
-8.96373e-08
3.45925e-09
-9.20867e-08
3.3226e-09
-9.44193e-08
3.16712e-09
-9.66211e-08
2.9926e-09
-9.8678e-08
2.79894e-09
-1.00576e-07
2.58621e-09
-1.02302e-07
2.35459e-09
-1.03841e-07
2.10444e-09
-1.05181e-07
1.83626e-09
-1.06309e-07
1.55074e-09
-1.07214e-07
1.24872e-09
-1.07883e-07
9.31223e-10
-1.08307e-07
5.99317e-10
-1.08476e-07
2.54918e-10
-1.08383e-07
-1.00964e-10
-1.08021e-07
-4.66513e-10
-1.07383e-07
-8.39825e-10
-1.06466e-07
-1.21884e-09
-1.05268e-07
-1.60141e-09
-1.03788e-07
-1.98523e-09
-1.02027e-07
-2.36793e-09
-9.99877e-08
-2.74701e-09
-9.76747e-08
-3.11994e-09
-9.50946e-08
-3.48411e-09
-9.2256e-08
-3.83691e-09
-8.91691e-08
-4.17575e-09
-8.58461e-08
-4.49803e-09
-8.23011e-08
-4.80127e-09
-7.85499e-08
-5.08302e-09
-7.46097e-08
-5.341e-09
-7.04997e-08
-5.57305e-09
-6.62403e-08
-5.7772e-09
-6.1853e-08
-5.95167e-09
-5.73607e-08
-6.09491e-09
-5.27871e-08
-6.20565e-09
-4.81567e-08
-6.28284e-09
-4.34945e-08
-6.32576e-09
-3.88257e-08
-6.33396e-09
-3.41758e-08
-6.30732e-09
-2.95701e-08
-6.24604e-09
-2.50334e-08
-6.1506e-09
-2.05902e-08
-6.02183e-09
-1.62638e-08
-5.86084e-09
-1.20769e-08
-5.66904e-09
-8.05069e-09
-5.44811e-09
-4.20518e-09
-5.19999e-09
-5.58712e-10
-4.92682e-09
2.87206e-09
-4.63097e-09
6.07227e-09
-4.31496e-09
9.02901e-09
-3.98146e-09
1.17314e-08
-3.63323e-09
1.41705e-08
-3.27309e-09
1.63395e-08
-2.9039e-09
1.82338e-08
-2.52853e-09
1.98507e-08
-2.1498e-09
2.11895e-08
-1.77049e-09
2.22516e-08
-1.3933e-09
2.30403e-08
-1.02081e-09
2.35607e-08
-6.5552e-10
2.38196e-08
-2.99793e-10
2.38255e-08
4.41181e-11
2.35887e-08
3.74003e-10
2.31208e-08
6.8791e-10
2.24349e-08
9.83738e-10
2.15459e-08
1.25945e-09
2.047e-08
1.51298e-09
1.92253e-08
1.74213e-09
1.78313e-08
1.94451e-09
1.63099e-08
2.11743e-09
1.4685e-08
2.25781e-09
1.29832e-08
2.36204e-09
1.12341e-08
2.42589e-09
9.47079e-09
2.44437e-09
7.73039e-09
2.41167e-09
6.05442e-09
2.32123e-09
4.48898e-09
2.16592e-09
3.08442e-09
1.9388e-09
1.89363e-09
1.6348e-09
9.6799e-10
1.25426e-09
3.4849e-10
8.10421e-10
4.6916e-11
3.48575e-10
-9.7538e-13
1.67698e-10
-3.44832e-10
5.09449e-10
-7.37832e-10
9.18501e-10
-9.02529e-10
1.31841e-09
-9.04425e-10
1.64846e-09
-7.79012e-10
1.86179e-09
-5.5853e-10
1.92453e-09
-2.71665e-10
1.81366e-09
5.84248e-11
1.5151e-09
4.13762e-10
1.02151e-09
7.80978e-10
3.30741e-10
1.15031e-09
-5.55729e-10
1.51498e-09
-1.6338e-09
1.87046e-09
-2.8978e-09
2.21402e-09
-4.34106e-09
2.54426e-09
-5.95659e-09
2.86081e-09
-7.7374e-09
3.16397e-09
-9.67688e-09
3.45459e-09
-1.17689e-08
3.73378e-09
-1.4008e-08
4.00284e-09
-1.63893e-08
4.26312e-09
-1.89088e-08
4.51595e-09
-2.1563e-08
4.76253e-09
-2.4349e-08
5.00397e-09
-2.72644e-08
5.24115e-09
-3.03071e-08
5.47478e-09
-3.34753e-08
5.70533e-09
-3.67673e-08
5.93308e-09
-4.01813e-08
6.15803e-09
-4.37155e-08
6.37999e-09
-4.73679e-08
6.59853e-09
-5.11357e-08
6.81302e-09
-5.50162e-08
7.0226e-09
-5.90056e-08
7.22625e-09
-6.30998e-08
7.42276e-09
-6.72937e-08
7.61077e-09
-7.15814e-08
7.78875e-09
-7.59564e-08
7.95508e-09
-8.04109e-08
8.10801e-09
-8.49363e-08
8.24572e-09
-8.95229e-08
8.3663e-09
-9.41601e-08
8.46781e-09
-9.8836e-08
8.54828e-09
-1.03538e-07
8.60572e-09
-1.08252e-07
8.63815e-09
-1.12964e-07
8.64363e-09
-1.17657e-07
8.62024e-09
-1.22315e-07
8.56613e-09
-1.2692e-07
8.47954e-09
-1.31453e-07
8.35883e-09
-1.35896e-07
8.20247e-09
-1.40227e-07
8.00912e-09
-1.44427e-07
7.77758e-09
-1.48475e-07
7.50687e-09
-1.52349e-07
7.19619e-09
-1.56027e-07
6.84498e-09
-1.59487e-07
6.45291e-09
-1.62708e-07
6.01996e-09
-1.65668e-07
5.54638e-09
-1.68346e-07
5.03274e-09
-1.70722e-07
4.47992e-09
-1.72775e-07
3.88917e-09
-1.74486e-07
3.26208e-09
-1.75838e-07
2.60058e-09
-1.76813e-07
1.90695e-09
-1.77398e-07
1.18388e-09
-1.77578e-07
4.34603e-10
-1.77341e-07
-3.3773e-10
-1.76678e-07
-1.12942e-09
-1.75581e-07
-1.93641e-09
-1.74046e-07
-2.75432e-09
-1.72069e-07
-3.57857e-09
-1.6965e-07
-4.40429e-09
-1.66791e-07
-5.22644e-09
-1.63498e-07
-6.03979e-09
-1.59779e-07
-6.839e-09
-1.55645e-07
-7.61863e-09
-1.51109e-07
-8.37325e-09
-1.46187e-07
-9.09741e-09
-1.40899e-07
-9.78579e-09
-1.35267e-07
-1.04332e-08
-1.29316e-07
-1.10345e-08
-1.23072e-07
-1.15851e-08
-1.16564e-07
-1.20805e-08
-1.09825e-07
-1.25165e-08
-1.02887e-07
-1.28897e-08
-9.57852e-08
-1.31966e-08
-8.8556e-08
-1.34348e-08
-8.12368e-08
-1.3602e-08
-7.38658e-08
-1.36968e-08
-6.64817e-08
-1.37181e-08
-5.91231e-08
-1.36658e-08
-5.18289e-08
-1.35402e-08
-4.46372e-08
-1.33423e-08
-3.75853e-08
-1.30738e-08
-3.07093e-08
-1.27369e-08
-2.40439e-08
-1.23344e-08
-1.76221e-08
-1.18699e-08
-1.14747e-08
-1.13473e-08
-5.63051e-09
-1.07711e-08
-1.15502e-10
-1.0146e-08
5.04687e-09
-9.47733e-09
9.83602e-09
-8.77062e-09
1.42344e-08
-8.03159e-09
1.82274e-08
-7.26615e-09
2.18038e-08
-6.4803e-09
2.49554e-08
-5.68005e-09
2.7677e-08
-4.8714e-09
2.99667e-08
-4.06025e-09
3.18258e-08
-3.25235e-09
3.32583e-08
-2.4533e-09
3.42712e-08
-1.66848e-09
3.48745e-08
-9.03066e-10
3.50806e-08
-1.62028e-10
3.49048e-08
5.49857e-10
3.43647e-08
1.228e-09
3.34806e-08
1.86784e-09
3.22752e-08
2.46482e-09
3.07739e-08
3.0143e-09
2.90046e-08
3.5114e-09
2.69982e-08
3.9509e-09
2.47887e-08
4.327e-09
2.24133e-08
4.63321e-09
1.99132e-08
4.86213e-09
1.73338e-08
5.00525e-09
1.47253e-08
5.05291e-09
1.21427e-08
4.99424e-09
9.64654e-09
4.81741e-09
7.30213e-09
4.51033e-09
5.17868e-09
4.06225e-09
3.34663e-09
3.46685e-09
1.87268e-09
2.72821e-09
8.11251e-10
1.87185e-09
1.91058e-10
9.68768e-10
1.90082e-10
1.78751e-10
-5.23619e-10
5.33225e-10
-1.09233e-09
9.36572e-10
-1.30589e-09
1.30014e-09
-1.26799e-09
1.55508e-09
-1.03395e-09
1.64826e-09
-6.51699e-10
1.54038e-09
-1.63783e-10
1.20412e-09
3.94689e-10
6.21974e-10
9.95915e-10
-2.1568e-10
1.61863e-09
-1.31237e-09
2.24699e-09
-2.66709e-09
2.86969e-09
-4.27558e-09
3.47894e-09
-6.13145e-09
4.06988e-09
-8.22699e-09
4.63979e-09
-1.05539e-08
5.18767e-09
-1.31036e-08
5.71373e-09
-1.58681e-08
6.21908e-09
-1.88397e-08
6.70535e-09
-2.20114e-08
7.17454e-09
-2.53771e-08
7.62876e-09
-2.89313e-08
8.07012e-09
-3.26693e-08
8.50055e-09
-3.65871e-08
8.9218e-09
-4.06813e-08
9.33528e-09
-4.49486e-08
9.7421e-09
-4.93862e-08
1.0143e-08
-5.39914e-08
1.05382e-08
-5.87611e-08
1.09278e-08
-6.36923e-08
1.13112e-08
-6.87815e-08
1.16877e-08
-7.40245e-08
1.2056e-08
-7.94165e-08
1.24146e-08
-8.4952e-08
1.27617e-08
-9.06244e-08
1.30952e-08
-9.64262e-08
1.34125e-08
-1.02349e-07
1.37112e-08
-1.08382e-07
1.39883e-08
-1.14515e-07
1.42409e-08
-1.20735e-07
1.44659e-08
-1.27029e-07
1.466e-08
-1.33381e-07
1.48199e-08
-1.39775e-07
1.49423e-08
-1.46193e-07
1.50238e-08
-1.52616e-07
1.50611e-08
-1.59023e-07
1.5051e-08
-1.65393e-07
1.49903e-08
-1.71703e-07
1.48759e-08
-1.77929e-07
1.47049e-08
-1.84044e-07
1.44748e-08
-1.90025e-07
1.41829e-08
-1.95843e-07
1.38273e-08
-2.01471e-07
1.34059e-08
-2.06882e-07
1.29174e-08
-2.12046e-07
1.23604e-08
-2.16936e-07
1.17344e-08
-2.21522e-07
1.10389e-08
-2.25776e-07
1.02742e-08
-2.2967e-07
9.44079e-09
-2.33178e-07
8.54001e-09
-2.36271e-07
7.57354e-09
-2.38926e-07
6.54371e-09
-2.41117e-07
5.45341e-09
-2.42823e-07
4.30612e-09
-2.44022e-07
3.10591e-09
-2.44695e-07
1.85747e-09
-2.44827e-07
5.66137e-10
-2.44402e-07
-7.62352e-10
-2.4341e-07
-2.12167e-09
-2.41841e-07
-3.50493e-09
-2.39691e-07
-4.90479e-09
-2.36956e-07
-6.31345e-09
-2.33637e-07
-7.72277e-09
-2.2974e-07
-9.12428e-09
-2.2527e-07
-1.05092e-08
-2.2024e-07
-1.18688e-08
-2.14665e-07
-1.31938e-08
-2.08563e-07
-1.44754e-08
-2.01956e-07
-1.57045e-08
-1.9487e-07
-1.68722e-08
-1.87333e-07
-1.79701e-08
-1.79377e-07
-1.89898e-08
-1.71039e-07
-1.99236e-08
-1.62355e-07
-2.0764e-08
-1.53367e-07
-2.15045e-08
-1.44118e-07
-2.2139e-08
-1.34653e-07
-2.26622e-08
-1.25018e-07
-2.30697e-08
-1.15262e-07
-2.33581e-08
-1.05434e-07
-2.35247e-08
-9.55836e-08
-2.35682e-08
-8.57616e-08
-2.34878e-08
-7.60176e-08
-2.32843e-08
-6.64008e-08
-2.29591e-08
-5.69596e-08
-2.2515e-08
-4.77409e-08
-2.19555e-08
-3.87899e-08
-2.12854e-08
-3.01496e-08
-2.05103e-08
-2.18603e-08
-1.96365e-08
-1.39599e-08
-1.86715e-08
-6.48287e-09
-1.7623e-08
5.39594e-10
-1.64998e-08
7.07986e-09
-1.53109e-08
1.31141e-08
-1.40658e-08
1.86222e-08
-1.27743e-08
2.35885e-08
-1.14465e-08
2.80008e-08
-1.00924e-08
3.18513e-08
-8.72198e-09
3.51364e-08
-7.34532e-09
3.78562e-08
-5.97216e-09
4.0015e-08
-4.61202e-09
4.16206e-08
-3.27415e-09
4.2685e-08
-1.96747e-09
4.32236e-08
-7.0065e-10
4.32555e-08
5.18009e-10
4.28031e-08
1.68038e-09
4.18925e-08
2.77849e-09
4.0553e-08
3.80433e-09
3.88175e-08
4.74975e-09
3.67226e-08
5.60628e-09
3.43086e-08
6.36492e-09
3.16197e-08
7.01589e-09
2.87045e-08
7.5484e-09
2.56163e-08
7.95039e-09
2.24132e-08
8.20837e-09
1.91587e-08
8.30735e-09
1.5922e-08
8.231e-09
1.27772e-08
7.96211e-09
9.80372e-09
7.48386e-09
7.08383e-09
6.78214e-09
4.70086e-09
5.84982e-09
2.73496e-09
4.6941e-09
1.2581e-09
3.34872e-09
3.29594e-10
1.89727e-09
5.19676e-10
1.66755e-10
-6.9041e-10
4.81951e-10
-1.40756e-09
8.11248e-10
-1.6352e-09
1.05922e-09
-1.51596e-09
1.15289e-09
-1.12761e-09
1.03639e-09
-5.35193e-10
6.68299e-10
2.04316e-10
1.95037e-11
1.04349e-09
-9.28992e-10
1.94441e-09
-2.18784e-09
2.87748e-09
-3.76127e-09
3.82043e-09
-5.64849e-09
4.75691e-09
-7.84519e-09
5.67563e-09
-1.03445e-08
6.56918e-09
-1.31381e-08
7.43336e-09
-1.62168e-08
8.26632e-09
-1.95711e-08
9.06808e-09
-2.31919e-08
9.83988e-09
-2.70705e-08
1.05839e-08
-3.11987e-08
1.13028e-08
-3.55694e-08
1.19994e-08
-4.0176e-08
1.26767e-08
-4.50128e-08
1.33373e-08
-5.00747e-08
1.39836e-08
-5.5357e-08
1.46176e-08
-6.08556e-08
1.52407e-08
-6.65664e-08
1.58538e-08
-7.24854e-08
1.64572e-08
-7.86083e-08
1.70507e-08
-8.49304e-08
1.76333e-08
-9.14466e-08
1.82039e-08
-9.8151e-08
1.87603e-08
-1.05037e-07
1.93003e-08
-1.12096e-07
1.98208e-08
-1.19319e-07
2.03186e-08
-1.26697e-07
2.079e-08
-1.34216e-07
2.1231e-08
-1.41865e-07
2.16372e-08
-1.49629e-07
2.20042e-08
-1.5749e-07
2.23272e-08
-1.65431e-07
2.26014e-08
-1.73433e-07
2.28218e-08
-1.81474e-07
2.29835e-08
-1.89532e-07
2.30814e-08
-1.97581e-07
2.31108e-08
-2.05597e-07
2.30668e-08
-2.13552e-07
2.29447e-08
-2.21416e-07
2.27402e-08
-2.2916e-07
2.24492e-08
-2.36753e-07
2.20677e-08
-2.44163e-07
2.15924e-08
-2.51356e-07
2.10202e-08
-2.58298e-07
2.03487e-08
-2.64957e-07
1.95757e-08
-2.71296e-07
1.86998e-08
-2.77282e-07
1.77202e-08
-2.8288e-07
1.66368e-08
-2.88056e-07
1.54501e-08
-2.92776e-07
1.41614e-08
-2.97009e-07
1.27729e-08
-3.00723e-07
1.12873e-08
-3.03888e-07
9.70862e-09
-3.06476e-07
8.04128e-09
-3.0846e-07
6.29079e-09
-3.09818e-07
4.46347e-09
-3.10527e-07
2.56649e-09
-3.10569e-07
6.07902e-10
-3.09928e-07
-1.40354e-09
-3.08591e-07
-3.45828e-09
-3.0655e-07
-5.54603e-09
-3.03799e-07
-7.65584e-09
-3.00336e-07
-9.77616e-09
-2.96164e-07
-1.18949e-08
-2.91289e-07
-1.39996e-08
-2.8572e-07
-1.60774e-08
-2.79474e-07
-1.81153e-08
-2.72568e-07
-2.01e-08
-2.65025e-07
-2.20184e-08
-2.56872e-07
-2.38573e-08
-2.4814e-07
-2.56039e-08
-2.38864e-07
-2.72458e-08
-2.29083e-07
-2.87708e-08
-2.18839e-07
-3.01677e-08
-2.08178e-07
-3.14258e-08
-1.97147e-07
-3.25354e-08
-1.85798e-07
-3.34878e-08
-1.74185e-07
-3.42753e-08
-1.62363e-07
-3.48914e-08
-1.5039e-07
-3.53312e-08
-1.38324e-07
-3.55909e-08
-1.26224e-07
-3.5668e-08
-1.1415e-07
-3.55619e-08
-1.02161e-07
-3.52732e-08
-9.03157e-08
-3.48041e-08
-7.86723e-08
-3.41584e-08
-6.72867e-08
-3.33412e-08
-5.62129e-08
-3.23592e-08
-4.55028e-08
-3.12204e-08
-3.52053e-08
-2.99341e-08
-2.53661e-08
-2.85107e-08
-1.60274e-08
-2.69617e-08
-7.22749e-09
-2.52997e-08
9.99433e-10
-2.35378e-08
8.62355e-09
-2.16899e-08
1.56196e-08
-1.97704e-08
2.19669e-08
-1.77939e-08
2.76498e-08
-1.57752e-08
3.26572e-08
-1.37294e-08
3.69831e-08
-1.16712e-08
4.06261e-08
-9.61517e-09
4.35898e-08
-7.5757e-09
4.58823e-08
-5.56671e-09
4.75166e-08
-3.60178e-09
4.851e-08
-1.69401e-09
4.88842e-08
1.43763e-10
4.86656e-08
1.89904e-09
4.78845e-08
3.55957e-09
4.65758e-08
5.11306e-09
4.47785e-08
6.54702e-09
4.25363e-08
7.84853e-09
3.98971e-08
9.00408e-09
3.69138e-08
9.99916e-09
3.36442e-08
1.0818e-08
3.01513e-08
1.14433e-08
2.65034e-08
1.18562e-08
2.27747e-08
1.20361e-08
1.90447e-08
1.1961e-08
1.53985e-08
1.16083e-08
1.19257e-08
1.09567e-08
8.7192e-09
9.98859e-09
5.87397e-09
8.69505e-09
3.48455e-09
7.08353e-09
1.64403e-09
5.18924e-09
4.46503e-10
3.0948e-09
9.66179e-10
1.36858e-10
-8.27303e-10
3.70523e-10
-1.64125e-09
5.68177e-10
-1.83286e-09
6.33285e-10
-1.58108e-09
4.92374e-10
-9.86697e-10
8.95832e-11
-1.32395e-10
-6.16272e-10
9.10179e-10
-1.65421e-09
2.08143e-09
-3.04306e-09
3.33328e-09
-4.79349e-09
4.62791e-09
-6.90954e-09
5.93648e-09
-9.39031e-09
7.23766e-09
-1.22311e-08
8.51643e-09
-1.54247e-08
9.76279e-09
-1.89623e-08
1.09709e-08
-2.2834e-08
1.2138e-08
-2.70297e-08
1.32638e-08
-3.15396e-08
1.43497e-08
-3.6354e-08
1.53983e-08
-4.14642e-08
1.64129e-08
-4.68619e-08
1.73972e-08
-5.25399e-08
1.83547e-08
-5.84914e-08
1.92888e-08
-6.47103e-08
2.02025e-08
-7.11909e-08
2.10983e-08
-7.79281e-08
2.19778e-08
-8.49163e-08
2.2842e-08
-9.21503e-08
2.36912e-08
-9.96243e-08
2.45246e-08
-1.07332e-07
2.5341e-08
-1.15266e-07
2.61382e-08
-1.23419e-07
2.69133e-08
-1.31782e-07
2.76629e-08
-1.40344e-07
2.83827e-08
-1.49093e-07
2.9068e-08
-1.58017e-07
2.97136e-08
-1.671e-07
3.03138e-08
-1.76325e-07
3.08626e-08
-1.85675e-07
3.13537e-08
-1.95128e-07
3.17805e-08
-2.04663e-07
3.21363e-08
-2.14255e-07
3.24143e-08
-2.2388e-07
3.26077e-08
-2.33508e-07
3.27096e-08
-2.4311e-07
3.27134e-08
-2.52656e-07
3.26127e-08
-2.62113e-07
3.24011e-08
-2.71445e-07
3.20729e-08
-2.80619e-07
3.16224e-08
-2.89596e-07
3.10448e-08
-2.98339e-07
3.03355e-08
-3.06809e-07
2.94908e-08
-3.14968e-07
2.85073e-08
-3.22775e-07
2.73827e-08
-3.30191e-07
2.61155e-08
-3.37175e-07
2.47048e-08
-3.43689e-07
2.31509e-08
-3.49694e-07
2.1455e-08
-3.55152e-07
1.96193e-08
-3.60026e-07
1.76471e-08
-3.64282e-07
1.55428e-08
-3.67885e-07
1.33121e-08
-3.70806e-07
1.09615e-08
-3.73014e-07
8.49899e-09
-3.74484e-07
5.93347e-09
-3.75192e-07
3.27509e-09
-3.7512e-07
5.35075e-10
-3.74249e-07
-2.27435e-09
-3.72567e-07
-5.13993e-09
-3.70066e-07
-8.04748e-09
-3.6674e-07
-1.0982e-08
-3.62588e-07
-1.39276e-08
-3.57615e-07
-1.68678e-08
-3.51829e-07
-1.97858e-08
-3.45243e-07
-2.2664e-08
-3.37873e-07
-2.54847e-08
-3.29743e-07
-2.82302e-08
-3.20879e-07
-3.08827e-08
-3.11312e-07
-3.34244e-08
-3.01077e-07
-3.58381e-08
-2.90216e-07
-3.81071e-08
-2.78772e-07
-4.02151e-08
-2.66792e-07
-4.2147e-08
-2.5433e-07
-4.38884e-08
-2.41439e-07
-4.54263e-08
-2.28178e-07
-4.6749e-08
-2.14607e-07
-4.78461e-08
-2.00789e-07
-4.87091e-08
-1.8679e-07
-4.93309e-08
-1.72674e-07
-4.97064e-08
-1.5851e-07
-4.98324e-08
-1.44364e-07
-4.97077e-08
-1.30304e-07
-4.9333e-08
-1.16397e-07
-4.87111e-08
-1.02709e-07
-4.78469e-08
-8.93028e-08
-4.67472e-08
-7.62414e-08
-4.54206e-08
-6.35841e-08
-4.38777e-08
-5.13873e-08
-4.21309e-08
-3.97039e-08
-4.01941e-08
-2.85831e-08
-3.80825e-08
-1.80697e-08
-3.5813e-08
-8.20427e-09
-3.34033e-08
9.77795e-10
-3.0872e-08
9.44595e-09
-2.82385e-08
1.71749e-08
-2.55228e-08
2.41449e-08
-2.27452e-08
3.03413e-08
-1.99259e-08
3.57555e-08
-1.70853e-08
4.0384e-08
-1.42437e-08
4.4229e-08
-1.14207e-08
4.72982e-08
-8.6359e-09
4.96046e-08
-5.90818e-09
5.11666e-08
-3.25603e-09
5.20079e-08
-6.97514e-10
5.21572e-08
1.74975e-09
5.16484e-08
4.06839e-09
5.05203e-08
6.24106e-09
4.88172e-08
8.25017e-09
4.65881e-08
1.00776e-08
4.38874e-08
1.17048e-08
4.07747e-08
1.31118e-08
3.73152e-08
1.42775e-08
3.35797e-08
1.51788e-08
2.96447e-08
1.57912e-08
2.55926e-08
1.60882e-08
2.15113e-08
1.60422e-08
1.74943e-08
1.56253e-08
1.36399e-08
1.48111e-08
1.00507e-08
1.35778e-08
6.83282e-09
1.19129e-08
4.09612e-09
9.82022e-09
1.95581e-09
7.32955e-09
5.38877e-10
4.51174e-09
1.50506e-09
9.36448e-11
-9.20982e-10
2.12143e-10
-1.75978e-09
2.30394e-10
-1.85113e-09
5.55934e-11
-1.40628e-09
-3.82939e-10
-5.48163e-10
-1.13858e-09
6.23248e-10
-2.25036e-09
2.02198e-09
-3.74555e-09
3.57662e-09
-5.64153e-09
5.22926e-09
-7.94786e-09
6.93424e-09
-1.06677e-08
8.65631e-09
-1.37994e-08
1.03694e-08
-1.73377e-08
1.20547e-08
-2.12748e-08
1.36999e-08
-2.56012e-08
1.52973e-08
-3.03067e-08
1.68435e-08
-3.53806e-08
1.83377e-08
-4.08124e-08
1.97815e-08
-4.6592e-08
2.11779e-08
-5.27099e-08
2.25308e-08
-5.91573e-08
2.38445e-08
-6.59259e-08
2.51233e-08
-7.30084e-08
2.63713e-08
-8.03977e-08
2.75918e-08
-8.80872e-08
2.87878e-08
-9.60703e-08
2.99609e-08
-1.0434e-07
3.11122e-08
-1.12891e-07
3.22416e-08
-1.21714e-07
3.3348e-08
-1.30803e-07
3.44292e-08
-1.40147e-07
3.54823e-08
-1.49736e-07
3.65032e-08
-1.59561e-07
3.74869e-08
-1.69606e-07
3.8428e-08
-1.79858e-07
3.932e-08
-1.903e-07
4.01558e-08
-2.00914e-07
4.0928e-08
-2.1168e-07
4.16286e-08
-2.22576e-07
4.22491e-08
-2.33576e-07
4.27811e-08
-2.44656e-07
4.32156e-08
-2.55785e-07
4.35439e-08
-2.66935e-07
4.3757e-08
-2.78071e-07
4.38463e-08
-2.89161e-07
4.3803e-08
-3.00167e-07
4.3619e-08
-3.11052e-07
4.32863e-08
-3.21777e-07
4.27976e-08
-3.32301e-07
4.21459e-08
-3.42581e-07
4.13251e-08
-3.52575e-07
4.03298e-08
-3.6224e-07
3.91552e-08
-3.7153e-07
3.77978e-08
-3.80402e-07
3.62549e-08
-3.88812e-07
3.45248e-08
-3.96714e-07
3.26072e-08
-4.04066e-07
3.05029e-08
-4.10825e-07
2.82139e-08
-4.16949e-07
2.57437e-08
-4.22399e-07
2.30971e-08
-4.27137e-07
2.02803e-08
-4.31126e-07
1.73012e-08
-4.34333e-07
1.41687e-08
-4.36728e-07
1.08936e-08
-4.38282e-07
7.48775e-09
-4.38972e-07
3.96473e-09
-4.38776e-07
3.39328e-10
-4.37678e-07
-3.37241e-09
-4.35665e-07
-7.1531e-09
-4.32728e-07
-1.09843e-08
-4.28863e-07
-1.48465e-08
-4.24072e-07
-1.87192e-08
-4.18358e-07
-2.25812e-08
-4.11734e-07
-2.64107e-08
-4.04212e-07
-3.01853e-08
-3.95815e-07
-3.38824e-08
-3.86566e-07
-3.74791e-08
-3.76496e-07
-4.09527e-08
-3.65639e-07
-4.42807e-08
-3.54036e-07
-4.74411e-08
-3.41731e-07
-5.04125e-08
-3.28772e-07
-5.31743e-08
-3.15212e-07
-5.57072e-08
-3.01107e-07
-5.79929e-08
-2.86519e-07
-6.00148e-08
-2.7151e-07
-6.17579e-08
-2.56147e-07
-6.3209e-08
-2.40499e-07
-6.43569e-08
-2.24637e-07
-6.51928e-08
-2.08634e-07
-6.57099e-08
-1.92562e-07
-6.59039e-08
-1.76497e-07
-6.5773e-08
-1.60512e-07
-6.53179e-08
-1.44681e-07
-6.45421e-08
-1.29077e-07
-6.34512e-08
-1.1377e-07
-6.20537e-08
-9.88303e-08
-6.03604e-08
-8.43235e-08
-5.83845e-08
-7.03131e-08
-5.61414e-08
-5.68585e-08
-5.36487e-08
-4.40153e-08
-5.09257e-08
-3.18347e-08
-4.79936e-08
-2.0363e-08
-4.4875e-08
-9.64117e-09
-4.15938e-08
2.94959e-10
-3.81747e-08
9.41544e-09
-3.46433e-08
1.76961e-08
-3.10259e-08
2.51189e-08
-2.73487e-08
3.16718e-08
-2.36382e-08
3.73488e-08
-1.99207e-08
4.21503e-08
-1.62222e-08
4.60827e-08
-1.25683e-08
4.91586e-08
-8.98406e-09
5.13965e-08
-5.49394e-09
5.2821e-08
-2.12195e-09
5.34624e-08
1.10835e-09
5.33571e-08
4.17368e-09
5.25471e-08
7.05108e-09
5.108e-08
9.7172e-09
4.90095e-08
1.21481e-08
4.63948e-08
1.43195e-08
4.33009e-08
1.62057e-08
3.9799e-08
1.77794e-08
3.59659e-08
1.90119e-08
3.18846e-08
1.98724e-08
2.76441e-08
2.03287e-08
2.33393e-08
2.03471e-08
1.90706e-08
1.9894e-08
1.49443e-08
1.89375e-08
1.10718e-08
1.74503e-08
7.5706e-09
1.54141e-08
4.56567e-09
1.28251e-08
2.19301e-09
9.7022e-09
6.07817e-10
6.09693e-09
2.11287e-09
4.04589e-11
-9.61472e-10
1.71864e-11
-1.73653e-09
-1.83376e-10
-1.65058e-09
-6.46393e-10
-9.4327e-10
-1.43688e-09
2.42321e-10
-2.6035e-09
1.78988e-09
-4.18146e-09
3.59994e-09
-6.19472e-09
5.58989e-09
-8.65813e-09
7.69268e-09
-1.15791e-08
9.85519e-09
-1.49591e-08
1.20364e-08
-1.87953e-08
1.42056e-08
-2.30814e-08
1.63407e-08
-2.78087e-08
1.84271e-08
-3.29671e-08
2.04558e-08
-3.85459e-08
2.24222e-08
-4.45337e-08
2.43256e-08
-5.09198e-08
2.61675e-08
-5.76934e-08
2.79515e-08
-6.48445e-08
2.96819e-08
-7.23637e-08
3.13637e-08
-8.02423e-08
3.30019e-08
-8.84719e-08
3.46009e-08
-9.70448e-08
3.61647e-08
-1.05953e-07
3.76963e-08
-1.1519e-07
3.91974e-08
-1.24746e-07
4.06688e-08
-1.34615e-07
4.211e-08
-1.44786e-07
4.35192e-08
-1.5525e-07
4.48934e-08
-1.65996e-07
4.62283e-08
-1.77012e-07
4.75186e-08
-1.88282e-07
4.87578e-08
-1.99793e-07
4.99386e-08
-2.11526e-07
5.10527e-08
-2.23461e-07
5.20911e-08
-2.35577e-07
5.30442e-08
-2.4785e-07
5.39018e-08
-2.60255e-07
5.46533e-08
-2.72761e-07
5.52879e-08
-2.8534e-07
5.57944e-08
-2.97958e-07
5.61619e-08
-3.1058e-07
5.63793e-08
-3.2317e-07
5.64358e-08
-3.35688e-07
5.63207e-08
-3.48093e-07
5.6024e-08
-3.60342e-07
5.5536e-08
-3.72393e-07
5.48479e-08
-3.84198e-07
5.39513e-08
-3.95712e-07
5.2839e-08
-4.06887e-07
5.15047e-08
-4.17675e-07
4.99431e-08
-4.28027e-07
4.81501e-08
-4.37895e-07
4.61231e-08
-4.47231e-07
4.38606e-08
-4.55987e-07
4.13628e-08
-4.64115e-07
3.86312e-08
-4.7157e-07
3.56692e-08
-4.78308e-07
3.24817e-08
-4.84287e-07
2.90753e-08
-4.89465e-07
2.54584e-08
-4.93805e-07
2.16411e-08
-4.97271e-07
1.76355e-08
-4.99833e-07
1.34551e-08
-5.01461e-07
9.11547e-09
-5.0213e-07
4.63357e-09
-5.01818e-07
2.82457e-11
-5.0051e-07
-4.68043e-09
-4.98193e-07
-9.47054e-09
-4.94858e-07
-1.43191e-08
-4.90503e-07
-1.92018e-08
-4.85129e-07
-2.40934e-08
-4.78742e-07
-2.89675e-08
-4.71356e-07
-3.37971e-08
-4.62987e-07
-3.85547e-08
-4.53657e-07
-4.32124e-08
-4.43393e-07
-4.77423e-08
-4.3223e-07
-5.21163e-08
-4.20203e-07
-5.6307e-08
-4.07357e-07
-6.02872e-08
-3.93739e-07
-6.40308e-08
-3.79401e-07
-6.75127e-08
-3.64399e-07
-7.07088e-08
-3.48795e-07
-7.35971e-08
-3.32653e-07
-7.6157e-08
-3.16041e-07
-7.83699e-08
-2.9903e-07
-8.02197e-08
-2.81694e-07
-8.16924e-08
-2.6411e-07
-8.2777e-08
-2.46355e-07
-8.34649e-08
-2.28508e-07
-8.37506e-08
-2.1065e-07
-8.36316e-08
-1.92859e-07
-8.31084e-08
-1.75216e-07
-8.21847e-08
-1.578e-07
-8.08672e-08
-1.40688e-07
-7.91658e-08
-1.23955e-07
-7.70934e-08
-1.07674e-07
-7.46658e-08
-9.19138e-08
-7.19015e-08
-7.67407e-08
-6.88218e-08
-6.22162e-08
-6.54502e-08
-4.83974e-08
-6.18124e-08
-3.53364e-08
-5.7936e-08
-2.30798e-08
-5.38504e-08
-1.16684e-08
-4.95861e-08
-1.13706e-09
-4.51746e-08
8.48558e-09
-4.06485e-08
1.71774e-08
-3.60405e-08
2.49229e-08
-3.13837e-08
3.17132e-08
-2.6711e-08
3.75463e-08
-2.20552e-08
4.24266e-08
-1.74487e-08
4.63656e-08
-1.29231e-08
4.93814e-08
-8.50969e-09
5.14985e-08
-4.23906e-09
5.27481e-08
-1.41246e-10
5.31679e-08
3.75389e-09
5.28023e-08
7.41669e-09
5.17017e-08
1.08178e-08
4.99226e-08
1.39272e-08
4.75281e-08
1.67141e-08
4.45874e-08
1.91464e-08
4.11762e-08
2.11906e-08
3.73765e-08
2.28116e-08
3.32763e-08
2.39726e-08
2.89701e-08
2.46349e-08
2.45585e-08
2.47587e-08
2.01484e-08
2.43041e-08
1.5853e-08
2.32329e-08
1.17924e-08
2.15109e-08
8.095e-09
1.91115e-08
4.89968e-09
1.60205e-08
2.36069e-09
1.22412e-08
6.55781e-10
7.80184e-09
2.76865e-09
-2.03204e-11
-9.41182e-10
-2.06791e-10
-1.55009e-09
-6.58625e-10
-1.19877e-09
-1.45075e-09
-1.51153e-10
-2.64003e-09
1.43161e-09
-4.26853e-09
3.41838e-09
-6.36592e-09
5.69734e-09
-8.95162e-09
8.1756e-09
-1.20368e-08
1.07778e-08
-1.56258e-08
1.34442e-08
-1.97178e-08
1.61284e-08
-2.43079e-08
1.87957e-08
-2.93886e-08
2.14214e-08
-3.495e-08
2.39885e-08
-4.09811e-08
2.64869e-08
-4.74706e-08
2.89116e-08
-5.44066e-08
3.12616e-08
-6.17777e-08
3.35387e-08
-6.9573e-08
3.57467e-08
-7.77818e-08
3.78907e-08
-8.63944e-08
3.99763e-08
-9.54013e-08
4.20088e-08
-1.04794e-07
4.39933e-08
-1.14563e-07
4.59339e-08
-1.247e-07
4.78336e-08
-1.35197e-07
4.96942e-08
-1.46044e-07
5.15159e-08
-1.57232e-07
5.32976e-08
-1.68749e-07
5.50366e-08
-1.80584e-07
5.67288e-08
-1.92725e-07
5.83684e-08
-2.05155e-07
5.99487e-08
-2.17858e-07
6.14614e-08
-2.30817e-07
6.2897e-08
-2.4401e-07
6.42455e-08
-2.57414e-07
6.54954e-08
-2.71005e-07
6.66349e-08
-2.84754e-07
6.76513e-08
-2.98633e-07
6.85319e-08
-3.12608e-07
6.92632e-08
-3.26646e-07
6.98319e-08
-3.40708e-07
7.02245e-08
-3.54757e-07
7.04277e-08
-3.68749e-07
7.04286e-08
-3.82643e-07
7.02146e-08
-3.96393e-07
6.97735e-08
-4.09951e-07
6.90943e-08
-4.2327e-07
6.81664e-08
-4.36299e-07
6.69803e-08
-4.48987e-07
6.55278e-08
-4.61284e-07
6.38017e-08
-4.73138e-07
6.17964e-08
-4.84495e-07
5.95075e-08
-4.95305e-07
5.69325e-08
-5.05514e-07
5.40705e-08
-5.15074e-07
5.09222e-08
-5.23933e-07
4.74905e-08
-5.32044e-07
4.37799e-08
-5.39359e-07
3.97973e-08
-5.45836e-07
3.55514e-08
-5.5143e-07
3.10528e-08
-5.56104e-07
2.63147e-08
-5.5982e-07
2.13518e-08
-5.62546e-07
1.61814e-08
-5.64253e-07
1.08223e-08
-5.64915e-07
5.29567e-09
-5.64511e-07
-3.75639e-10
-5.63025e-07
-6.16701e-09
-5.60443e-07
-1.20521e-08
-5.56759e-07
-1.80029e-08
-5.51971e-07
-2.39904e-08
-5.4608e-07
-2.99839e-08
-5.39096e-07
-3.5952e-08
-5.3103e-07
-4.18624e-08
-5.21903e-07
-4.76822e-08
-5.11737e-07
-5.3378e-08
-5.00563e-07
-5.89166e-08
-4.88415e-07
-6.42646e-08
-4.75333e-07
-6.93891e-08
-4.61362e-07
-7.42581e-08
-4.46552e-07
-7.88402e-08
-4.30959e-07
-8.31055e-08
-4.14643e-07
-8.70256e-08
-3.97666e-07
-9.05737e-08
-3.80098e-07
-9.37255e-08
-3.62009e-07
-9.64586e-08
-3.43475e-07
-9.87536e-08
-3.24574e-07
-1.00594e-07
-3.05386e-07
-1.01965e-07
-2.85993e-07
-1.02858e-07
-2.66479e-07
-1.03264e-07
-2.4693e-07
-1.03181e-07
-2.2743e-07
-1.02608e-07
-2.08065e-07
-1.0155e-07
-1.88917e-07
-1.00014e-07
-1.70072e-07
-9.80114e-08
-1.51609e-07
-9.55565e-08
-1.33606e-07
-9.2668e-08
-1.16141e-07
-8.93674e-08
-9.92827e-08
-8.56797e-08
-8.31004e-08
-8.16325e-08