/*--------------------------------*- C++ -*----------------------------------*\
  =========                 |
  \\      /  F ield         | OpenFOAM: The Open Source CFD Toolbox
   \\    /   O peration     | Website:  https://openfoam.org
    \\  /    A nd           | Version:  12
     \\/     M anipulation  |
\*---------------------------------------------------------------------------*/
FoamFile
{
    format      ascii;
    class       surfaceScalarField;
    location    "1.15";
    object      phi;
}
// * * * * * * * * * * * * * * * * * * * * * * * * * * * * * * * * * * * * * //

dimensions      [0 3 -1 0 0 0 0];

internalField   nonuniform List<scalar> 
760
(
7.54325e-09
-7.54322e-09
-3.06113e-08
3.81546e-08
-1.21207e-07
9.05958e-08
-2.50141e-07
1.28934e-07
-3.98445e-07
1.48304e-07
-5.47465e-07
1.4902e-07
-6.80892e-07
1.33428e-07
-7.85688e-07
1.04796e-07
-8.52445e-07
6.67568e-08
-8.75489e-07
2.30435e-08
-8.52867e-07
-2.26216e-08
-7.86383e-07
-6.64843e-08
-6.81623e-07
-1.0476e-07
-5.47989e-07
-1.33634e-07
-3.98611e-07
-1.49378e-07
-2.49952e-07
-1.48659e-07
-1.20821e-07
-1.29131e-07
-3.02613e-08
-9.05597e-08
7.69618e-09
-3.79575e-08
7.69618e-09
-3.63482e-08
2.8805e-08
-1.8165e-07
1.83457e-07
-4.34692e-07
3.43638e-07
-7.65862e-07
4.60103e-07
-1.13507e-06
5.17515e-07
-1.5012e-06
5.15149e-07
-1.82713e-06
4.59355e-07
-2.08247e-06
3.60133e-07
-2.24492e-06
2.29209e-07
-2.3009e-06
7.90232e-08
-2.24575e-06
-7.77677e-08
-2.08385e-06
-2.28386e-07
-1.8286e-06
-3.60009e-07
-1.50228e-06
-4.59951e-07
-1.13546e-06
-5.16205e-07
-7.65535e-07
-5.18581e-07
-4.33947e-07
-4.60719e-07
-1.8094e-07
-3.43567e-07
-3.60229e-08
-1.82875e-07
-2.83267e-08
-9.12391e-08
1.20044e-07
-3.54435e-07
4.46652e-07
-7.62161e-07
7.51364e-07
-1.26848e-06
9.6642e-07
-1.81816e-06
1.06719e-06
-2.35536e-06
1.05235e-06
-2.82959e-06
9.33585e-07
-3.1993e-06
7.29839e-07
-3.43388e-06
4.63786e-07
-3.51461e-06
1.59753e-07
-3.43508e-06
-1.57294e-07
-3.20133e-06
-4.62133e-07
-2.83183e-06
-7.29514e-07
-2.35714e-06
-9.34643e-07
-1.81901e-06
-1.05433e-06
-1.26832e-06
-1.06926e-06
-7.61336e-07
-9.67707e-07
-3.53536e-07
-7.51366e-07
-9.07891e-08
-4.45622e-07
-1.19116e-07
-1.42993e-07
2.63037e-07
-5.21807e-07
8.25467e-07
-1.07935e-06
1.3089e-06
-1.74931e-06
1.63639e-06
-2.4612e-06
1.77908e-06
-3.14702e-06
1.73817e-06
-3.74662e-06
1.53319e-06
-4.21112e-06
1.19433e-06
-4.50475e-06
7.57417e-07
-4.60574e-06
2.60742e-07
-4.50661e-06
-2.56415e-07
-4.21435e-06
-7.54397e-07
-3.75037e-06
-1.1935e-06
-3.15033e-06
-1.53468e-06
-2.46333e-06
-1.74133e-06
-1.75e-06
-1.7826e-06
-1.07889e-06
-1.63882e-06
-5.20935e-07
-1.30932e-06
-1.42471e-07
-8.24086e-07
-2.61587e-07
-1.91369e-07
4.54406e-07
-6.82561e-07
1.31666e-06
-1.38711e-06
2.01345e-06
-2.21578e-06
2.46506e-06
-3.08142e-06
2.64471e-06
-3.90438e-06
2.56114e-06
-4.61675e-06
2.24556e-06
-5.16473e-06
1.74232e-06
-5.50971e-06
1.10239e-06
-5.62839e-06
3.79425e-07
-5.51279e-06
-3.7201e-07
-5.17021e-06
-1.09698e-06
-4.62338e-06
-1.74032e-06
-3.91075e-06
-2.24731e-06
-3.0863e-06
-2.56578e-06
-2.21853e-06
-2.65037e-06
-1.38784e-06
-2.4695e-06
-6.82135e-07
-2.01503e-06
-1.90887e-07
-1.31533e-06
-4.52474e-07
-2.38938e-07
6.93344e-07
-8.42408e-07
1.92013e-06
-1.69409e-06
2.86514e-06
-2.67986e-06
3.45082e-06
-3.69452e-06
3.65938e-06
-4.64698e-06
3.5136e-06
-5.46299e-06
3.06157e-06
-6.08594e-06
2.36527e-06
-6.47633e-06
1.49278e-06
-6.61083e-06
5.13925e-07
-6.48141e-06
-5.01433e-07
-6.0951e-06
-1.48329e-06
-5.47447e-06
-2.36095e-06
-4.65863e-06
-3.06316e-06
-3.70433e-06
-3.52008e-06
-2.6865e-06
-3.6682e-06
-1.69734e-06
-3.45867e-06
-8.43133e-07
-2.86923e-06
-2.38707e-07
-1.91976e-06
-6.91181e-07
-2.88587e-07
9.81931e-07
-1.00819e-06
2.63974e-06
-2.00988e-06
3.86682e-06
-3.15212e-06
4.59307e-06
-4.31072e-06
4.81797e-06
-5.38378e-06
4.58666e-06
-6.2927e-06
3.97049e-06
-6.9806e-06
3.05316e-06
-7.40951e-06
1.92169e-06
-7.55764e-06
6.62055e-07
-7.41748e-06
-6.41589e-07
-6.99519e-06
-1.90558e-06
-6.31141e-06
-3.04473e-06
-5.40346e-06
-3.9711e-06
-4.32826e-06
-4.59529e-06
-3.16515e-06
-4.8313e-06
-2.01746e-06
-4.60636e-06
-1.0111e-06
-3.87559e-06
-2.8893e-07
-2.64193e-06
-9.80112e-07
-3.43105e-07
1.32504e-06
-1.18633e-06
3.48296e-06
-2.3423e-06
5.0228e-06
-3.63866e-06
5.88942e-06
-4.9316e-06
6.11091e-06
-6.11032e-06
5.76538e-06
-7.09519e-06
4.95537e-06
-7.83274e-06
3.79071e-06
-8.28972e-06
2.37867e-06
-8.44806e-06
8.20399e-07
-8.3015e-06
-7.88146e-07
-7.85452e-06
-2.35257e-06
-7.12365e-06
-3.7756e-06
-6.14109e-06
-4.95366e-06
-4.9601e-06
-5.77628e-06
-3.66105e-06
-6.13034e-06
-2.35654e-06
-5.91087e-06
-1.19278e-06
-5.03935e-06
-3.44476e-07
-3.49024e-06
-1.32459e-06
-4.05319e-07
1.73036e-06
-1.38252e-06
4.46016e-06
-2.69629e-06
6.33657e-06
-4.13881e-06
7.33195e-06
-5.54707e-06
7.51917e-06
-6.80518e-06
7.02349e-06
-7.83791e-06
5.9881e-06
-8.60064e-06
4.55343e-06
-9.06927e-06
2.8473e-06
-9.23226e-06
9.83389e-07
-9.08558e-06
-9.34829e-07
-8.63106e-06
-2.80708e-06
-7.87829e-06
-4.52836e-06
-6.84986e-06
-5.9821e-06
-5.58975e-06
-7.03639e-06
-4.17377e-06
-7.54632e-06
-2.71982e-06
-7.36482e-06
-1.39418e-06
-6.36499e-06
-4.08298e-07
-4.47612e-06
-1.73289e-06
-4.78536e-07
2.20889e-06
-1.60211e-06
5.58373e-06
-3.07314e-06
7.80759e-06
-4.64289e-06
8.9017e-06
-6.13153e-06
9.00781e-06
-7.4251e-06
8.31705e-06
-8.46111e-06
7.02412e-06
-9.21139e-06
5.30371e-06
-9.66677e-06
3.30268e-06
-9.82576e-06
1.14238e-06
-9.68778e-06
-1.0728e-06
-9.25097e-06
-3.2439e-06
-8.51446e-06
-5.26488e-06
-7.48544e-06
-7.01111e-06
-6.19086e-06
-8.33097e-06
-4.69327e-06
-9.04391e-06
-3.10862e-06
-8.94947e-06
-1.62079e-06
-7.85283e-06
-4.8381e-07
-5.6131e-06
-2.2167e-06
-5.67301e-07
2.77619e-06
-1.85063e-06
6.86706e-06
-3.46935e-06
9.42631e-06
-5.12859e-06
1.05609e-05
-6.63824e-06
1.05175e-05
-7.89807e-06
9.57688e-06
-8.87052e-06
7.99657e-06
-9.55375e-06
5.98693e-06
-9.9603e-06
3.70923e-06
-1.01027e-05
1.28476e-06
-9.98518e-06
-1.1903e-06
-9.60116e-06
-3.62792e-06
-8.93562e-06
-5.93042e-06
-7.97353e-06
-7.97319e-06
-6.71472e-06
-9.58978e-06
-5.19593e-06
-1.05627e-05
-3.51884e-06
-1.06266e-05
-1.87804e-06
-9.49363e-06
-5.75618e-07
-6.91552e-06
-2.79232e-06
-6.7854e-07
3.45473e-06
-2.13407e-06
8.32259e-06
-3.87364e-06
1.11659e-05
-5.55428e-06
1.22416e-05
-6.99e-06
1.19532e-05
-8.11328e-06
1.07002e-05
-8.92787e-06
8.81116e-06
-9.46972e-06
6.52879e-06
-9.78008e-06
4.01959e-06
-9.889e-06
1.39368e-06
-9.80672e-06
-1.27258e-06
-9.5211e-06
-3.91354e-06
-8.99998e-06
-6.45154e-06
-8.19945e-06
-8.77372e-06
-7.08059e-06
-1.07086e-05
-5.63743e-06
-1.20059e-05
-3.93765e-06
-1.23263e-05
-2.17138e-06
-1.12599e-05
-6.90602e-07
-8.3963e-06
-3.48292e-06
-8.23139e-07
4.27787e-06
-2.45773e-06
9.95717e-06
-4.25958e-06
1.29677e-05
-5.84604e-06
1.3828e-05
-7.06384e-06
1.3171e-05
-7.90645e-06
1.15428e-05
-8.43882e-06
9.34352e-06
-8.74584e-06
6.83581e-06
-8.90206e-06
4.17581e-06
-8.95655e-06
1.44817e-06
-8.92623e-06
-1.3029e-06
-8.79366e-06
-4.04611e-06
-8.50841e-06
-6.73679e-06
-7.99335e-06
-9.28878e-06
-7.15996e-06
-1.1542e-05
-5.93924e-06
-1.32266e-05
-4.33566e-06
-1.39299e-05
-2.50478e-06
-1.30908e-05
-8.39417e-07
-1.00617e-05
-4.32233e-06
-1.01756e-06
5.29543e-06
-2.82009e-06
1.17597e-05
-4.56771e-06
1.47154e-05
-5.8725e-06
1.51328e-05
-6.66531e-06
1.39638e-05
-7.03893e-06
1.19164e-05
-7.13911e-06
9.4437e-06
-7.10513e-06
6.80184e-06
-7.04404e-06
4.11472e-06
-7.02155e-06
1.42568e-06
-7.0601e-06
-1.26436e-06
-7.13847e-06
-3.96774e-06
-7.19126e-06
-6.684e-06
-7.10993e-06
-9.37011e-06
-6.75113e-06
-1.19008e-05
-5.96319e-06
-1.40145e-05
-4.64863e-06
-1.52445e-05
-2.87426e-06
-1.48651e-05
-1.0379e-06
-1.1898e-05
-5.36024e-06
-1.28089e-06
6.57632e-06
-3.19076e-06
1.36696e-05
-4.66467e-06
1.61893e-05
-5.39731e-06
1.58655e-05
-5.48769e-06
1.40542e-05
-5.17017e-06
1.15989e-05
-4.68034e-06
8.95387e-06
-4.20506e-06
6.32656e-06
-3.87169e-06
3.78134e-06
-3.75287e-06
1.30687e-06
-3.87314e-06
-1.14409e-06
-4.21118e-06
-3.6297e-06
-4.6966e-06
-6.19858e-06
-5.20248e-06
-8.86423e-06
-5.53942e-06
-1.15639e-05
-5.46491e-06
-1.4089e-05
-4.73546e-06
-1.59739e-05
-3.24564e-06
-1.6355e-05
-1.30399e-06
-1.38397e-05
-6.66423e-06
-1.61279e-06
8.18912e-06
-3.44804e-06
1.55048e-05
-4.25269e-06
1.69939e-05
-3.9932e-06
1.5606e-05
-3.05e-06
1.3111e-05
-1.82425e-06
1.03731e-05
-6.22832e-07
7.75246e-06
3.52483e-07
5.35124e-06
9.82367e-07
3.15146e-06
1.2052e-06
1.08403e-06
1.00069e-06
-9.39576e-07
3.84408e-07
-3.01342e-06
-5.86139e-07
-5.22803e-06
-1.79446e-06
-7.65591e-06
-3.03895e-06
-1.03194e-05
-4.00855e-06
-1.31194e-05
-4.2899e-06
-1.56926e-05
-3.48986e-06
-1.7155e-05
-1.63482e-06
-1.56947e-05
-8.29905e-06
-1.94021e-06
1.01293e-05
-3.23246e-06
1.67971e-05
-2.68626e-06
1.64477e-05
-8.93699e-07
1.38134e-05
1.38765e-06
1.08296e-05
3.63608e-06
8.12469e-06
5.55366e-06
5.83488e-06
6.98966e-06
3.91524e-06
7.87648e-06
2.26464e-06
8.18754e-06
7.72968e-07
7.91472e-06
-6.66757e-07
7.06133e-06
-2.16002e-06
5.64913e-06
-3.81584e-06
3.74082e-06
-5.7476e-06
1.48329e-06
-8.06187e-06
-8.26127e-07
-1.081e-05
-2.65883e-06
-1.38599e-05
-3.23836e-06
-1.65755e-05
-1.95335e-06
-1.69797e-05
-1.02524e-05
-2.04903e-06
1.21784e-05
-1.57877e-06
1.63268e-05
1.40629e-06
1.34627e-05
5.22919e-06
9.99052e-06
8.89625e-06
7.16256e-06
1.19946e-05
5.02631e-06
1.43934e-05
3.43612e-06
1.60812e-05
2.22746e-06
1.70855e-05
1.26029e-06
1.74336e-05
4.24919e-07
1.7135e-05
-3.6819e-07
1.61771e-05
-1.2021e-06
1.45293e-05
-2.16805e-06
1.21588e-05
-3.37714e-06
9.07055e-06
-4.97358e-06
5.38905e-06
-7.12851e-06
1.52423e-06
-9.99507e-06
-1.52176e-06
-1.35295e-05
-2.04047e-06
-1.6461e-05
-1.22929e-05
-6.25247e-07
1.28036e-05
4.47788e-06
1.12237e-05
1.09051e-05
7.03547e-06
1.64825e-05
4.41311e-06
2.0824e-05
2.82104e-06
2.40361e-05
1.81423e-06
2.63104e-05
1.16182e-06
2.78184e-05
7.1942e-07
2.86837e-05
3.9504e-07
2.89783e-05
1.3031e-07
2.87259e-05
-1.1579e-07
2.79028e-05
-3.79012e-07
2.64361e-05
-7.01376e-07
2.41998e-05
-1.14085e-06
2.10169e-05
-1.79071e-06
1.66869e-05
-2.7985e-06
1.10926e-05
-4.40075e-06
4.61021e-06
-7.04708e-06
-5.75518e-07
-1.12753e-05
-1.28684e-05
1.28036e-05
2.40273e-05
3.10628e-05
3.54759e-05
3.82969e-05
4.01111e-05
4.1273e-05
4.19924e-05
4.23874e-05
4.25177e-05
4.24019e-05
4.20229e-05
4.13216e-05
4.01807e-05
3.839e-05
3.55915e-05
3.11907e-05
2.41437e-05
1.28684e-05
)
;

boundaryField
{
    movingWall
    {
        type            calculated;
        value           uniform 0;
    }
    fixedWalls
    {
        type            calculated;
        value           uniform 0;
    }
    frontAndBack
    {
        type            empty;
    }
}


// ************************************************************************* //
