/*--------------------------------*- C++ -*----------------------------------*\
  =========                 |
  \\      /  F ield         | OpenFOAM: The Open Source CFD Toolbox
   \\    /   O peration     | Website:  https://openfoam.org
    \\  /    A nd           | Version:  12
     \\/     M anipulation  |
\*---------------------------------------------------------------------------*/
FoamFile
{
    format      ascii;
    class       volScalarField;
    location    "0.2";
    object      epsilon;
}
// * * * * * * * * * * * * * * * * * * * * * * * * * * * * * * * * * * * * * //

dimensions      [0 2 -3 0 0 0 0];

internalField   nonuniform List<scalar> 
900
(
6.34648e-09
4.26985e-08
9.31159e-08
1.50114e-07
2.09449e-07
2.6804e-07
3.23484e-07
3.73902e-07
4.17868e-07
4.54367e-07
4.82749e-07
5.0268e-07
5.14027e-07
5.17149e-07
5.12465e-07
5.00441e-07
4.81719e-07
4.57024e-07
4.27135e-07
3.92851e-07
3.54979e-07
3.14322e-07
2.71683e-07
2.2788e-07
1.83781e-07
1.40351e-07
9.87336e-08
6.03847e-08
2.74317e-08
4.06719e-09
1.19556e-08
2.28952e-08
4.51899e-08
7.14394e-08
9.90559e-08
1.26438e-07
1.52402e-07
1.76037e-07
1.96662e-07
2.1379e-07
2.27113e-07
2.36471e-07
2.41801e-07
2.43267e-07
2.41064e-07
2.35413e-07
2.26613e-07
2.15006e-07
2.00957e-07
1.84843e-07
1.67046e-07
1.47947e-07
1.27926e-07
1.07374e-07
8.67083e-08
6.63969e-08
4.70087e-08
2.93218e-08
1.47148e-08
7.65814e-09
2.51275e-08
2.22612e-08
3.51431e-08
5.25195e-08
7.14531e-08
9.04824e-08
1.08641e-07
1.25227e-07
1.39727e-07
1.5178e-07
1.61158e-07
1.67744e-07
1.71486e-07
1.72501e-07
1.70924e-07
1.66908e-07
1.60668e-07
1.52443e-07
1.42494e-07
1.31091e-07
1.18508e-07
1.05021e-07
9.0907e-08
7.64558e-08
6.19801e-08
4.78448e-08
3.4526e-08
2.2776e-08
1.42775e-08
1.60607e-08
4.04867e-08
2.65e-08
3.35629e-08
4.62987e-08
6.10907e-08
7.63259e-08
9.10329e-08
1.04547e-07
1.16399e-07
1.26266e-07
1.33946e-07
1.39334e-07
1.42377e-07
1.43176e-07
1.41837e-07
1.38485e-07
1.33297e-07
1.26474e-07
1.18232e-07
1.088e-07
9.84095e-08
8.72975e-08
7.57058e-08
6.38901e-08
5.21353e-08
4.07903e-08
3.03478e-08
2.1679e-08
1.69276e-08
2.57869e-08
5.72418e-08
3.28123e-08
3.53759e-08
4.49643e-08
5.72084e-08
7.02611e-08
8.30659e-08
9.49311e-08
1.05383e-07
1.14104e-07
1.20894e-07
1.2565e-07
1.28312e-07
1.28976e-07
1.27731e-07
1.24686e-07
1.20001e-07
1.13857e-07
1.06452e-07
9.79944e-08
8.87005e-08
7.8792e-08
6.84999e-08
5.80729e-08
4.77969e-08
3.8038e-08
2.93417e-08
2.27425e-08
2.08525e-08
3.62828e-08
7.472e-08
4.01215e-08
3.88753e-08
4.60382e-08
5.64833e-08
6.81008e-08
7.97219e-08
9.05997e-08
1.00234e-07
1.08293e-07
1.14572e-07
1.18961e-07
1.21392e-07
1.21959e-07
1.20739e-07
1.17833e-07
1.1339e-07
1.07584e-07
1.00603e-07
9.26499e-08
8.39347e-08
7.46771e-08
6.51089e-08
5.5485e-08
4.61057e-08
3.73663e-08
2.98809e-08
2.48502e-08
2.53462e-08
4.70735e-08
9.23519e-08
4.78481e-08
4.32401e-08
4.84163e-08
5.74809e-08
6.80752e-08
7.89e-08
8.91455e-08
9.82745e-08
1.05934e-07
1.11905e-07
1.16072e-07
1.18352e-07
1.18845e-07
1.17614e-07
1.14756e-07
1.10416e-07
1.04763e-07
9.79836e-08
9.0279e-08
8.18612e-08
7.29536e-08
6.37956e-08
5.46538e-08
4.58492e-08
3.78158e-08
3.12381e-08
2.74596e-08
3.0021e-08
5.77572e-08
1.09636e-07
5.56084e-08
4.79851e-08
5.14831e-08
5.94442e-08
6.92595e-08
7.95204e-08
8.93437e-08
9.81499e-08
1.05562e-07
1.11346e-07
1.15375e-07
1.17556e-07
1.1799e-07
1.16729e-07
1.13869e-07
1.09552e-07
1.03946e-07
9.72383e-08
8.96326e-08
8.1346e-08
7.26096e-08
6.36739e-08
5.48221e-08
4.63987e-08
3.8874e-08
3.30028e-08
3.02496e-08
3.46165e-08
6.79855e-08
1.26118e-07
6.31113e-08
5.27811e-08
5.48439e-08
6.19008e-08
7.11107e-08
8.09519e-08
9.04778e-08
9.90716e-08
1.0633e-07
1.12001e-07
1.15947e-07
1.18063e-07
1.18451e-07
1.17154e-07
1.14265e-07
1.09926e-07
1.04305e-07
9.75916e-08
8.99947e-08
8.17381e-08
7.30628e-08
6.42325e-08
5.55476e-08
4.73762e-08
4.02222e-08
3.49104e-08
3.30007e-08
3.89372e-08
7.74532e-08
1.41385e-07
7.01189e-08
5.7384e-08
5.8221e-08
6.45307e-08
7.32575e-08
8.27795e-08
9.2093e-08
1.00544e-07
1.07706e-07
1.13311e-07
1.17208e-07
1.19284e-07
1.19637e-07
1.18304e-07
1.15375e-07
1.1099e-07
1.0532e-07
9.85575e-08
9.09159e-08
8.26275e-08
7.39439e-08
6.51425e-08
5.65414e-08
4.8531e-08
4.16454e-08
3.67733e-08
3.55519e-08
4.28279e-08
8.58953e-08
1.55059e-07
7.64294e-08
6.16024e-08
6.14072e-08
6.71014e-08
7.54395e-08
8.47126e-08
9.38682e-08
1.02221e-07
1.09323e-07
1.14891e-07
1.18765e-07
1.20819e-07
1.2115e-07
1.19786e-07
1.16815e-07
1.12378e-07
1.06644e-07
9.98096e-08
9.20941e-08
8.37376e-08
7.50024e-08
6.61797e-08
5.76043e-08
4.96874e-08
4.29894e-08
3.84543e-08
3.7781e-08
4.61639e-08
9.30872e-08
1.66806e-07
8.18702e-08
6.52824e-08
6.42422e-08
6.94378e-08
7.74642e-08
8.65406e-08
9.5575e-08
1.03857e-07
1.10922e-07
1.16474e-07
1.20341e-07
1.2239e-07
1.22711e-07
1.21326e-07
1.18321e-07
1.13833e-07
1.08033e-07
1.01121e-07
9.33188e-08
8.48755e-08
7.60635e-08
6.71867e-08
5.85955e-08
5.07197e-08
4.41421e-08
3.98521e-08
3.95955e-08
4.88473e-08
9.88469e-08
1.76334e-07
8.62947e-08
6.8302e-08
6.66e-08
7.14059e-08
7.91873e-08
8.81078e-08
9.70469e-08
1.05277e-07
1.12318e-07
1.17866e-07
1.21739e-07
1.23798e-07
1.24122e-07
1.2273e-07
1.19702e-07
1.15174e-07
1.09316e-07
1.0233e-07
9.44417e-08
8.59061e-08
7.70048e-08
6.80534e-08
5.94162e-08
5.15392e-08
4.5024e-08
4.08936e-08
4.09286e-08
5.08052e-08
1.03036e-07
1.834e-07
8.95827e-08
7.05642e-08
6.83844e-08
7.29054e-08
8.05022e-08
8.93011e-08
9.81645e-08
1.06354e-07
1.13381e-07
1.18934e-07
1.22823e-07
1.24904e-07
1.25245e-07
1.2386e-07
1.20825e-07
1.16274e-07
1.10374e-07
1.03326e-07
9.53608e-08
8.67369e-08
7.77434e-08
6.87059e-08
6.00006e-08
5.20865e-08
4.55807e-08
4.1528e-08
4.17325e-08
5.1986e-08
1.0556e-07
1.87811e-07
9.16411e-08
7.19961e-08
6.9525e-08
7.38646e-08
8.13347e-08
9.00436e-08
9.88478e-08
1.07005e-07
1.14025e-07
1.19589e-07
1.23502e-07
1.25617e-07
1.25988e-07
1.24627e-07
1.21605e-07
1.1705e-07
1.11127e-07
1.04037e-07
9.60108e-08
8.73097e-08
7.82281e-08
6.90988e-08
6.03081e-08
5.23272e-08
4.57837e-08
4.17337e-08
4.19875e-08
5.23693e-08
1.06381e-07
1.89433e-07
9.24049e-08
7.25482e-08
6.99762e-08
7.4239e-08
8.16407e-08
9.02912e-08
9.90524e-08
1.07187e-07
1.14204e-07
1.19783e-07
1.23727e-07
1.25888e-07
1.26302e-07
1.24981e-07
1.21991e-07
1.17455e-07
1.11533e-07
1.04424e-07
9.63567e-08
8.75946e-08
7.84352e-08
6.92163e-08
6.03309e-08
5.22572e-08
4.563e-08
4.15092e-08
4.16942e-08
5.19589e-08
1.05508e-07
1.88198e-07
9.18448e-08
7.2201e-08
6.97216e-08
7.40147e-08
8.14089e-08
9.0035e-08
9.87716e-08
1.06892e-07
1.13912e-07
1.19512e-07
1.23491e-07
1.25706e-07
1.26176e-07
1.24912e-07
1.21974e-07
1.17479e-07
1.11583e-07
1.04479e-07
9.63953e-08
8.75927e-08
7.8369e-08
6.90643e-08
6.00753e-08
5.18847e-08
4.513e-08
4.08655e-08
4.08657e-08
5.07734e-08
1.02986e-07
1.84082e-07
8.99525e-08
7.09532e-08
6.87656e-08
7.3201e-08
8.0653e-08
8.9293e-08
9.80273e-08
1.06147e-07
1.13177e-07
1.18803e-07
1.22824e-07
1.25104e-07
1.25641e-07
1.24448e-07
1.21579e-07
1.17146e-07
1.11299e-07
1.04226e-07
9.61487e-08
8.73261e-08
7.80531e-08
6.86688e-08
5.95703e-08
5.12409e-08
4.43168e-08
3.98339e-08
3.95368e-08
4.88567e-08
9.89037e-08
1.77111e-07
8.67414e-08
6.88196e-08
6.71303e-08
7.18306e-08
7.94173e-08
8.81203e-08
9.68831e-08
1.05021e-07
1.12074e-07
1.17734e-07
1.21804e-07
1.24154e-07
1.24767e-07
1.23657e-07
1.20874e-07
1.1652e-07
1.10741e-07
1.03719e-07
9.56697e-08
8.68457e-08
7.75371e-08
6.80792e-08
5.88653e-08
5.03755e-08
4.324e-08
3.84651e-08
3.77592e-08
4.62722e-08
9.3391e-08
1.67413e-07
8.22826e-08
6.58659e-08
6.48885e-08
6.9986e-08
7.77945e-08
8.66192e-08
9.54504e-08
1.03633e-07
1.10726e-07
1.16432e-07
1.20558e-07
1.22984e-07
1.23681e-07
1.22661e-07
1.19973e-07
1.15709e-07
1.10012e-07
1.03054e-07
9.50463e-08
8.62332e-08
7.6898e-08
6.73684e-08
5.80307e-08
4.93575e-08
4.19673e-08
3.68268e-08
3.56008e-08
4.31014e-08
8.66116e-08
1.55169e-07
7.66742e-08
6.21822e-08
6.21436e-08
6.77861e-08
7.59199e-08
8.49408e-08
9.38935e-08
1.02158e-07
1.09317e-07
1.15085e-07
1.19279e-07
1.21786e-07
1.22569e-07
1.21644e-07
1.19053e-07
1.14881e-07
1.09266e-07
1.02376e-07
9.44113e-08
8.56101e-08
7.62462e-08
6.66383e-08
5.71615e-08
4.82766e-08
4.05847e-08
3.50041e-08
3.31454e-08
3.94417e-08
7.87582e-08
1.40632e-07
7.00554e-08
5.78976e-08
5.90469e-08
6.54041e-08
7.39894e-08
8.33021e-08
9.24487e-08
1.00849e-07
1.08112e-07
1.13969e-07
1.18246e-07
1.20839e-07
1.21709e-07
1.20875e-07
1.18376e-07
1.14284e-07
1.08737e-07
1.01898e-07
9.39612e-08
8.51539e-08
7.57411e-08
6.60303e-08
5.63846e-08
4.72491e-08
3.92e-08
3.31012e-08
3.04933e-08
3.54053e-08
7.00472e-08
1.24124e-07
6.26086e-08
5.31991e-08
5.58113e-08
6.30868e-08
7.2283e-08
8.20141e-08
9.14548e-08
1.00069e-07
1.07494e-07
1.1348e-07
1.17866e-07
1.20555e-07
1.21509e-07
1.20754e-07
1.18327e-07
1.14283e-07
1.08768e-07
1.01939e-07
9.39824e-08
8.51205e-08
7.56095e-08
6.57463e-08
5.58798e-08
4.64294e-08
3.79508e-08
3.12468e-08
2.77634e-08
3.11187e-08
6.07126e-08
1.06048e-07
5.45738e-08
4.83472e-08
5.2743e-08
6.11914e-08
7.12081e-08
8.15321e-08
9.14105e-08
1.00353e-07
1.08028e-07
1.14209e-07
1.18744e-07
1.21547e-07
1.22581e-07
1.21884e-07
1.1949e-07
1.15439e-07
1.09886e-07
1.02985e-07
9.49203e-08
8.59083e-08
7.61996e-08
6.60829e-08
5.58942e-08
4.60372e-08
3.70255e-08
2.96036e-08
2.51008e-08
2.67252e-08
5.10016e-08
8.68952e-08
4.62707e-08
4.37183e-08
5.0297e-08
6.02575e-08
7.13858e-08
8.25507e-08
9.30823e-08
1.02537e-07
1.10609e-07
1.17091e-07
1.21847e-07
1.24796e-07
1.25909e-07
1.25235e-07
1.2281e-07
1.18655e-07
1.12944e-07
1.05829e-07
9.74969e-08
8.8163e-08
7.80773e-08
6.75255e-08
5.68362e-08
4.63971e-08
3.66927e-08
2.83981e-08
2.2693e-08
2.2393e-08
4.11715e-08
6.72711e-08
3.81495e-08
3.98927e-08
4.91998e-08
6.11572e-08
7.38391e-08
8.62579e-08
9.78018e-08
1.08068e-07
1.16781e-07
1.2375e-07
1.2885e-07
1.3201e-07
1.33205e-07
1.32503e-07
1.2994e-07
1.25522e-07
1.19446e-07
1.11873e-07
1.02993e-07
9.30312e-08
8.22464e-08
7.09306e-08
5.94156e-08
4.80832e-08
3.73941e-08
2.79663e-08
2.08114e-08
1.83359e-08
3.14915e-08
4.79325e-08
3.09275e-08
3.78591e-08
5.075e-08
6.55261e-08
8.05528e-08
9.49408e-08
1.08136e-07
1.19767e-07
1.29576e-07
1.37382e-07
1.43071e-07
1.46576e-07
1.47877e-07
1.47069e-07
1.44182e-07
1.39218e-07
1.32408e-07
1.23925e-07
1.13981e-07
1.02823e-07
9.07318e-08
7.80257e-08
6.50591e-08
5.22295e-08
3.99957e-08
2.89322e-08
1.99149e-08
1.48659e-08
2.22555e-08
2.9851e-08
2.59654e-08
3.96692e-08
5.78219e-08
7.711e-08
9.61018e-08
1.13973e-07
1.30186e-07
1.44369e-07
1.56259e-07
1.65675e-07
1.72497e-07
1.76661e-07
1.78147e-07
1.77095e-07
1.73523e-07
1.67439e-07
1.5913e-07
1.48803e-07
1.36712e-07
1.23153e-07
1.08463e-07
9.30206e-08
7.7243e-08
6.15881e-08
4.65621e-08
3.27487e-08
2.09246e-08
1.25994e-08
1.38112e-08
1.42634e-08
2.668e-08
5.1336e-08
7.93141e-08
1.07788e-07
1.35292e-07
1.60895e-07
1.83959e-07
2.04031e-07
2.20785e-07
2.33994e-07
2.4351e-07
2.49255e-07
2.51207e-07
2.49586e-07
2.4439e-07
2.35659e-07
2.23795e-07
2.09089e-07
1.91899e-07
1.72642e-07
1.51796e-07
1.29893e-07
1.07515e-07
8.52968e-08
6.39177e-08
4.41149e-08
2.6731e-08
1.29885e-08
6.57811e-09
7.63753e-09
5.01625e-08
1.06834e-07
1.68051e-07
2.29451e-07
2.88357e-07
3.42975e-07
3.9204e-07
4.34644e-07
4.70131e-07
4.98041e-07
5.18077e-07
5.30081e-07
5.34017e-07
5.30357e-07
5.19075e-07
5.00309e-07
4.74891e-07
4.43439e-07
4.06717e-07
3.65618e-07
3.21157e-07
2.74467e-07
2.26788e-07
1.7946e-07
1.33914e-07
9.16723e-08
5.4371e-08
2.39226e-08
3.53989e-09
)
;

boundaryField
{
    movingWall
    {
        type            epsilonWallFunction;
        value           nonuniform List<scalar> 
30
(
7.63753e-09
5.01625e-08
1.06834e-07
1.68051e-07
2.29451e-07
2.88357e-07
3.42975e-07
3.9204e-07
4.34644e-07
4.70131e-07
4.98041e-07
5.18077e-07
5.30081e-07
5.34017e-07
5.30357e-07
5.19075e-07
5.00309e-07
4.74891e-07
4.43439e-07
4.06717e-07
3.65618e-07
3.21157e-07
2.74467e-07
2.26788e-07
1.7946e-07
1.33914e-07
9.16723e-08
5.4371e-08
2.39226e-08
3.53989e-09
)
;
    }
    fixedWalls
    {
        type            epsilonWallFunction;
        value           nonuniform List<scalar> 
90
(
6.34648e-09
1.19556e-08
2.51275e-08
4.04867e-08
5.72418e-08
7.472e-08
9.23519e-08
1.09636e-07
1.26118e-07
1.41385e-07
1.55059e-07
1.66806e-07
1.76334e-07
1.834e-07
1.87811e-07
1.89433e-07
1.88198e-07
1.84082e-07
1.77111e-07
1.67413e-07
1.55169e-07
1.40632e-07
1.24124e-07
1.06048e-07
8.68952e-08
6.72711e-08
4.79325e-08
2.9851e-08
1.42634e-08
7.63753e-09
4.06719e-09
7.65814e-09
1.60607e-08
2.57869e-08
3.62828e-08
4.70735e-08
5.77572e-08
6.79855e-08
7.74532e-08
8.58953e-08
9.30872e-08
9.88469e-08
1.03036e-07
1.0556e-07
1.06381e-07
1.05508e-07
1.02986e-07
9.89037e-08
9.3391e-08
8.66116e-08
7.87582e-08
7.00472e-08
6.07126e-08
5.10016e-08
4.11715e-08
3.14915e-08
2.22555e-08
1.38112e-08
6.57811e-09
3.53989e-09
6.34648e-09
4.26985e-08
9.31159e-08
1.50114e-07
2.09449e-07
2.6804e-07
3.23484e-07
3.73902e-07
4.17868e-07
4.54367e-07
4.82749e-07
5.0268e-07
5.14027e-07
5.17149e-07
5.12465e-07
5.00441e-07
4.81719e-07
4.57024e-07
4.27135e-07
3.92851e-07
3.54979e-07
3.14322e-07
2.71683e-07
2.2788e-07
1.83781e-07
1.40351e-07
9.87336e-08
6.03847e-08
2.74317e-08
4.06719e-09
)
;
    }
    frontAndBack
    {
        type            empty;
    }
}


// ************************************************************************* //
