/*--------------------------------*- C++ -*----------------------------------*\
  =========                 |
  \\      /  F ield         | OpenFOAM: The Open Source CFD Toolbox
   \\    /   O peration     | Website:  https://openfoam.org
    \\  /    A nd           | Version:  12
     \\/     M anipulation  |
\*---------------------------------------------------------------------------*/
FoamFile
{
    format      ascii;
    class       volScalarField;
    location    "0.2";
    object      k;
}
// * * * * * * * * * * * * * * * * * * * * * * * * * * * * * * * * * * * * * //

dimensions      [0 2 -2 0 0 0 0];

internalField   nonuniform List<scalar> 
900
(
3.29013e-13
2.21357e-12
4.82729e-12
7.78214e-12
1.08581e-11
1.38955e-11
1.67697e-11
1.93833e-11
2.16624e-11
2.35543e-11
2.50254e-11
2.60583e-11
2.66462e-11
2.68078e-11
2.65647e-11
2.59412e-11
2.49704e-11
2.36901e-11
2.21406e-11
2.03633e-11
1.84e-11
1.62925e-11
1.40823e-11
1.18117e-11
9.52587e-12
7.27476e-12
5.1176e-12
3.12988e-12
1.42185e-12
2.10811e-13
2.4792e-12
1.96677e-11
4.32031e-11
6.97556e-11
9.7379e-11
1.24648e-10
1.50447e-10
1.73903e-10
1.94354e-10
2.11329e-10
2.24526e-10
2.33792e-10
2.39061e-10
2.40505e-10
2.3832e-10
2.32721e-10
2.24005e-10
2.12513e-10
1.98604e-10
1.82654e-10
1.65036e-10
1.46124e-10
1.26291e-10
1.05918e-10
8.54077e-11
6.52075e-11
4.58462e-11
2.79958e-11
1.26261e-11
1.58775e-12
5.21062e-12
4.4403e-11
9.8196e-11
1.58883e-10
2.21991e-10
2.84259e-10
3.43144e-10
3.96657e-10
4.43293e-10
4.81983e-10
5.12045e-10
5.33137e-10
5.45097e-10
5.48343e-10
5.43317e-10
5.30506e-10
5.10593e-10
4.8435e-10
4.52605e-10
4.16207e-10
3.76014e-10
3.32877e-10
2.87647e-10
2.41189e-10
1.94422e-10
1.48363e-10
1.04212e-10
6.3499e-11
2.84446e-11
3.32986e-12
8.39562e-12
7.3299e-11
1.62911e-10
2.64132e-10
3.69383e-10
4.73188e-10
5.71297e-10
6.60401e-10
7.38004e-10
8.02341e-10
8.52292e-10
8.87303e-10
9.07081e-10
9.12372e-10
9.03907e-10
8.82485e-10
8.49248e-10
8.05486e-10
7.52576e-10
6.91935e-10
6.24992e-10
5.53166e-10
4.77876e-10
4.00562e-10
3.22749e-10
2.46127e-10
1.72693e-10
1.04997e-10
4.6793e-11
5.34637e-12
1.18701e-11
1.04654e-10
2.33439e-10
3.7915e-10
5.3069e-10
6.80085e-10
8.2119e-10
9.49245e-10
1.06068e-09
1.15299e-09
1.22459e-09
1.2747e-09
1.30289e-09
1.31029e-09
1.29794e-09
1.26699e-09
1.21907e-09
1.15604e-09
1.07988e-09
9.92634e-10
8.96362e-10
7.93109e-10
6.84917e-10
5.73862e-10
4.62134e-10
3.52159e-10
2.46806e-10
1.49762e-10
6.64909e-11
7.52247e-12
1.54945e-11
1.37245e-10
3.06921e-10
4.99223e-10
6.99272e-10
8.96407e-10
1.08246e-09
1.25116e-09
1.39782e-09
1.51919e-09
1.61322e-09
1.67894e-09
1.7157e-09
1.72514e-09
1.7086e-09
1.66754e-09
1.60416e-09
1.52088e-09
1.42033e-09
1.30521e-09
1.17823e-09
1.04211e-09
8.99558e-10
7.53313e-10
6.06269e-10
4.61624e-10
3.23161e-10
1.95757e-10
8.66697e-11
9.7597e-12
1.91508e-11
1.70054e-10
3.80989e-10
6.20406e-10
8.69533e-10
1.11491e-09
1.3463e-09
1.55589e-09
1.73791e-09
1.88837e-09
2.00479e-09
2.08601e-09
2.1312e-09
2.14251e-09
2.12157e-09
2.07017e-09
1.99104e-09
1.88721e-09
1.76193e-09
1.61857e-09
1.46053e-09
1.2912e-09
1.11399e-09
9.3233e-10
7.49822e-10
5.7045e-10
3.98913e-10
2.41291e-10
1.06607e-10
1.19747e-11
2.27349e-11
2.02176e-10
4.53549e-10
7.39204e-10
1.03649e-09
1.32913e-09
1.60482e-09
1.85425e-09
2.07063e-09
2.24926e-09
2.3873e-09
2.48343e-09
2.53661e-09
2.54955e-09
2.52411e-09
2.46244e-09
2.36774e-09
2.24364e-09
2.09401e-09
1.92288e-09
1.73434e-09
1.53246e-09
1.32134e-09
1.10512e-09
8.8811e-10
6.7507e-10
4.71588e-10
2.84891e-10
1.2567e-10
1.40954e-11
2.61528e-11
2.32785e-10
5.22701e-10
8.5244e-10
1.19558e-09
1.53314e-09
1.85079e-09
2.13784e-09
2.38654e-09
2.5916e-09
2.74984e-09
2.85982e-09
2.92035e-09
2.93463e-09
2.90474e-09
2.83314e-09
2.7235e-09
2.57999e-09
2.40707e-09
2.2094e-09
1.99173e-09
1.75884e-09
1.5155e-09
1.26655e-09
1.017e-09
7.72347e-10
5.39008e-10
3.25265e-10
1.43302e-10
1.60583e-11
2.93185e-11
2.61119e-10
5.86706e-10
9.57209e-10
1.34268e-09
1.72153e-09
2.07762e-09
2.39898e-09
2.67703e-09
2.90602e-09
3.08249e-09
3.20492e-09
3.27194e-09
3.28727e-09
3.25312e-09
3.17223e-09
3.04869e-09
2.88715e-09
2.69261e-09
2.47033e-09
2.2257e-09
1.96414e-09
1.69112e-09
1.41213e-09
1.13288e-09
8.59549e-10
5.99286e-10
3.61288e-10
1.59015e-10
1.78086e-11
3.21541e-11
2.86487e-10
6.43981e-10
1.05088e-09
1.47398e-09
1.88939e-09
2.27932e-09
2.63072e-09
2.93437e-09
3.18414e-09
3.37638e-09
3.50952e-09
3.58207e-09
3.59815e-09
3.56007e-09
3.47081e-09
3.33481e-09
3.15712e-09
2.94322e-09
2.69891e-09
2.43016e-09
2.14302e-09
1.84359e-09
1.53804e-09
1.2327e-09
9.34368e-10
6.50825e-10
3.9201e-10
1.72395e-10
1.92997e-11
3.45901e-11
3.08268e-10
6.93113e-10
1.13108e-09
1.58614e-09
2.03235e-09
2.45058e-09
2.82694e-09
3.15173e-09
3.41858e-09
3.62375e-09
3.76561e-09
3.84263e-09
3.8592e-09
3.81769e-09
3.72125e-09
3.57459e-09
3.38308e-09
3.15261e-09
2.88943e-09
2.60003e-09
2.29104e-09
1.96916e-09
1.64117e-09
1.31398e-09
9.94939e-10
6.92338e-10
4.16661e-10
1.83106e-10
2.04938e-11
3.65659e-11
3.25923e-10
7.32869e-10
1.19578e-09
1.67623e-09
2.14664e-09
2.58683e-09
2.98238e-09
3.32331e-09
3.60312e-09
3.81805e-09
3.96649e-09
4.04684e-09
4.06368e-09
4.01936e-09
3.91717e-09
3.76199e-09
3.55942e-09
3.31564e-09
3.03727e-09
2.73125e-09
2.4047e-09
2.06488e-09
1.7191e-09
1.37483e-09
1.03986e-09
7.22858e-10
4.34665e-10
1.90894e-10
2.13625e-11
3.80311e-11
3.38998e-10
7.62215e-10
1.24325e-09
1.74181e-09
2.22911e-09
2.68433e-09
3.09278e-09
3.44441e-09
3.73276e-09
3.95408e-09
4.1068e-09
4.18935e-09
4.20628e-09
4.15992e-09
4.05362e-09
3.89234e-09
3.6818e-09
3.42837e-09
3.13894e-09
2.8208e-09
2.48146e-09
2.12864e-09
1.77015e-09
1.41391e-09
1.06811e-09
7.41682e-10
4.45599e-10
1.95578e-10
2.18857e-11
3.89459e-11
3.47138e-10
7.80333e-10
1.27213e-09
1.78098e-09
2.27736e-09
2.74024e-09
3.15495e-09
3.51159e-09
3.80384e-09
4.02806e-09
4.18271e-09
4.2663e-09
4.28319e-09
4.23566e-09
4.12706e-09
3.96229e-09
3.74711e-09
3.48798e-09
3.19193e-09
2.86648e-09
2.51946e-09
2.15898e-09
1.79322e-09
1.43048e-09
1.07923e-09
7.48541e-10
4.49318e-10
1.97093e-10
2.20558e-11
3.92822e-11
3.50086e-10
7.86639e-10
1.28148e-09
1.79241e-09
2.28976e-09
2.75268e-09
3.16683e-09
3.52268e-09
3.81414e-09
4.03772e-09
4.19193e-09
4.27542e-09
4.29219e-09
4.24445e-09
4.13548e-09
3.97005e-09
3.75385e-09
3.49328e-09
3.19541e-09
2.86785e-09
2.51862e-09
2.15603e-09
1.78858e-09
1.42483e-09
1.07348e-09
7.43596e-10
4.45902e-10
1.95464e-10
2.1875e-11
3.90262e-11
3.47726e-10
7.80886e-10
1.27092e-09
1.77567e-09
2.26584e-09
2.7212e-09
3.12803e-09
3.47729e-09
3.76327e-09
3.98267e-09
4.13406e-09
4.21626e-09
4.2328e-09
4.18579e-09
4.07839e-09
3.91518e-09
3.70161e-09
3.44396e-09
3.14916e-09
2.82479e-09
2.47889e-09
2.11988e-09
1.75641e-09
1.39723e-09
1.0511e-09
7.27078e-10
4.3551e-10
1.90767e-10
2.1352e-11
3.81727e-11
3.40005e-10
7.62927e-10
1.24019e-09
1.73039e-09
2.20522e-09
2.64548e-09
3.03835e-09
3.37545e-09
3.65149e-09
3.86338e-09
4.00974e-09
4.08963e-09
4.10594e-09
4.06069e-09
3.95685e-09
3.79871e-09
3.59144e-09
3.34104e-09
3.05422e-09
2.73836e-09
2.40138e-09
2.05164e-09
1.6978e-09
1.34864e-09
1.01295e-09
6.99609e-10
4.18527e-10
1.83172e-10
2.05056e-11
3.67271e-11
3.26956e-10
7.32839e-10
1.18952e-09
1.65711e-09
2.10888e-09
2.52699e-09
2.89974e-09
3.21949e-09
3.48142e-09
3.68268e-09
3.82192e-09
3.89844e-09
3.91447e-09
3.87192e-09
3.77352e-09
3.62318e-09
3.42573e-09
3.18679e-09
2.91272e-09
2.61056e-09
2.28796e-09
1.95306e-09
1.61436e-09
1.28051e-09
9.60187e-10
6.62062e-10
3.95497e-10
1.7292e-10
1.93627e-11
3.47159e-11
3.08826e-10
6.9122e-10
1.11996e-09
1.55743e-09
1.97899e-09
2.36851e-09
2.7155e-09
3.01318e-09
3.25719e-09
3.44495e-09
3.57513e-09
3.64727e-09
3.66293e-09
3.62392e-09
3.53264e-09
3.39261e-09
3.20823e-09
2.98468e-09
2.72784e-09
2.44431e-09
2.14129e-09
1.82653e-09
1.50818e-09
1.19463e-09
8.94295e-10
6.15526e-10
3.67103e-10
1.60318e-10
1.79571e-11
3.2177e-11
2.85954e-10
6.38865e-10
1.03292e-09
1.43352e-09
1.81856e-09
2.17383e-09
2.49018e-09
2.76167e-09
2.98446e-09
3.15618e-09
3.27559e-09
3.34236e-09
3.3575e-09
3.32273e-09
3.24003e-09
3.11247e-09
2.94405e-09
2.7394e-09
2.50385e-09
2.24341e-09
1.96473e-09
1.67499e-09
1.38182e-09
1.09315e-09
8.16984e-10
5.61266e-10
3.34141e-10
1.45723e-10
1.63289e-11
2.91624e-11
2.58809e-10
5.76889e-10
9.30371e-10
1.28836e-09
1.63161e-09
1.94799e-09
2.22968e-09
2.4716e-09
2.67041e-09
2.82398e-09
2.93116e-09
2.99162e-09
3.00603e-09
2.97603e-09
2.90304e-09
2.78972e-09
2.63964e-09
2.45684e-09
2.24603e-09
2.01255e-09
1.76236e-09
1.50192e-09
1.2382e-09
9.78466e-10
7.30163e-10
5.00681e-10
2.97494e-10
1.29538e-10
1.45229e-11
2.57392e-11
2.27999e-10
5.06747e-10
8.14875e-10
1.12574e-09
1.4232e-09
1.69717e-09
1.94121e-09
2.15102e-09
2.32374e-09
2.4575e-09
2.55123e-09
2.6046e-09
2.61801e-09
2.59302e-09
2.53052e-09
2.43274e-09
2.30279e-09
2.14412e-09
1.96076e-09
1.75733e-09
1.53898e-09
1.31138e-09
1.08065e-09
8.53261e-10
6.35899e-10
4.35269e-10
2.58109e-10
1.12197e-10
1.25875e-11
2.19908e-11
1.94284e-10
4.3026e-10
6.89601e-10
9.50306e-10
1.19937e-09
1.42876e-09
1.63324e-09
1.8093e-09
1.95452e-09
2.0673e-09
2.14668e-09
2.19231e-09
2.20442e-09
2.18442e-09
2.13281e-09
2.05132e-09
1.94264e-09
1.8096e-09
1.65554e-09
1.48431e-09
1.30021e-09
1.10803e-09
9.12944e-10
7.20485e-10
5.36418e-10
3.66612e-10
2.16977e-10
9.41547e-11
1.05741e-11
1.80193e-11
1.58593e-10
3.49657e-10
5.58378e-10
7.67553e-10
9.67222e-10
1.1512e-09
1.31541e-09
1.45703e-09
1.57411e-09
1.6653e-09
1.72978e-09
1.7672e-09
1.77767e-09
1.76241e-09
1.72167e-09
1.65667e-09
1.56968e-09
1.46291e-09
1.33903e-09
1.20109e-09
1.05256e-09
8.97266e-10
7.39396e-10
5.83445e-10
4.34145e-10
2.96379e-10
1.75124e-10
7.58809e-11
8.53606e-12
1.39499e-11
1.22051e-10
2.6763e-10
4.25741e-10
5.83857e-10
7.3479e-10
8.74014e-10
9.98472e-10
1.10602e-09
1.19511e-09
1.26471e-09
1.31414e-09
1.34309e-09
1.3516e-09
1.34066e-09
1.31035e-09
1.26148e-09
1.19583e-09
1.11508e-09
1.02119e-09
9.16492e-10
8.03579e-10
6.85359e-10
5.65006e-10
4.45944e-10
3.31807e-10
2.2639e-10
1.33627e-10
5.78552e-11
6.52913e-12
9.93965e-12
8.60369e-11
1.87428e-10
2.97016e-10
4.06517e-10
5.11141e-10
6.07796e-10
6.9435e-10
7.69276e-10
8.31479e-10
8.80193e-10
9.14931e-10
9.35453e-10
9.41745e-10
9.34553e-10
9.13874e-10
8.80174e-10
8.34766e-10
7.78782e-10
7.13589e-10
6.40782e-10
5.62167e-10
4.79754e-10
3.95748e-10
3.1253e-10
2.32639e-10
1.5875e-10
9.36821e-11
4.05835e-11
4.61422e-12
6.19013e-12
5.22779e-11
1.1303e-10
1.7851e-10
2.43984e-10
3.0664e-10
3.64621e-10
4.16624e-10
4.6171e-10
4.99203e-10
5.28629e-10
5.49683e-10
5.62209e-10
5.66183e-10
5.62078e-10
5.49876e-10
5.29794e-10
5.02665e-10
4.69156e-10
4.30084e-10
3.864e-10
3.39184e-10
2.89641e-10
2.39091e-10
1.88959e-10
1.40768e-10
9.61339e-11
5.67766e-11
2.46544e-11
2.86348e-12
2.95776e-12
2.31271e-11
4.9631e-11
7.81948e-11
1.06804e-10
1.34228e-10
1.59639e-10
1.82455e-10
2.02259e-10
2.18746e-10
2.31705e-10
2.40998e-10
2.46555e-10
2.4836e-10
2.46629e-10
2.41351e-10
2.32597e-10
2.2075e-10
2.06099e-10
1.88999e-10
1.69867e-10
1.49175e-10
1.27449e-10
1.05268e-10
8.32538e-11
6.20732e-11
4.24334e-11
2.50943e-11
1.09341e-11
1.36384e-12
3.95945e-13
2.60052e-12
5.53848e-12
8.71207e-12
1.18951e-11
1.49488e-11
1.77802e-11
2.03237e-11
2.25322e-11
2.43717e-11
2.58183e-11
2.68567e-11
2.74788e-11
2.76825e-11
2.74925e-11
2.69074e-11
2.59344e-11
2.46165e-11
2.2986e-11
2.10822e-11
1.89517e-11
1.66469e-11
1.42267e-11
1.17552e-11
9.30196e-12
6.94116e-12
4.75162e-12
2.81819e-12
1.23997e-12
1.83481e-13
)
;

boundaryField
{
    movingWall
    {
        type            kqRWallFunction;
        value           nonuniform List<scalar> 
30
(
3.95945e-13
2.60052e-12
5.53848e-12
8.71207e-12
1.18951e-11
1.49488e-11
1.77802e-11
2.03237e-11
2.25322e-11
2.43717e-11
2.58183e-11
2.68567e-11
2.74788e-11
2.76825e-11
2.74925e-11
2.69074e-11
2.59344e-11
2.46165e-11
2.2986e-11
2.10822e-11
1.89517e-11
1.66469e-11
1.42267e-11
1.17552e-11
9.30196e-12
6.94116e-12
4.75162e-12
2.81819e-12
1.23997e-12
1.83481e-13
)
;
    }
    fixedWalls
    {
        type            kqRWallFunction;
        value           nonuniform List<scalar> 
90
(
3.29013e-13
2.4792e-12
5.21062e-12
8.39562e-12
1.18701e-11
1.54945e-11
1.91508e-11
2.27349e-11
2.61528e-11
2.93185e-11
3.21541e-11
3.45901e-11
3.65659e-11
3.80311e-11
3.89459e-11
3.92822e-11
3.90262e-11
3.81727e-11
3.67271e-11
3.47159e-11
3.2177e-11
2.91624e-11
2.57392e-11
2.19908e-11
1.80193e-11
1.39499e-11
9.93965e-12
6.19013e-12
2.95776e-12
3.95945e-13
2.10811e-13
1.58775e-12
3.32986e-12
5.34637e-12
7.52247e-12
9.7597e-12
1.19747e-11
1.40954e-11
1.60583e-11
1.78086e-11
1.92997e-11
2.04938e-11
2.13625e-11
2.18857e-11
2.20558e-11
2.1875e-11
2.1352e-11
2.05056e-11
1.93627e-11
1.79571e-11
1.63289e-11
1.45229e-11
1.25875e-11
1.05741e-11
8.53606e-12
6.52913e-12
4.61422e-12
2.86348e-12
1.36384e-12
1.83481e-13
3.29013e-13
2.21357e-12
4.82729e-12
7.78214e-12
1.08581e-11
1.38955e-11
1.67697e-11
1.93833e-11
2.16624e-11
2.35543e-11
2.50254e-11
2.60583e-11
2.66462e-11
2.68078e-11
2.65647e-11
2.59412e-11
2.49704e-11
2.36901e-11
2.21406e-11
2.03633e-11
1.84e-11
1.62925e-11
1.40823e-11
1.18117e-11
9.52587e-12
7.27476e-12
5.1176e-12
3.12988e-12
1.42185e-12
2.10811e-13
)
;
    }
    frontAndBack
    {
        type            empty;
    }
}


// ************************************************************************* //
