/*--------------------------------*- C++ -*----------------------------------*\
  =========                 |
  \\      /  F ield         | OpenFOAM: The Open Source CFD Toolbox
   \\    /   O peration     | Website:  https://openfoam.org
    \\  /    A nd           | Version:  12
     \\/     M anipulation  |
\*---------------------------------------------------------------------------*/
FoamFile
{
    format      ascii;
    class       volScalarField;
    location    "0.2";
    object      nut;
}
// * * * * * * * * * * * * * * * * * * * * * * * * * * * * * * * * * * * * * //

dimensions      [0 2 -1 0 0 0 0];

internalField   nonuniform List<scalar> 
900
(
1.5351e-18
1.0328e-17
2.25229e-17
3.63095e-17
5.06609e-17
6.48322e-17
7.8242e-17
9.04355e-17
1.01068e-16
1.09894e-16
1.16757e-16
1.21575e-16
1.24317e-16
1.25069e-16
1.23934e-16
1.21023e-16
1.16493e-16
1.10519e-16
1.03289e-16
9.4997e-17
8.58376e-17
7.60053e-17
6.56939e-17
5.51015e-17
4.44377e-17
3.39363e-17
2.38732e-17
1.46006e-17
6.63278e-18
9.83413e-19
4.62694e-17
1.52057e-15
3.71733e-15
6.13003e-15
8.61575e-15
1.10594e-14
1.33665e-14
1.54615e-14
1.72866e-14
1.88007e-14
1.99772e-14
2.08029e-14
2.12716e-14
2.13997e-14
2.12046e-14
2.07054e-14
1.99285e-14
1.89043e-14
1.76652e-14
1.62441e-14
1.46744e-14
1.29891e-14
1.1221e-14
9.40342e-15
7.5714e-15
5.76354e-15
4.02412e-15
2.40568e-15
9.75047e-16
2.96268e-17
9.7246e-17
7.97109e-15
2.46939e-14
4.32589e-14
6.20713e-14
8.03724e-14
9.7544e-14
1.13077e-13
1.26574e-13
1.3775e-13
1.46422e-13
1.52501e-13
1.55941e-13
1.56875e-13
1.55434e-13
1.51756e-13
1.46037e-13
1.38501e-13
1.29385e-13
1.18929e-13
1.07375e-13
9.49587e-14
8.1915e-14
6.84776e-14
5.48885e-14
4.14053e-14
2.83095e-14
1.5933e-14
5.10023e-15
6.21338e-17
1.56688e-16
1.8247e-14
7.11683e-14
1.35617e-13
2.01012e-13
2.64021e-13
3.22677e-13
3.75445e-13
4.21126e-13
4.58853e-13
4.88079e-13
5.08546e-13
5.2011e-13
5.23259e-13
5.18443e-13
5.06121e-13
4.86958e-13
4.61699e-13
4.31129e-13
3.96045e-13
3.57235e-13
3.15466e-13
2.71483e-13
2.26021e-13
1.79821e-13
1.33661e-13
8.8443e-14
4.57677e-14
1.16415e-14
9.9761e-17
2.21531e-16
3.00413e-14
1.38638e-13
2.87737e-13
4.43062e-13
5.92454e-13
7.30646e-13
8.54261e-13
9.60819e-13
1.04856e-12
1.1164e-12
1.16386e-12
1.19067e-12
1.19803e-12
1.18702e-12
1.15869e-12
1.11458e-12
1.05639e-12
9.85914e-13
9.0494e-13
8.15236e-13
7.18498e-13
6.16351e-13
5.10369e-13
4.02141e-13
2.93429e-13
1.8684e-13
8.87581e-14
1.90813e-14
1.40366e-16
2.89174e-16
4.22529e-14
2.18083e-13
4.87207e-13
7.79139e-13
1.06194e-12
1.32279e-12
1.55503e-12
1.75441e-12
1.91807e-12
2.04433e-12
2.13258e-12
2.18242e-12
2.19623e-12
2.17608e-12
2.12389e-12
2.0425e-12
1.93503e-12
1.80473e-12
1.65485e-12
1.48855e-12
1.30883e-12
1.11856e-12
9.20488e-13
7.17495e-13
5.13262e-13
3.14547e-13
1.38787e-13
2.66725e-14
1.82112e-16
3.57411e-16
5.43939e-14
3.0212e-13
7.15489e-13
1.18384e-12
1.64337e-12
2.06753e-12
2.444e-12
2.76604e-12
3.02958e-12
3.23243e-12
3.37403e-12
3.45395e-12
3.47623e-12
3.44426e-12
3.36109e-12
3.23125e-12
3.05967e-12
2.85144e-12
2.61166e-12
2.34522e-12
2.05677e-12
1.75072e-12
1.4314e-12
1.10364e-12
7.74469e-13
4.58474e-13
1.90822e-13
3.40711e-14
2.23444e-16
4.24302e-16
6.6155e-14
3.85821e-13
9.55227e-13
1.62652e-12
2.2956e-12
2.91485e-12
3.46352e-12
3.93149e-12
4.31337e-12
4.60662e-12
4.81098e-12
4.92613e-12
4.95823e-12
4.91224e-12
4.79255e-12
4.60564e-12
4.35855e-12
4.05849e-12
3.71264e-12
3.32792e-12
2.9109e-12
2.46781e-12
2.00495e-12
1.52992e-12
1.05507e-12
6.06481e-13
2.4148e-13
4.10605e-14
2.63014e-16
4.88091e-16
7.7276e-14
4.65878e-13
1.19245e-12
2.07829e-12
2.97488e-12
3.8083e-12
4.54624e-12
5.17404e-12
5.68489e-12
6.07623e-12
6.34834e-12
6.50125e-12
6.54352e-12
6.48187e-12
6.32214e-12
6.07293e-12
5.74347e-12
5.34326e-12
4.88173e-12
4.36798e-12
3.81066e-12
3.21811e-12
2.59908e-12
1.96482e-12
1.33475e-12
7.48995e-13
2.88531e-13
4.74662e-14
2.99642e-16
5.47172e-16
8.75156e-14
5.39874e-13
1.41637e-12
2.51431e-12
3.64099e-12
4.69301e-12
5.6243e-12
6.41495e-12
7.05668e-12
7.54701e-12
7.8871e-12
8.07742e-12
8.1292e-12
8.05089e-12
7.84983e-12
7.53676e-12
7.1231e-12
6.62063e-12
6.04105e-12
5.39573e-12
4.69554e-12
3.95116e-12
3.17412e-12
2.38008e-12
1.59668e-12
8.78977e-13
3.30435e-13
5.31367e-14
3.32302e-16
6.00094e-16
9.66479e-14
6.05886e-13
1.61855e-12
2.91405e-12
4.25881e-12
5.51955e-12
6.63549e-12
7.58113e-12
8.34673e-12
8.93014e-12
9.33359e-12
9.55819e-12
9.61786e-12
9.52258e-12
9.28122e-12
8.90646e-12
8.41181e-12
7.81118e-12
7.11849e-12
6.34733e-12
5.51086e-12
4.62219e-12
3.69593e-12
2.7524e-12
1.82775e-12
9.91346e-13
3.66069e-13
5.79417e-14
3.60125e-16
6.45556e-16
1.04466e-13
6.62299e-13
1.7923e-12
3.26086e-12
4.79889e-12
6.24538e-12
7.5254e-12
8.60804e-12
9.48238e-12
1.01468e-11
1.06048e-11
1.08581e-11
1.09233e-11
1.08116e-11
1.05331e-11
1.01024e-11
9.53477e-12
8.84595e-12
8.05189e-12
7.1683e-12
6.21056e-12
5.19424e-12
4.13698e-12
3.06367e-12
2.01829e-12
1.0825e-12
3.94605e-13
6.17744e-14
3.82407e-16
6.82431e-16
1.10787e-13
7.0772e-13
1.93228e-12
3.54141e-12
5.23726e-12
6.83541e-12
8.24871e-12
9.44173e-12
1.04028e-11
1.1131e-11
1.16312e-11
1.19059e-11
1.19738e-11
1.1847e-11
1.15369e-11
1.10592e-11
1.04307e-11
9.66885e-12
8.79114e-12
7.8152e-12
6.75845e-12
5.63875e-12
4.47654e-12
3.30067e-12
2.16145e-12
1.14999e-12
4.15455e-13
6.45537e-14
3.98616e-16
7.09776e-16
1.15455e-13
7.40991e-13
2.03423e-12
3.74528e-12
5.55517e-12
7.26204e-12
8.76972e-12
1.00397e-11
1.10601e-11
1.18312e-11
1.23586e-11
1.26462e-11
1.27139e-11
1.25742e-11
1.22397e-11
1.17269e-11
1.10534e-11
1.02378e-11
9.29908e-12
8.25623e-12
7.12842e-12
5.93543e-12
4.70009e-12
3.4543e-12
2.25264e-12
1.19217e-12
4.28209e-13
6.62211e-14
4.0838e-16
7.26849e-16
1.18347e-13
7.61191e-13
2.09492e-12
3.86476e-12
5.73892e-12
7.50528e-12
9.06274e-12
1.03716e-11
1.14205e-11
1.22108e-11
1.27493e-11
1.30406e-11
1.31053e-11
1.29561e-11
1.26059e-11
1.20716e-11
1.13714e-11
1.05245e-11
9.55058e-12
8.46987e-12
7.30291e-12
6.07111e-12
4.7988e-12
3.51948e-12
2.28961e-12
1.20833e-12
4.32743e-13
6.67584e-14
4.11554e-16
7.33126e-16
1.19371e-13
7.67656e-13
2.11211e-12
3.89478e-12
5.77983e-12
7.5528e-12
9.1123e-12
1.04195e-11
1.14645e-11
1.22495e-11
1.27823e-11
1.30682e-11
1.31277e-11
1.2973e-11
1.26173e-11
1.20772e-11
1.13708e-11
1.05174e-11
9.53706e-12
8.45043e-12
7.27875e-12
6.04426e-12
4.77219e-12
3.49643e-12
2.27288e-12
1.19887e-12
4.29187e-13
6.61783e-14
4.08179e-16
7.28347e-16
1.18485e-13
7.60107e-13
2.08504e-12
3.83396e-12
5.67585e-12
7.40206e-12
8.91563e-12
1.01808e-11
1.11894e-11
1.19449e-11
1.24555e-11
1.27274e-11
1.27797e-11
1.26239e-11
1.2273e-11
1.17432e-11
1.10517e-11
1.02171e-11
9.25928e-12
8.19874e-12
7.05689e-12
5.85616e-12
4.62168e-12
3.38639e-12
2.20327e-12
1.16426e-12
4.17715e-13
6.45079e-14
3.98421e-16
7.12418e-16
1.15665e-13
7.38307e-13
2.01303e-12
3.6814e-12
5.42659e-12
7.05398e-12
8.4756e-12
9.66048e-12
1.06029e-11
1.1307e-11
1.17812e-11
1.2032e-11
1.20764e-11
1.19249e-11
1.15899e-11
1.10863e-11
1.04301e-11
9.639e-12
8.73173e-12
7.7282e-12
6.64925e-12
5.51676e-12
4.35498e-12
3.19462e-12
2.08376e-12
1.10586e-12
3.98738e-13
6.18068e-14
3.82628e-16
6.8544e-16
1.10916e-13
7.02341e-13
1.89701e-12
3.44061e-12
5.03999e-12
6.52192e-12
7.8111e-12
8.88262e-12
9.7331e-12
1.03673e-11
1.07931e-11
1.1017e-11
1.10532e-11
1.09113e-11
1.06024e-11
1.01396e-11
9.53761e-12
8.81233e-12
7.98113e-12
7.06255e-12
6.07618e-12
5.04267e-12
3.98458e-12
2.92946e-12
1.91897e-12
1.02559e-12
3.72826e-13
5.81586e-14
3.61301e-16
6.47906e-16
1.04319e-13
6.52852e-13
1.73971e-12
3.11924e-12
4.53086e-12
5.82878e-12
6.95288e-12
7.88486e-12
8.62346e-12
9.17352e-12
9.54184e-12
9.73486e-12
9.76332e-12
9.6359e-12
9.36179e-12
8.95243e-12
8.42046e-12
7.77987e-12
7.04606e-12
6.23564e-12
5.36636e-12
4.45698e-12
3.52771e-12
2.6023e-12
1.71511e-12
9.25914e-13
3.4069e-13
5.36677e-14
3.35074e-16
6.00522e-16
9.59813e-14
5.90737e-13
1.54517e-12
2.72841e-12
3.92052e-12
5.00701e-12
5.94386e-12
6.71912e-12
7.33308e-12
7.79014e-12
8.0958e-12
8.25567e-12
8.27738e-12
8.16852e-12
7.93595e-12
7.58934e-12
7.13916e-12
6.59714e-12
5.97632e-12
5.29099e-12
4.55649e-12
3.78915e-12
3.00636e-12
2.22773e-12
1.48016e-12
8.09957e-13
3.03164e-13
4.84553e-14
3.04692e-16
5.4426e-16
8.60518e-14
5.17329e-13
1.31934e-12
2.28408e-12
3.23823e-12
4.09976e-12
4.83979e-12
5.45163e-12
5.93643e-12
6.29765e-12
6.53935e-12
6.66572e-12
6.68198e-12
6.59446e-12
6.40742e-12
6.12887e-12
5.76704e-12
5.33124e-12
4.83197e-12
4.28088e-12
3.69061e-12
3.07463e-12
2.44715e-12
1.82365e-12
1.22404e-12
6.81586e-13
2.61213e-13
4.26547e-14
2.70992e-16
4.80373e-16
7.47266e-14
4.34431e-13
1.07078e-12
1.80793e-12
2.52194e-12
3.16087e-12
3.70835e-12
4.16132e-12
4.521e-12
4.7897e-12
4.96997e-12
5.06453e-12
5.07665e-12
5.01131e-12
4.87058e-12
4.66072e-12
4.38784e-12
4.05885e-12
3.68169e-12
3.26524e-12
2.81923e-12
2.3541e-12
1.88085e-12
1.41128e-12
9.58955e-13
5.457e-13
2.15961e-13
3.64066e-14
2.34879e-16
4.10417e-16
6.22494e-14
3.44614e-13
8.11472e-13
1.32825e-12
1.81812e-12
2.25336e-12
2.62631e-12
2.93584e-12
3.18262e-12
3.36783e-12
3.49274e-12
3.55881e-12
3.56785e-12
3.52345e-12
3.42621e-12
3.28063e-12
3.0909e-12
2.86177e-12
2.59875e-12
2.3081e-12
1.99672e-12
1.67208e-12
1.34204e-12
1.01481e-12
6.99436e-13
4.08611e-13
1.68804e-13
2.98542e-14
1.9731e-16
3.36295e-16
4.89218e-14
2.51688e-13
5.57901e-13
8.7993e-13
1.17946e-12
1.44485e-12
1.673e-12
1.86339e-12
2.01616e-12
2.13159e-12
2.21009e-12
2.25224e-12
2.25885e-12
2.2322e-12
2.17224e-12
2.08175e-12
1.96336e-12
1.82e-12
1.65513e-12
1.47268e-12
1.27706e-12
1.07304e-12
8.65708e-13
6.60315e-13
4.62309e-13
2.78385e-13
1.2163e-13
2.31416e-14
1.5928e-16
2.60347e-16
3.5143e-14
1.61592e-13
3.31567e-13
5.01657e-13
6.58085e-13
7.9704e-13
9.17418e-13
1.01875e-12
1.10075e-12
1.16327e-12
1.20626e-12
1.22984e-12
1.23429e-12
1.22083e-12
1.18926e-12
1.14099e-12
1.07748e-12
1.00029e-12
9.11282e-13
8.12588e-13
7.06616e-13
5.95998e-13
4.83557e-13
3.72229e-13
2.64978e-13
1.64938e-13
7.722e-14
1.64295e-14
1.21831e-16
1.85505e-16
2.15411e-14
8.35102e-14
1.56446e-13
2.26979e-13
2.91906e-13
3.50192e-13
4.01261e-13
4.44701e-13
4.80199e-13
5.07536e-13
5.26583e-13
5.37308e-13
5.39769e-13
5.34478e-13
5.2132e-13
5.00824e-13
4.73652e-13
4.40468e-13
4.02074e-13
3.59397e-13
3.13483e-13
2.65486e-13
2.16657e-13
1.6831e-13
1.21785e-13
7.83948e-14
3.96624e-14
9.97126e-15
8.60999e-17
1.15527e-16
9.47294e-15
2.89853e-14
4.95995e-14
6.94791e-14
8.8058e-14
1.04984e-13
1.19996e-13
1.32895e-13
1.43533e-13
1.51806e-13
1.57647e-13
1.61027e-13
1.61948e-13
1.60557e-13
1.56825e-13
1.50869e-13
1.42905e-13
1.33126e-13
1.2177e-13
1.09112e-13
9.54622e-14
8.11678e-14
6.66053e-14
5.21771e-14
3.83018e-14
2.53981e-14
1.38652e-14
4.3419e-15
5.34315e-17
5.5201e-17
1.80426e-15
4.31844e-15
6.93822e-15
9.52465e-15
1.19855e-14
1.42553e-14
1.62867e-14
1.80452e-14
1.95053e-14
2.06495e-14
2.14662e-14
2.19497e-14
2.20991e-14
2.19337e-14
2.14515e-14
2.06618e-14
1.95972e-14
1.82836e-14
1.6753e-14
1.50423e-14
1.31939e-14
1.12547e-14
9.27604e-15
7.31337e-15
5.42538e-15
3.67344e-15
2.12019e-15
8.2842e-16
2.54488e-17
1.84739e-18
1.21334e-17
2.58412e-17
4.06484e-17
5.54996e-17
6.97471e-17
8.29571e-17
9.48238e-17
1.05127e-16
1.13709e-16
1.20457e-16
1.25301e-16
1.28202e-16
1.29151e-16
1.28264e-16
1.25532e-16
1.20992e-16
1.14842e-16
1.07234e-16
9.83521e-17
8.84119e-17
7.76593e-17
6.63681e-17
5.48381e-17
4.33935e-17
3.23802e-17
2.2166e-17
1.31466e-17
5.78436e-18
8.55923e-19
)
;

boundaryField
{
    movingWall
    {
        type            nutkWallFunction;
        Cmu             0.09;
        kappa           0.41;
        E               9.8;
        value           uniform 0;
    }
    fixedWalls
    {
        type            nutkWallFunction;
        Cmu             0.09;
        kappa           0.41;
        E               9.8;
        value           uniform 0;
    }
    frontAndBack
    {
        type            empty;
    }
}


// ************************************************************************* //
