/*--------------------------------*- C++ -*----------------------------------*\
  =========                 |
  \\      /  F ield         | OpenFOAM: The Open Source CFD Toolbox
   \\    /   O peration     | Website:  https://openfoam.org
    \\  /    A nd           | Version:  12
     \\/     M anipulation  |
\*---------------------------------------------------------------------------*/
FoamFile
{
    format      ascii;
    class       volScalarField;
    location    "4";
    object      k;
}
// * * * * * * * * * * * * * * * * * * * * * * * * * * * * * * * * * * * * * //

dimensions      [0 2 -2 0 0 0 0];

internalField   nonuniform List<scalar> 
5625
(
1.98129e-12
1.3392e-11
2.97026e-11
4.88999e-11
6.99513e-11
9.21456e-11
1.14931e-10
1.37864e-10
1.60584e-10
1.82808e-10
2.04324e-10
2.2499e-10
2.44726e-10
2.63514e-10
2.81391e-10
2.98436e-10
3.14768e-10
3.30534e-10
3.45897e-10
3.61032e-10
3.76118e-10
3.91328e-10
4.06831e-10
4.22784e-10
4.39333e-10
4.56609e-10
4.74733e-10
4.93808e-10
5.13929e-10
5.35177e-10
5.57621e-10
5.81318e-10
6.06315e-10
6.32646e-10
6.60332e-10
6.89378e-10
7.19776e-10
7.51495e-10
7.84481e-10
8.18653e-10
8.53897e-10
8.90055e-10
9.26924e-10
9.6424e-10
1.00167e-09
1.03882e-09
1.07518e-09
1.11015e-09
1.14305e-09
1.17305e-09
1.19924e-09
1.22056e-09
1.23577e-09
1.24326e-09
1.24372e-09
1.23498e-09
1.21593e-09
1.18589e-09
1.14454e-09
1.09197e-09
1.02871e-09
9.55795e-10
8.74762e-10
7.87571e-10
6.96495e-10
6.03961e-10
5.12369e-10
4.23906e-10
3.40408e-10
2.6327e-10
1.93454e-10
1.31606e-10
7.83438e-11
3.49034e-11
5.1506e-12
1.49718e-11
1.19255e-10
2.66497e-10
4.39466e-10
6.29037e-10
8.28847e-10
1.03395e-09
1.24036e-09
1.44483e-09
1.64482e-09
1.83843e-09
2.02437e-09
2.20193e-09
2.37095e-09
2.53175e-09
2.68507e-09
2.83197e-09
2.97376e-09
3.11193e-09
3.24805e-09
3.38372e-09
3.52052e-09
3.65995e-09
3.80343e-09
3.95228e-09
4.10767e-09
4.27069e-09
4.44227e-09
4.62326e-09
4.81439e-09
5.01628e-09
5.22945e-09
5.45432e-09
5.69118e-09
5.94024e-09
6.20154e-09
6.475e-09
6.76034e-09
7.0571e-09
7.36453e-09
7.68161e-09
8.00694e-09
8.33866e-09
8.67444e-09
9.0113e-09
9.34557e-09
9.6728e-09
9.98763e-09
1.02838e-08
1.0554e-08
1.07899e-08
1.09821e-08
1.11194e-08
1.11867e-08
1.11907e-08
1.11117e-08
1.09398e-08
1.0669e-08
1.02965e-08
9.82293e-09
9.25329e-09
8.59689e-09
7.86753e-09
7.08284e-09
6.26331e-09
5.43075e-09
4.60675e-09
3.81098e-09
3.05993e-09
2.36611e-09
1.73814e-09
1.18176e-09
7.02362e-10
3.10584e-10
3.88982e-11
3.17845e-11
2.7219e-10
6.12239e-10
1.01173e-09
1.44949e-09
1.91081e-09
2.38428e-09
2.86068e-09
3.33254e-09
3.794e-09
4.24065e-09
4.66953e-09
5.07902e-09
5.46875e-09
5.83948e-09
6.19292e-09
6.53152e-09
6.85836e-09
7.17685e-09
7.49064e-09
7.80343e-09
8.11887e-09
8.44044e-09
8.77143e-09
9.11484e-09
9.47343e-09
9.84968e-09
1.02458e-08
1.06636e-08
1.1105e-08
1.15712e-08
1.20636e-08
1.2583e-08
1.31302e-08
1.37056e-08
1.43093e-08
1.49411e-08
1.56004e-08
1.62861e-08
1.69964e-08
1.77289e-08
1.84804e-08
1.92466e-08
2.0022e-08
2.07996e-08
2.15711e-08
2.2326e-08
2.30519e-08
2.37344e-08
2.43565e-08
2.48992e-08
2.53408e-08
2.56554e-08
2.58065e-08
2.58151e-08
2.56311e-08
2.52325e-08
2.46057e-08
2.37442e-08
2.26498e-08
2.13337e-08
1.98176e-08
1.81334e-08
1.63218e-08
1.44301e-08
1.2509e-08
1.06081e-08
8.77292e-09
7.04145e-09
5.44247e-09
3.99564e-09
2.71393e-09
1.60959e-09
7.07175e-10
8.23745e-11
5.19575e-11
4.56005e-10
1.03066e-09
1.70666e-09
2.44757e-09
3.22833e-09
4.02953e-09
4.83555e-09
5.63374e-09
6.41415e-09
7.16935e-09
7.89431e-09
8.58633e-09
9.2448e-09
9.87104e-09
1.0468e-08
1.10398e-08
1.15917e-08
1.21296e-08
1.26596e-08
1.31881e-08
1.37211e-08
1.42647e-08
1.48243e-08
1.54052e-08
1.60119e-08
1.66486e-08
1.7319e-08
1.80265e-08
1.87738e-08
1.95634e-08
2.03973e-08
2.12772e-08
2.22041e-08
2.31788e-08
2.42015e-08
2.52718e-08
2.63884e-08
2.75496e-08
2.87522e-08
2.99921e-08
3.12636e-08
3.25595e-08
3.38704e-08
3.51845e-08
3.64873e-08
3.77614e-08
3.89859e-08
4.01361e-08
4.11838e-08
4.20968e-08
4.28392e-08
4.33662e-08
4.36143e-08
4.36273e-08
4.33138e-08
4.26371e-08
4.15749e-08
4.01163e-08
3.82638e-08
3.60362e-08
3.34702e-08
3.06195e-08
2.75535e-08
2.43526e-08
2.11025e-08
1.7888e-08
1.47862e-08
1.18613e-08
9.16192e-09
6.72085e-09
4.55956e-09
2.69846e-09
1.17982e-09
1.34081e-10
7.48585e-11
6.63573e-10
1.50501e-09
2.49661e-09
3.584e-09
4.72996e-09
5.90584e-09
7.08859e-09
8.25959e-09
9.4042e-09
1.05115e-08
1.15741e-08
1.25881e-08
1.35527e-08
1.44698e-08
1.53437e-08
1.61809e-08
1.69889e-08
1.77765e-08
1.85527e-08
1.93268e-08
2.0108e-08
2.09049e-08
2.17257e-08
2.25779e-08
2.34683e-08
2.44031e-08
2.53877e-08
2.64268e-08
2.75247e-08
2.86849e-08
2.99102e-08
3.1203e-08
3.25649e-08
3.39969e-08
3.5499e-08
3.70706e-08
3.87098e-08
4.04135e-08
4.21772e-08
4.39945e-08
4.58569e-08
4.77536e-08
4.96707e-08
5.15908e-08
5.34928e-08
5.53511e-08
5.71354e-08
5.88099e-08
6.03338e-08
6.16607e-08
6.27391e-08
6.35019e-08
6.3855e-08
6.38732e-08
6.34128e-08
6.24213e-08
6.08663e-08
5.87309e-08
5.6018e-08
5.27543e-08
4.89926e-08
4.48119e-08
4.03139e-08
3.56176e-08
3.08497e-08
2.61358e-08
2.15899e-08
1.73067e-08
1.33572e-08
9.78894e-09
6.63261e-09
3.91765e-09
1.70677e-09
1.92022e-10
1.00046e-10
8.91054e-10
2.02595e-09
3.36581e-09
4.83616e-09
6.38604e-09
7.97634e-09
9.57567e-09
1.11587e-08
1.27056e-08
1.42016e-08
1.56366e-08
1.70054e-08
1.8307e-08
1.95442e-08
2.07229e-08
2.18518e-08
2.29415e-08
2.40037e-08
2.5051e-08
2.60958e-08
2.71506e-08
2.82271e-08
2.93365e-08
3.04888e-08
3.16932e-08
3.29581e-08
3.42907e-08
3.56974e-08
3.71837e-08
3.87543e-08
4.04131e-08
4.21629e-08
4.40058e-08
4.59428e-08
4.79738e-08
5.00975e-08
5.2311e-08
5.46099e-08
5.69875e-08
5.9435e-08
6.19407e-08
6.44894e-08
6.70625e-08
6.96365e-08
7.21832e-08
7.46685e-08
7.70523e-08
7.92874e-08
8.13198e-08
8.30885e-08
8.4526e-08
8.55404e-08
8.60055e-08
8.60316e-08
8.54158e-08
8.4087e-08
8.20009e-08
7.91332e-08
7.54855e-08
7.10917e-08
6.60215e-08
6.03808e-08
5.43075e-08
4.79634e-08
4.15221e-08
3.51553e-08
2.90189e-08
2.32422e-08
1.79214e-08
1.312e-08
8.8782e-09
5.2349e-09
2.27457e-09
2.54687e-10
1.27236e-10
1.13613e-09
2.58777e-09
4.30444e-09
6.18977e-09
8.17766e-09
1.02174e-08
1.22685e-08
1.42982e-08
1.62808e-08
1.81973e-08
2.0035e-08
2.17871e-08
2.34524e-08
2.50346e-08
2.65417e-08
2.7985e-08
2.93781e-08
3.07363e-08
3.20758e-08
3.34129e-08
3.47634e-08
3.61425e-08
3.75643e-08
3.90419e-08
4.05869e-08
4.22098e-08
4.39199e-08
4.57253e-08
4.76328e-08
4.96482e-08
5.17761e-08
5.402e-08
5.6382e-08
5.88629e-08
6.14623e-08
6.41777e-08
6.7005e-08
6.99378e-08
7.29672e-08
7.60811e-08
7.92643e-08
8.24972e-08
8.5756e-08
8.9011e-08
9.2227e-08
9.53615e-08
9.83647e-08
1.01178e-07
1.03736e-07
1.05961e-07
1.07771e-07
1.09049e-07
1.09634e-07
1.09674e-07
1.08903e-07
1.07228e-07
1.04591e-07
1.00957e-07
9.63252e-08
9.07347e-08
8.4272e-08
7.70708e-08
6.93081e-08
6.11924e-08
5.29491e-08
4.48015e-08
3.69525e-08
2.95698e-08
2.27776e-08
1.66567e-08
1.12572e-08
6.62745e-09
2.87377e-09
3.20987e-10
1.56246e-10
1.39732e-09
3.1868e-09
5.30605e-09
7.63533e-09
1.00921e-08
1.26132e-08
1.51479e-08
1.76555e-08
2.0104e-08
2.24698e-08
2.47371e-08
2.68976e-08
2.895e-08
3.08992e-08
3.27553e-08
3.45325e-08
3.6248e-08
3.79208e-08
3.95712e-08
4.12194e-08
4.2885e-08
4.45868e-08
4.63422e-08
4.81672e-08
5.00761e-08
5.20817e-08
5.41952e-08
5.64262e-08
5.87829e-08
6.1272e-08
6.38987e-08
6.66667e-08
6.9578e-08
7.26329e-08
7.58299e-08
7.91653e-08
8.26331e-08
8.62245e-08
8.99277e-08
9.37276e-08
9.76047e-08
1.01535e-07
1.0549e-07
1.09434e-07
1.13324e-07
1.17112e-07
1.20737e-07
1.24132e-07
1.27218e-07
1.29905e-07
1.32093e-07
1.33643e-07
1.34356e-07
1.34419e-07
1.33502e-07
1.31483e-07
1.28289e-07
1.23874e-07
1.1823e-07
1.11401e-07
1.03488e-07
9.46545e-08
8.51168e-08
7.5134e-08
6.49869e-08
5.49551e-08
4.52933e-08
3.62118e-08
2.78657e-08
2.0355e-08
1.37399e-08
8.07819e-09
3.49724e-09
3.90079e-10
1.86958e-10
1.67361e-09
3.82058e-09
6.36631e-09
9.16639e-09
1.21208e-08
1.51527e-08
1.82006e-08
2.1215e-08
2.41573e-08
2.69986e-08
2.97199e-08
3.23115e-08
3.4772e-08
3.71076e-08
3.93308e-08
4.1459e-08
4.35134e-08
4.55171e-08
4.74946e-08
4.94704e-08
5.14682e-08
5.35104e-08
5.5618e-08
5.78099e-08
6.01031e-08
6.25126e-08
6.50514e-08
6.77307e-08
7.05598e-08
7.35459e-08
7.66947e-08
8.00095e-08
8.3492e-08
8.71414e-08
9.09548e-08
9.49266e-08
9.90484e-08
1.03309e-07
1.07693e-07
1.12182e-07
1.16753e-07
1.21377e-07
1.2602e-07
1.30643e-07
1.35197e-07
1.39626e-07
1.43862e-07
1.47829e-07
1.51436e-07
1.54581e-07
1.57148e-07
1.58976e-07
1.59827e-07
1.59922e-07
1.5887e-07
1.56515e-07
1.5277e-07
1.47572e-07
1.40906e-07
1.32817e-07
1.23423e-07
1.12913e-07
1.01544e-07
8.96279e-08
7.75033e-08
6.55097e-08
5.39574e-08
4.31034e-08
3.31371e-08
2.41798e-08
1.6303e-08
9.57374e-09
4.13938e-09
4.61313e-10
2.19294e-10
1.96434e-09
4.4875e-09
7.48234e-09
1.07786e-08
1.42576e-08
1.78283e-08
2.14172e-08
2.49657e-08
2.84275e-08
3.17686e-08
3.49665e-08
3.80098e-08
4.08972e-08
4.36364e-08
4.62427e-08
4.87369e-08
5.11445e-08
5.34931e-08
5.58119e-08
5.81296e-08
6.04744e-08
6.28725e-08
6.53482e-08
6.79236e-08
7.06183e-08
7.34494e-08
7.64317e-08
7.95775e-08
8.28968e-08
8.63974e-08
9.00846e-08
9.39614e-08
9.80283e-08
1.02283e-07
1.06721e-07
1.11334e-07
1.1611e-07
1.21037e-07
1.26094e-07
1.31261e-07
1.3651e-07
1.41809e-07
1.4712e-07
1.52399e-07
1.57593e-07
1.6264e-07
1.67466e-07
1.71987e-07
1.76103e-07
1.79696e-07
1.82637e-07
1.84744e-07
1.85737e-07
1.85872e-07
1.84696e-07
1.82016e-07
1.77727e-07
1.71753e-07
1.64069e-07
1.5472e-07
1.43835e-07
1.31631e-07
1.18406e-07
1.04521e-07
9.03745e-08
7.6368e-08
6.28703e-08
5.01889e-08
3.85512e-08
2.81027e-08
1.89279e-08
1.11034e-08
4.7957e-09
5.34174e-10
2.53198e-10
2.26907e-09
5.1865e-09
8.65221e-09
1.24689e-08
1.64986e-08
2.06346e-08
2.47912e-08
2.88995e-08
3.29054e-08
3.67691e-08
4.04643e-08
4.39781e-08
4.73093e-08
5.04673e-08
5.34704e-08
5.63436e-08
5.91167e-08
6.18223e-08
6.44942e-08
6.71661e-08
6.98703e-08
7.26371e-08
7.54943e-08
7.8467e-08
8.15771e-08
8.48439e-08
8.82834e-08
9.19089e-08
9.5731e-08
9.97573e-08
1.03993e-07
1.08439e-07
1.13095e-07
1.17956e-07
1.23016e-07
1.28263e-07
1.33684e-07
1.39262e-07
1.44973e-07
1.50794e-07
1.56694e-07
1.62638e-07
1.68585e-07
1.74488e-07
1.8029e-07
1.85926e-07
1.91316e-07
1.96368e-07
2.00973e-07
2.05e-07
2.08304e-07
2.10684e-07
2.1182e-07
2.11996e-07
2.107e-07
2.07702e-07
2.0288e-07
1.96141e-07
1.87451e-07
1.76856e-07
1.64494e-07
1.50606e-07
1.35527e-07
1.19668e-07
1.03485e-07
8.7441e-08
7.19657e-08
5.74203e-08
4.40739e-08
3.21004e-08
2.15995e-08
1.26587e-08
5.46257e-09
6.08251e-10
2.88638e-10
2.5875e-09
5.91687e-09
9.87468e-09
1.42355e-08
1.8841e-08
2.35682e-08
2.83181e-08
3.30109e-08
3.75841e-08
4.19916e-08
4.62034e-08
5.02047e-08
5.39947e-08
5.75849e-08
6.09969e-08
6.42599e-08
6.74087e-08
7.04811e-08
7.35159e-08
7.65518e-08
7.96256e-08
8.27715e-08
8.60207e-08
8.94013e-08
9.29374e-08
9.66499e-08
1.00556e-07
1.0467e-07
1.09002e-07
1.13559e-07
1.18345e-07
1.2336e-07
1.28601e-07
1.34062e-07
1.39733e-07
1.45599e-07
1.51644e-07
1.57847e-07
1.64184e-07
1.70627e-07
1.77143e-07
1.83696e-07
1.90242e-07
1.96732e-07
2.03108e-07
2.093e-07
2.15224e-07
2.20781e-07
2.25852e-07
2.30294e-07
2.33945e-07
2.36583e-07
2.37849e-07
2.38062e-07
2.36642e-07
2.33325e-07
2.27974e-07
2.20484e-07
2.1081e-07
1.98996e-07
1.85188e-07
1.6965e-07
1.52748e-07
1.34938e-07
1.16731e-07
9.86497e-08
8.11857e-08
6.47563e-08
4.9677e-08
3.61539e-08
2.43058e-08
1.42328e-08
6.13709e-09
6.83215e-10
3.25593e-10
2.91948e-09
6.67823e-09
1.1149e-08
1.60772e-08
2.1283e-08
2.66266e-08
3.19946e-08
3.72958e-08
4.24584e-08
4.74299e-08
5.21759e-08
5.66802e-08
6.09423e-08
6.4976e-08
6.88067e-08
7.24683e-08
7.6001e-08
7.94478e-08
8.28532e-08
8.62607e-08
8.97117e-08
9.32444e-08
9.68934e-08
1.00689e-07
1.04658e-07
1.08823e-07
1.13201e-07
1.17807e-07
1.2265e-07
1.27737e-07
1.3307e-07
1.38647e-07
1.44463e-07
1.50509e-07
1.56771e-07
1.63233e-07
1.69874e-07
1.76672e-07
1.836e-07
1.90628e-07
1.97722e-07
2.04845e-07
2.11951e-07
2.18992e-07
2.25906e-07
2.32621e-07
2.3905e-07
2.45084e-07
2.50596e-07
2.55429e-07
2.59402e-07
2.62272e-07
2.63647e-07
2.63881e-07
2.62321e-07
2.58677e-07
2.528e-07
2.44571e-07
2.33939e-07
2.20943e-07
2.05738e-07
1.88602e-07
1.6993e-07
1.50217e-07
1.30022e-07
1.09926e-07
9.04814e-08
7.21632e-08
5.53376e-08
4.02483e-08
2.70375e-08
1.58203e-08
6.81698e-09
7.58808e-10
3.64051e-10
3.26491e-09
7.47036e-09
1.24748e-08
1.79932e-08
2.38238e-08
2.98083e-08
3.58188e-08
4.17514e-08
4.75246e-08
5.30787e-08
5.83753e-08
6.33962e-08
6.81417e-08
7.26284e-08
7.68856e-08
8.09526e-08
8.4875e-08
8.87019e-08
9.24832e-08
9.62675e-08
1.00101e-07
1.04025e-07
1.08079e-07
1.12295e-07
1.167e-07
1.21319e-07
1.2617e-07
1.31267e-07
1.36618e-07
1.42229e-07
1.481e-07
1.54226e-07
1.60601e-07
1.6721e-07
1.74039e-07
1.81068e-07
1.88275e-07
1.95633e-07
2.03116e-07
2.10691e-07
2.18325e-07
2.25979e-07
2.3361e-07
2.41167e-07
2.48588e-07
2.55796e-07
2.627e-07
2.69184e-07
2.75108e-07
2.80302e-07
2.84569e-07
2.8763e-07
2.89083e-07
2.89316e-07
2.87587e-07
2.83599e-07
2.77192e-07
2.68237e-07
2.56674e-07
2.42542e-07
2.25998e-07
2.07333e-07
1.86962e-07
1.65412e-07
1.43286e-07
1.21216e-07
9.98134e-08
7.9614e-08
6.1038e-08
4.43723e-08
2.97876e-08
1.74172e-08
7.5005e-09
8.34834e-10
4.04011e-10
3.62376e-09
8.2932e-09
1.38519e-08
1.99834e-08
2.64626e-08
3.31126e-08
3.97893e-08
4.63755e-08
5.27795e-08
5.89338e-08
6.47956e-08
7.03451e-08
7.55836e-08
8.05306e-08
8.52201e-08
8.96969e-08
9.40128e-08
9.8223e-08
1.02383e-07
1.06547e-07
1.10766e-07
1.15085e-07
1.19545e-07
1.24181e-07
1.29024e-07
1.34096e-07
1.39417e-07
1.44999e-07
1.50852e-07
1.56976e-07
1.63371e-07
1.7003e-07
1.76942e-07
1.84091e-07
1.9146e-07
1.99026e-07
2.06764e-07
2.14649e-07
2.2265e-07
2.30737e-07
2.38877e-07
2.47031e-07
2.55156e-07
2.632e-07
2.71101e-07
2.78777e-07
2.8613e-07
2.93035e-07
2.9934e-07
3.04861e-07
3.09384e-07
3.12588e-07
3.14077e-07
3.1428e-07
3.12342e-07
3.07989e-07
3.01043e-07
2.91369e-07
2.78904e-07
2.63683e-07
2.45866e-07
2.25748e-07
2.0376e-07
1.80454e-07
1.56466e-07
1.32476e-07
1.09152e-07
8.70889e-08
6.67656e-08
4.8518e-08
3.25512e-08
1.90209e-08
8.18643e-09
9.11154e-10
4.45472e-10
3.99606e-09
9.14677e-09
1.52804e-08
2.20477e-08
2.91995e-08
3.6539e-08
4.39051e-08
5.11666e-08
5.82204e-08
6.49912e-08
7.14313e-08
7.75196e-08
8.32584e-08
8.86709e-08
9.37962e-08
9.86852e-08
1.03396e-07
1.07991e-07
1.12531e-07
1.17075e-07
1.21679e-07
1.26392e-07
1.31259e-07
1.36315e-07
1.41591e-07
1.47113e-07
1.52898e-07
1.58958e-07
1.653e-07
1.71924e-07
1.78826e-07
1.85998e-07
1.93424e-07
2.01088e-07
2.08968e-07
2.17041e-07
2.2528e-07
2.33659e-07
2.42149e-07
2.50719e-07
2.59337e-07
2.67966e-07
2.76562e-07
2.85073e-07
2.93432e-07
3.01555e-07
3.09333e-07
3.16632e-07
3.23286e-07
3.29097e-07
3.33834e-07
3.37126e-07
3.38605e-07
3.38741e-07
3.3655e-07
3.31801e-07
3.24302e-07
3.13915e-07
3.00573e-07
2.84309e-07
2.65282e-07
2.4379e-07
2.20273e-07
1.95296e-07
1.69525e-07
1.43679e-07
1.18477e-07
9.45746e-08
7.25124e-08
5.26807e-08
3.53255e-08
2.06296e-08
8.87399e-09
9.8768e-10
4.88439e-10
4.38184e-09
1.00312e-08
1.67603e-08
2.41862e-08
3.20344e-08
4.00872e-08
4.81656e-08
5.61231e-08
6.38448e-08
7.12468e-08
7.82768e-08
8.49119e-08
9.11565e-08
9.70375e-08
1.026e-07
1.07901e-07
1.13007e-07
1.17984e-07
1.22903e-07
1.27826e-07
1.32814e-07
1.37919e-07
1.43189e-07
1.48661e-07
1.54367e-07
1.60331e-07
1.66571e-07
1.73098e-07
1.79917e-07
1.87025e-07
1.94417e-07
2.0208e-07
2.09998e-07
2.18151e-07
2.26516e-07
2.35069e-07
2.43784e-07
2.52632e-07
2.61587e-07
2.70619e-07
2.79697e-07
2.88784e-07
2.97838e-07
3.06803e-07
3.15608e-07
3.24161e-07
3.32344e-07
3.40011e-07
3.46982e-07
3.53042e-07
3.57949e-07
3.61275e-07
3.62701e-07
3.62721e-07
3.60229e-07
3.55049e-07
3.46982e-07
3.3588e-07
3.21679e-07
3.04411e-07
2.84232e-07
2.6144e-07
2.36476e-07
2.09915e-07
1.82442e-07
1.54807e-07
1.27776e-07
1.02064e-07
7.82744e-08
5.68586e-08
3.81095e-08
2.22427e-08
9.56282e-09
1.06437e-09
5.32918e-10
4.78117e-09
1.09465e-08
1.8292e-08
2.63992e-08
3.49675e-08
4.37572e-08
5.25702e-08
6.12438e-08
6.96502e-08
7.76968e-08
8.53261e-08
9.25143e-08
9.92678e-08
1.05618e-07
1.11617e-07
1.17328e-07
1.22825e-07
1.28183e-07
1.33477e-07
1.38775e-07
1.44143e-07
1.49637e-07
1.55305e-07
1.61187e-07
1.67316e-07
1.73714e-07
1.804e-07
1.87382e-07
1.94663e-07
2.0224e-07
2.10103e-07
2.18237e-07
2.26626e-07
2.35247e-07
2.44076e-07
2.53088e-07
2.62257e-07
2.71558e-07
2.80963e-07
2.90446e-07
2.99976e-07
3.09518e-07
3.19025e-07
3.2844e-07
3.37684e-07
3.46658e-07
3.55231e-07
3.63243e-07
3.705e-07
3.76772e-07
3.81801e-07
3.85105e-07
3.86462e-07
3.86292e-07
3.83456e-07
3.77809e-07
3.6915e-07
3.57325e-07
3.42274e-07
3.24029e-07
3.02743e-07
2.78712e-07
2.52375e-07
2.2431e-07
1.95211e-07
1.65855e-07
1.37046e-07
1.09555e-07
8.40514e-08
6.10521e-08
4.09038e-08
2.38604e-08
1.02529e-08
1.14121e-09
5.78917e-10
5.19409e-09
1.1893e-08
1.98755e-08
2.86868e-08
3.79989e-08
4.75488e-08
5.71181e-08
6.65269e-08
7.56337e-08
8.43364e-08
9.25728e-08
1.00318e-07
1.07581e-07
1.144e-07
1.20831e-07
1.26949e-07
1.32833e-07
1.38566e-07
1.4423e-07
1.49899e-07
1.55642e-07
1.61518e-07
1.67579e-07
1.73865e-07
1.80408e-07
1.87232e-07
1.94352e-07
2.01777e-07
2.09507e-07
2.17537e-07
2.25854e-07
2.34444e-07
2.43285e-07
2.52357e-07
2.61634e-07
2.71092e-07
2.80706e-07
2.90451e-07
3.00304e-07
3.10238e-07
3.20224e-07
3.30224e-07
3.40191e-07
3.5006e-07
3.59747e-07
3.69138e-07
3.78091e-07
3.86431e-07
3.93948e-07
4.00397e-07
4.05507e-07
4.08742e-07
4.10008e-07
4.09583e-07
4.06362e-07
4.00211e-07
3.90931e-07
3.78365e-07
3.62459e-07
3.43247e-07
3.20882e-07
2.95654e-07
2.68001e-07
2.38497e-07
2.07841e-07
1.76825e-07
1.46287e-07
1.17049e-07
8.98461e-08
6.5264e-08
4.37104e-08
2.54837e-08
1.09445e-08
1.21825e-09
6.26442e-10
5.62069e-09
1.28707e-08
2.1511e-08
3.10493e-08
4.11287e-08
5.14619e-08
6.18086e-08
7.19707e-08
8.1792e-08
9.11609e-08
1.0001e-07
1.08314e-07
1.16086e-07
1.23368e-07
1.30228e-07
1.36745e-07
1.4301e-07
1.49112e-07
1.55139e-07
1.61173e-07
1.67285e-07
1.73538e-07
1.79984e-07
1.86666e-07
1.93616e-07
2.00856e-07
2.08401e-07
2.16258e-07
2.24425e-07
2.32894e-07
2.41654e-07
2.50685e-07
2.59969e-07
2.69481e-07
2.79198e-07
2.89097e-07
2.99155e-07
3.09349e-07
3.19657e-07
3.30054e-07
3.4051e-07
3.50985e-07
3.61428e-07
3.71766e-07
3.81904e-07
3.91718e-07
4.01049e-07
4.09706e-07
4.17464e-07
4.24064e-07
4.29222e-07
4.32351e-07
4.33503e-07
4.32771e-07
4.29124e-07
4.2243e-07
4.12495e-07
3.9916e-07
3.82379e-07
3.6219e-07
3.38748e-07
3.12343e-07
2.83407e-07
2.52511e-07
2.20352e-07
1.8773e-07
1.55508e-07
1.24553e-07
9.56632e-08
6.94982e-08
4.6532e-08
2.71141e-08
1.16383e-08
1.29553e-09
6.755e-10
6.061e-09
1.38797e-08
2.31989e-08
3.34868e-08
4.43569e-08
5.54959e-08
6.66406e-08
7.75728e-08
8.81214e-08
9.81644e-08
1.0763e-07
1.16492e-07
1.24769e-07
1.3251e-07
1.3979e-07
1.46699e-07
1.53336e-07
1.598e-07
1.66183e-07
1.72574e-07
1.79048e-07
1.85671e-07
1.92497e-07
1.99568e-07
2.06917e-07
2.14566e-07
2.22527e-07
2.30807e-07
2.39401e-07
2.48303e-07
2.57496e-07
2.66963e-07
2.76683e-07
2.86634e-07
2.96793e-07
3.0714e-07
3.17652e-07
3.28309e-07
3.39092e-07
3.49974e-07
3.60925e-07
3.71902e-07
3.82846e-07
3.93676e-07
4.04285e-07
4.14533e-07
4.24247e-07
4.3322e-07
4.4121e-07
4.47945e-07
4.53129e-07
4.56125e-07
4.57144e-07
4.56066e-07
4.51958e-07
4.44683e-07
4.34052e-07
4.19909e-07
4.02216e-07
3.81017e-07
3.56474e-07
3.2888e-07
2.98667e-07
2.66401e-07
2.32774e-07
1.98587e-07
1.64718e-07
1.32073e-07
1.01509e-07
7.37598e-08
4.93723e-08
2.87535e-08
1.23348e-08
1.37313e-09
7.26094e-10
6.51507e-09
1.49202e-08
2.49391e-08
3.59994e-08
4.76834e-08
5.96503e-08
7.16124e-08
8.33306e-08
9.46175e-08
1.05341e-07
1.15423e-07
1.24842e-07
1.33617e-07
1.41809e-07
1.495e-07
1.56792e-07
1.63793e-07
1.70609e-07
1.77341e-07
1.84082e-07
1.90912e-07
1.97899e-07
2.05098e-07
2.12552e-07
2.20294e-07
2.28346e-07
2.36718e-07
2.45415e-07
2.54433e-07
2.63762e-07
2.73387e-07
2.83289e-07
2.9345e-07
3.03847e-07
3.1446e-07
3.2527e-07
3.36257e-07
3.47405e-07
3.58692e-07
3.70093e-07
3.81575e-07
3.9309e-07
4.0457e-07
4.15923e-07
4.27029e-07
4.37733e-07
4.47845e-07
4.57143e-07
4.65367e-07
4.72233e-07
4.77433e-07
4.80283e-07
4.81157e-07
4.79705e-07
4.75106e-07
4.67214e-07
4.55843e-07
4.40841e-07
4.22179e-07
3.99914e-07
3.74217e-07
3.45392e-07
3.13875e-07
2.80231e-07
2.45147e-07
2.09418e-07
1.73931e-07
1.39618e-07
1.0739e-07
7.80542e-08
5.22352e-08
3.04042e-08
1.30349e-08
1.45114e-09
7.78229e-10
6.98293e-09
1.59921e-08
2.67317e-08
3.85871e-08
5.11077e-08
6.39241e-08
7.67223e-08
8.92407e-08
1.01275e-07
1.12682e-07
1.23381e-07
1.3335e-07
1.42617e-07
1.51249e-07
1.59341e-07
1.67006e-07
1.7436e-07
1.81519e-07
1.88592e-07
1.95677e-07
2.02856e-07
2.10202e-07
2.1777e-07
2.25604e-07
2.33737e-07
2.42188e-07
2.50969e-07
2.60083e-07
2.69524e-07
2.79283e-07
2.89345e-07
2.99692e-07
3.10305e-07
3.21165e-07
3.32254e-07
3.43554e-07
3.55049e-07
3.66723e-07
3.78556e-07
3.9052e-07
4.02578e-07
4.14675e-07
4.26733e-07
4.38649e-07
4.50287e-07
4.61477e-07
4.72013e-07
4.81655e-07
4.90129e-07
4.97136e-07
5.02349e-07
5.05055e-07
5.05781e-07
5.03942e-07
4.98828e-07
4.90285e-07
4.78126e-07
4.62206e-07
4.42503e-07
4.19089e-07
3.92156e-07
3.62023e-07
3.2914e-07
2.94077e-07
2.57519e-07
2.20253e-07
1.83163e-07
1.47197e-07
1.13313e-07
8.23869e-08
5.51246e-08
3.20684e-08
1.37395e-08
1.52966e-09
8.31905e-10
7.46458e-09
1.70956e-08
2.85766e-08
4.12495e-08
5.46293e-08
6.8316e-08
8.19677e-08
9.52991e-08
1.08088e-07
1.20181e-07
1.31493e-07
1.42005e-07
1.51753e-07
1.60814e-07
1.69295e-07
1.77321e-07
1.85018e-07
1.92512e-07
1.99919e-07
2.07341e-07
2.14866e-07
2.22568e-07
2.30503e-07
2.38716e-07
2.47239e-07
2.56091e-07
2.65284e-07
2.74819e-07
2.84691e-07
2.9489e-07
3.05402e-07
3.16211e-07
3.27298e-07
3.38648e-07
3.50244e-07
3.62072e-07
3.74117e-07
3.86364e-07
3.98792e-07
4.11371e-07
4.24058e-07
4.36789e-07
4.49476e-07
4.62002e-07
4.74215e-07
4.8593e-07
4.96923e-07
5.0694e-07
5.15693e-07
5.22867e-07
5.28097e-07
5.3068e-07
5.31263e-07
5.29034e-07
5.23392e-07
5.14166e-07
5.01171e-07
4.84264e-07
4.63432e-07
4.38768e-07
4.10486e-07
3.78934e-07
3.44586e-07
3.08028e-07
2.69947e-07
2.31123e-07
1.92429e-07
1.5482e-07
1.19284e-07
8.67626e-08
5.80442e-08
3.37482e-08
1.44494e-08
1.60876e-09
8.87119e-10
7.96e-09
1.82304e-08
3.04736e-08
4.39863e-08
5.82473e-08
7.28243e-08
8.73456e-08
1.01501e-07
1.1505e-07
1.27827e-07
1.39747e-07
1.50793e-07
1.61009e-07
1.70486e-07
1.79344e-07
1.87719e-07
1.95749e-07
2.0357e-07
2.11305e-07
2.19061e-07
2.2693e-07
2.34986e-07
2.4329e-07
2.51885e-07
2.60803e-07
2.70063e-07
2.79676e-07
2.89643e-07
2.9996e-07
3.10617e-07
3.216e-07
3.32896e-07
3.44489e-07
3.56364e-07
3.6851e-07
3.80912e-07
3.93559e-07
4.06435e-07
4.19516e-07
4.3277e-07
4.46144e-07
4.59568e-07
4.7294e-07
4.86128e-07
4.98967e-07
5.11252e-07
5.22748e-07
5.33181e-07
5.42252e-07
5.49633e-07
5.54894e-07
5.57389e-07
5.57842e-07
5.55233e-07
5.49057e-07
5.39125e-07
5.25245e-07
5.07278e-07
4.8522e-07
4.59185e-07
4.29417e-07
3.96302e-07
3.60352e-07
3.22183e-07
2.82496e-07
2.42065e-07
2.0175e-07
1.62494e-07
1.25307e-07
9.1185e-08
6.09969e-08
3.54456e-08
1.51653e-08
1.68853e-09
9.43868e-10
8.46914e-09
1.93965e-08
3.24226e-08
4.67968e-08
6.19605e-08
7.74468e-08
9.28526e-08
1.07841e-07
1.22153e-07
1.35612e-07
1.48131e-07
1.59699e-07
1.70371e-07
1.8025e-07
1.89471e-07
1.98183e-07
2.06538e-07
2.14679e-07
2.22737e-07
2.30825e-07
2.39038e-07
2.47453e-07
2.5613e-07
2.65115e-07
2.74437e-07
2.84117e-07
2.94165e-07
3.04583e-07
3.15366e-07
3.26506e-07
3.37992e-07
3.4981e-07
3.61948e-07
3.74395e-07
3.8714e-07
4.00173e-07
4.13481e-07
4.27047e-07
4.40846e-07
4.54839e-07
4.68966e-07
4.83145e-07
4.97263e-07
5.11172e-07
5.24691e-07
5.37601e-07
5.49649e-07
5.60549e-07
5.69985e-07
5.7762e-07
5.82954e-07
5.854e-07
5.85743e-07
5.82775e-07
5.76068e-07
5.65412e-07
5.50605e-07
5.31505e-07
5.08117e-07
4.80576e-07
4.49163e-07
4.14312e-07
3.76588e-07
3.36654e-07
2.95239e-07
2.53123e-07
2.11145e-07
1.7023e-07
1.31387e-07
9.56568e-08
6.3985e-08
3.71619e-08
1.58877e-08
1.76902e-09
1.00214e-09
8.99193e-09
2.05938e-08
3.4423e-08
4.96804e-08
6.57674e-08
8.2181e-08
9.84845e-08
1.14313e-07
1.29388e-07
1.43524e-07
1.56632e-07
1.68708e-07
1.7982e-07
1.90087e-07
1.99658e-07
2.08697e-07
2.17367e-07
2.25823e-07
2.34203e-07
2.42625e-07
2.51187e-07
2.59968e-07
2.69029e-07
2.78415e-07
2.88158e-07
2.98277e-07
3.08782e-07
3.19676e-07
3.30955e-07
3.42612e-07
3.54638e-07
3.67023e-07
3.79756e-07
3.92828e-07
4.06231e-07
4.19956e-07
4.33991e-07
4.48316e-07
4.62902e-07
4.77703e-07
4.92651e-07
5.07651e-07
5.22578e-07
5.37269e-07
5.51528e-07
5.65121e-07
5.77778e-07
5.892e-07
5.99057e-07
6.06996e-07
6.12462e-07
6.14904e-07
6.15162e-07
6.11869e-07
6.04644e-07
5.93256e-07
5.77485e-07
5.57184e-07
5.32362e-07
5.03174e-07
4.69942e-07
4.33157e-07
3.93454e-07
3.51563e-07
3.08262e-07
2.64345e-07
2.20638e-07
1.78034e-07
1.37526e-07
1.00179e-07
6.70096e-08
3.8898e-08
1.6617e-08
1.85028e-09
1.06193e-09
9.52828e-09
2.18218e-08
3.64744e-08
5.26359e-08
6.96662e-08
8.70237e-08
1.04236e-07
1.2091e-07
1.36747e-07
1.51551e-07
1.65235e-07
1.77804e-07
1.89341e-07
1.9998e-07
2.09888e-07
2.19244e-07
2.28224e-07
2.36994e-07
2.45697e-07
2.54458e-07
2.63378e-07
2.72537e-07
2.81997e-07
2.91804e-07
3.0199e-07
3.12573e-07
3.23564e-07
3.34967e-07
3.4678e-07
3.58997e-07
3.71611e-07
3.84613e-07
3.97998e-07
4.11757e-07
4.25883e-07
4.40369e-07
4.55201e-07
4.70356e-07
4.85801e-07
5.01481e-07
5.17318e-07
5.33208e-07
5.49008e-07
5.64545e-07
5.79605e-07
5.9394e-07
6.07266e-07
6.19269e-07
6.29605e-07
6.37907e-07
6.43572e-07
6.46064e-07
6.46267e-07
6.42689e-07
6.3497e-07
6.22851e-07
6.06092e-07
5.8453e-07
5.58175e-07
5.27199e-07
4.91966e-07
4.53033e-07
4.11118e-07
3.67042e-07
3.21655e-07
2.75787e-07
2.30256e-07
1.85915e-07
1.43724e-07
1.04751e-07
7.00708e-08
4.06541e-08
1.73533e-08
1.9323e-09
1.12323e-09
1.0078e-08
2.30804e-08
3.8576e-08
5.56622e-08
7.36548e-08
9.19714e-08
1.10103e-07
1.27625e-07
1.44218e-07
1.5968e-07
1.73926e-07
1.86972e-07
1.98916e-07
2.09912e-07
2.20145e-07
2.2981e-07
2.39098e-07
2.48182e-07
2.57214e-07
2.66324e-07
2.75616e-07
2.85171e-07
2.95052e-07
3.05305e-07
3.15962e-07
3.27042e-07
3.38558e-07
3.50511e-07
3.62904e-07
3.75731e-07
3.88987e-07
4.02668e-07
4.16767e-07
4.31279e-07
4.462e-07
4.61519e-07
4.77221e-07
4.93281e-07
5.09656e-07
5.26287e-07
5.43083e-07
5.59927e-07
5.76666e-07
5.9311e-07
6.09032e-07
6.24168e-07
6.38223e-07
6.50866e-07
6.6174e-07
6.70464e-07
6.76403e-07
6.79001e-07
6.79182e-07
6.75367e-07
6.67187e-07
6.54351e-07
6.36592e-07
6.13725e-07
5.85751e-07
5.52854e-07
5.15438e-07
4.74131e-07
4.29752e-07
3.83232e-07
3.35521e-07
2.87513e-07
2.4003e-07
1.93884e-07
1.49982e-07
1.0937e-07
7.31671e-08
4.24298e-08
1.80963e-08
2.01506e-09
1.18601e-09
1.06411e-08
2.43691e-08
4.07272e-08
5.87578e-08
7.77305e-08
9.702e-08
1.16077e-07
1.34447e-07
1.5179e-07
1.67898e-07
1.82689e-07
1.96193e-07
2.08528e-07
2.19867e-07
2.30415e-07
2.40385e-07
2.49979e-07
2.59382e-07
2.68755e-07
2.78229e-07
2.87911e-07
2.97887e-07
3.08217e-07
3.18949e-07
3.30114e-07
3.41732e-07
3.53816e-07
3.6637e-07
3.79395e-07
3.9289e-07
4.06851e-07
4.21275e-07
4.36159e-07
4.51497e-07
4.67285e-07
4.83513e-07
5.00161e-07
5.17198e-07
5.34577e-07
5.52226e-07
5.70048e-07
5.87911e-07
6.05648e-07
6.23057e-07
6.39898e-07
6.55893e-07
6.70731e-07
6.84071e-07
6.95541e-07
7.04744e-07
7.1103e-07
7.13793e-07
7.13988e-07
7.0999e-07
7.0139e-07
6.87864e-07
6.69107e-07
6.44907e-07
6.15246e-07
5.80311e-07
5.40541e-07
4.96636e-07
4.49526e-07
4.00277e-07
3.4997e-07
2.99593e-07
2.49996e-07
2.01953e-07
1.56299e-07
1.14033e-07
7.62959e-08
4.42238e-08
1.88455e-08
2.09851e-09
1.25025e-09
1.12172e-08
2.56874e-08
4.29269e-08
6.19209e-08
8.18906e-08
1.02165e-07
1.22153e-07
1.41369e-07
1.59453e-07
1.7619e-07
1.91508e-07
2.05452e-07
2.18161e-07
2.2983e-07
2.40685e-07
2.50956e-07
2.60861e-07
2.70594e-07
2.80321e-07
2.90181e-07
3.00281e-07
3.10707e-07
3.21522e-07
3.32772e-07
3.44489e-07
3.56694e-07
3.69399e-07
3.8261e-07
3.96329e-07
4.10557e-07
4.25292e-07
4.40531e-07
4.56273e-07
4.72513e-07
4.89245e-07
5.06456e-07
5.24124e-07
5.42211e-07
5.60662e-07
5.79397e-07
5.98305e-07
6.17244e-07
6.36035e-07
6.54462e-07
6.72272e-07
6.89175e-07
7.04847e-07
7.18934e-07
7.31051e-07
7.40786e-07
7.47487e-07
7.50474e-07
7.5072e-07
7.46594e-07
7.37623e-07
7.23443e-07
7.0371e-07
6.7817e-07
6.46777e-07
6.0971e-07
5.67432e-07
5.20715e-07
4.70606e-07
4.18325e-07
3.65119e-07
3.12107e-07
2.60198e-07
2.10137e-07
1.62674e-07
1.18736e-07
7.94533e-08
4.6034e-08
1.96001e-08
2.18255e-09
1.31594e-09
1.18062e-08
2.70349e-08
4.51741e-08
6.51497e-08
8.61316e-08
1.074e-07
1.28323e-07
1.48379e-07
1.67191e-07
1.84541e-07
2.00366e-07
2.14731e-07
2.27797e-07
2.39785e-07
2.50942e-07
2.61517e-07
2.71741e-07
2.81818e-07
2.91922e-07
3.02194e-07
3.12745e-07
3.23659e-07
3.35002e-07
3.46818e-07
3.59139e-07
3.71987e-07
3.85373e-07
3.99306e-07
4.13788e-07
4.2882e-07
4.44401e-07
4.60532e-07
4.77209e-07
4.94427e-07
5.1218e-07
5.30451e-07
5.49211e-07
5.68416e-07
5.88003e-07
6.07882e-07
6.27932e-07
6.47999e-07
6.67891e-07
6.8738e-07
7.062e-07
7.24051e-07
7.40598e-07
7.55473e-07
7.68278e-07
7.78588e-07
7.85764e-07
7.89028e-07
7.89361e-07
7.85162e-07
7.75874e-07
7.61089e-07
7.40416e-07
7.13553e-07
6.80411e-07
6.41146e-07
5.96236e-07
5.46513e-07
4.93143e-07
4.37521e-07
3.81089e-07
3.25141e-07
2.70683e-07
2.18452e-07
1.69108e-07
1.23471e-07
8.2634e-08
4.78576e-08
2.03589e-08
2.26704e-09
1.38304e-09
1.24077e-08
2.84108e-08
4.74676e-08
6.84419e-08
9.04498e-08
1.12721e-07
1.34578e-07
1.55466e-07
1.74991e-07
1.92935e-07
2.09247e-07
2.24013e-07
2.37421e-07
2.49719e-07
2.61176e-07
2.72061e-07
2.82618e-07
2.93061e-07
3.0357e-07
3.14288e-07
3.25329e-07
3.36778e-07
3.48698e-07
3.61135e-07
3.74121e-07
3.87675e-07
4.01811e-07
4.16536e-07
4.31854e-07
4.47767e-07
4.64275e-07
4.81375e-07
4.99067e-07
5.17342e-07
5.36191e-07
5.55594e-07
5.75513e-07
5.959e-07
6.16681e-07
6.37757e-07
6.58995e-07
6.8023e-07
7.01259e-07
7.21843e-07
7.41705e-07
7.60533e-07
7.77982e-07
7.93672e-07
8.07195e-07
8.18112e-07
8.25811e-07
8.29399e-07
8.29852e-07
8.25631e-07
8.1608e-07
8.00746e-07
7.79186e-07
7.51039e-07
7.1616e-07
6.74668e-07
6.27035e-07
5.74143e-07
5.17272e-07
4.58001e-07
3.98002e-07
3.38787e-07
2.81507e-07