/*--------------------------------*- C++ -*----------------------------------*\
  =========                 |
  \\      /  F ield         | OpenFOAM: The Open Source CFD Toolbox
   \\    /   O peration     | Website:  https://openfoam.org
    \\  /    A nd           | Version:  12
     \\/     M anipulation  |
\*---------------------------------------------------------------------------*/
FoamFile
{
    format      ascii;
    class       volScalarField;
    location    "4";
    object      nut;
}
// * * * * * * * * * * * * * * * * * * * * * * * * * * * * * * * * * * * * * //

dimensions      [0 2 -1 0 0 0 0];

internalField   nonuniform List<scalar> 
5625
(
3.92695e-17
2.65431e-16
5.88712e-16
9.69206e-16
1.38645e-15
1.82634e-15
2.27796e-15
2.73249e-15
3.18281e-15
3.62329e-15
4.04975e-15
4.45935e-15
4.85052e-15
5.22292e-15
5.57723e-15
5.91507e-15
6.23878e-15
6.55126e-15
6.85576e-15
7.15575e-15
7.45475e-15
7.75622e-15
8.0635e-15
8.3797e-15
8.7077e-15
9.05012e-15
9.40933e-15
9.78742e-15
1.01862e-14
1.06074e-14
1.10522e-14
1.15219e-14
1.20173e-14
1.25392e-14
1.3088e-14
1.36637e-14
1.42662e-14
1.48949e-14
1.55487e-14
1.6226e-14
1.69245e-14
1.76412e-14
1.83719e-14
1.91116e-14
1.98535e-14
2.05897e-14
2.13103e-14
2.20036e-14
2.26556e-14
2.32502e-14
2.37693e-14
2.41919e-14
2.44934e-14
2.46418e-14
2.4651e-14
2.44778e-14
2.41001e-14
2.35047e-14
2.26852e-14
2.16432e-14
2.03893e-14
1.89442e-14
1.73381e-14
1.56099e-14
1.38048e-14
1.19707e-14
1.01553e-14
8.40195e-15
6.74699e-15
5.21809e-15
3.83432e-15
2.60848e-15
1.5528e-15
6.91796e-16
1.02086e-16
1.18698e-15
3.87444e-14
9.68684e-14
1.63517e-13
2.35915e-13
3.11926e-13
3.89787e-13
4.68033e-13
5.45465e-13
6.21135e-13
6.94331e-13
7.64574e-13
8.31603e-13
8.95362e-13
9.55978e-13
1.01373e-12
1.06903e-12
1.12238e-12
1.17433e-12
1.2255e-12
1.27647e-12
1.32785e-12
1.3802e-12
1.43407e-12
1.48994e-12
1.54825e-12
1.60941e-12
1.67377e-12
1.74165e-12
1.81332e-12
1.88901e-12
1.96891e-12
2.05318e-12
2.14193e-12
2.23523e-12
2.33311e-12
2.43554e-12
2.54243e-12
2.6536e-12
2.76879e-12
2.88763e-12
3.00962e-12
3.1341e-12
3.2602e-12
3.38686e-12
3.51273e-12
3.63618e-12
3.75524e-12
3.86758e-12
3.97049e-12
4.06088e-12
4.1352e-12
4.18926e-12
4.21669e-12
4.22067e-12
4.19332e-12
4.13076e-12
4.03063e-12
3.89173e-12
3.71417e-12
3.4997e-12
3.2518e-12
2.9757e-12
2.67815e-12
2.36704e-12
2.05081e-12
1.7378e-12
1.43562e-12
1.15058e-12
8.87411e-13
6.49219e-13
4.37794e-13
2.54279e-13
1.00653e-13
3.08389e-15
2.5199e-15
2.07291e-13
6.63904e-13
1.19806e-12
1.77087e-12
2.36691e-12
2.97401e-12
3.5817e-12
4.18126e-12
4.76567e-12
5.32966e-12
5.8697e-12
6.38392e-12
6.87202e-12
7.33509e-12
7.7754e-12
8.1962e-12
8.6014e-12
8.99541e-12
9.38286e-12
9.76842e-12
1.01567e-11
1.0552e-11
1.09584e-11
1.13796e-11
1.18191e-11
1.22798e-11
1.27643e-11
1.32751e-11
1.38141e-11
1.43831e-11
1.49834e-11
1.56163e-11
1.62826e-11
1.6983e-11
1.77175e-11
1.84862e-11
1.92884e-11
2.01229e-11
2.09882e-11
2.18817e-11
2.27998e-11
2.37381e-11
2.46906e-11
2.56497e-11
2.66059e-11
2.75473e-11
2.84596e-11
2.93257e-11
3.01254e-11
3.08355e-11
3.14289e-11
3.18759e-11
3.21141e-11
3.21881e-11
3.20228e-11
3.15859e-11
3.08575e-11
2.98257e-11
2.8489e-11
2.68587e-11
2.49609e-11
2.28359e-11
2.05371e-11
1.81276e-11
1.56754e-11
1.32476e-11
1.09052e-11
8.69795e-12
6.66156e-12
4.8169e-12
3.17159e-12
1.72723e-12
5.36423e-13
6.53075e-15
4.11923e-15
4.85752e-13
1.99094e-12
3.95731e-12
6.08741e-12
8.29042e-12
1.0519e-11
1.27369e-11
1.49147e-11
1.70284e-11
1.90603e-11
2.09987e-11
2.28377e-11
2.4577e-11
2.62211e-11
2.7779e-11
2.92626e-11
3.06867e-11
3.20672e-11
3.34209e-11
3.47649e-11
3.61153e-11
3.74878e-11
3.88965e-11
4.03547e-11
4.18739e-11
4.34646e-11
4.5136e-11
4.68961e-11
4.87516e-11
5.07085e-11
5.27717e-11
5.49453e-11
5.72324e-11
5.96353e-11
6.21551e-11
6.4792e-11
6.75449e-11
7.04112e-11
7.33861e-11
7.64627e-11
7.96312e-11
8.28779e-11
8.61848e-11
8.95283e-11
9.28781e-11
9.61961e-11
9.94351e-11
1.02537e-10
1.05433e-10
1.08042e-10
1.1027e-10
1.12025e-10
1.1301e-10
1.13477e-10
1.13096e-10
1.11743e-10
1.09336e-10
1.05822e-10
1.01185e-10
9.54562e-11
8.8725e-11
8.1137e-11
7.28895e-11
6.42184e-11
5.53794e-11
4.66252e-11
3.81829e-11
3.02345e-11
2.29044e-11
1.62565e-11
1.03094e-11
5.12516e-12
1.25174e-12
1.06301e-14
5.93484e-15
8.19074e-13
4.03478e-12
8.88623e-12
1.43701e-11
2.00744e-11
2.58234e-11
3.15132e-11
3.70681e-11
4.24304e-11
4.75582e-11
5.2425e-11
5.70186e-11
6.1341e-11
6.54061e-11
6.92382e-11
7.28696e-11
7.63382e-11
7.96855e-11
8.29543e-11
8.61872e-11
8.94251e-11
9.27063e-11
9.6066e-11
9.9536e-11
1.03145e-10
1.06917e-10
1.10874e-10
1.15036e-10
1.19418e-10
1.24036e-10
1.289e-10
1.3402e-10
1.39406e-10
1.45063e-10
1.50997e-10
1.57209e-10
1.63701e-10
1.70469e-10
1.77506e-10
1.84801e-10
1.92337e-10
2.00086e-10
2.08012e-10
2.16067e-10
2.24183e-10
2.32276e-10
2.40237e-10
2.47931e-10
2.55191e-10
2.61818e-10
2.6759e-10
2.72313e-10
2.7505e-10
2.7667e-10
2.76197e-10
2.73306e-10
2.67774e-10
2.59445e-10
2.48259e-10
2.34278e-10
2.17717e-10
1.98942e-10
1.78458e-10
1.56871e-10
1.34843e-10
1.13023e-10
9.19914e-11
7.22041e-11
5.39636e-11
3.74242e-11
2.26968e-11
1.02652e-11
2.09827e-12
1.52238e-14
7.93171e-15
1.1824e-12
6.592e-12
1.59114e-11
2.71289e-11
3.90315e-11
5.106e-11
6.29251e-11
7.44477e-11
8.5505e-11
9.60144e-11
1.05927e-10
1.15224e-10
1.23915e-10
1.32037e-10
1.39642e-10
1.46803e-10
1.53599e-10
1.60118e-10
1.66449e-10
1.7268e-10
1.78892e-10
1.85164e-10
1.91566e-10
1.9816e-10
2.05002e-10
2.12141e-10
2.19618e-10
2.27472e-10
2.35733e-10
2.4443e-10
2.53587e-10
2.63225e-10
2.73362e-10
2.84015e-10
2.95196e-10
3.06917e-10
3.19184e-10
3.31999e-10
3.45359e-10
3.59251e-10
3.7365e-10
3.88518e-10
4.03794e-10
4.19394e-10
4.352e-10
4.51055e-10
4.66752e-10
4.82028e-10
4.96554e-10
5.09925e-10
5.21758e-10
5.31625e-10
5.37412e-10
5.41207e-10
5.40825e-10
5.35591e-10
5.2505e-10
5.08871e-10
4.86921e-10
4.59321e-10
4.26509e-10
3.89228e-10
3.48507e-10
3.05578e-10
2.61776e-10
2.1841e-10
1.76638e-10
1.37365e-10
1.01196e-10
6.84942e-11
3.9725e-11
1.65503e-11
3.00465e-12
2.01919e-14
1.00874e-14
1.56801e-12
9.4839e-12
2.46625e-11
4.42124e-11
6.5595e-11
8.74139e-11
1.08942e-10
1.29769e-10
1.49643e-10
1.6841e-10
1.85989e-10
2.02359e-10
2.17548e-10
2.31632e-10
2.44718e-10
2.56942e-10
2.68456e-10
2.7942e-10
2.89997e-10
3.00342e-10
3.10603e-10
3.20918e-10
3.31407e-10
3.4218e-10
3.53332e-10
3.64947e-10
3.77098e-10
3.89849e-10
4.03255e-10
4.17364e-10
4.32222e-10
4.47868e-10
4.64339e-10
4.81667e-10
4.99884e-10
5.19016e-10
5.39085e-10
5.60107e-10
5.82089e-10
6.05022e-10
6.28879e-10
6.53607e-10
6.79116e-10
7.05272e-10
7.31884e-10
7.58688e-10
7.85332e-10
8.11359e-10
8.36193e-10
8.59114e-10
8.79525e-10
8.96548e-10
9.06481e-10
9.13085e-10
9.1246e-10
9.03417e-10
8.85205e-10
8.57298e-10
8.19516e-10
7.72155e-10
7.15971e-10
6.52265e-10
5.8281e-10
5.09713e-10
4.35237e-10
3.61587e-10
2.90704e-10
2.24106e-10
1.62846e-10
1.07713e-10
6.00308e-11
2.34556e-11
3.94394e-12
2.54483e-14
1.23873e-14
1.97368e-12
1.26024e-11
3.4722e-11
6.50669e-11
9.94426e-11
1.35056e-10
1.70334e-10
2.04402e-10
2.36759e-10
2.67123e-10
2.95361e-10
3.21453e-10
3.45466e-10
3.67541e-10
3.87873e-10
4.06698e-10
4.24275e-10
4.40873e-10
4.56762e-10
4.72198e-10
4.8742e-10
5.02647e-10
5.18074e-10
5.33874e-10
5.50198e-10
5.67177e-10
5.84929e-10
6.03553e-10
6.23139e-10
6.43767e-10
6.6551e-10
6.88437e-10
7.12613e-10
7.38099e-10
7.64952e-10
7.93224e-10
8.22963e-10
8.54206e-10
8.86977e-10
9.21275e-10
9.57068e-10
9.94282e-10
1.03278e-09
1.07237e-09
1.11273e-09
1.15344e-09
1.19396e-09
1.23353e-09
1.27124e-09
1.30595e-09
1.3366e-09
1.36189e-09
1.37622e-09
1.38519e-09
1.38292e-09
1.36757e-09
1.33811e-09
1.29389e-09
1.23475e-09
1.16122e-09
1.07458e-09
9.76903e-10
8.7089e-10
7.59716e-10
6.46747e-10
5.35239e-10
4.28049e-10
3.27437e-10
2.35063e-10
1.52438e-10
8.22222e-11
3.06457e-11
4.90451e-12
3.09259e-14
1.48222e-14
2.39875e-12
1.58925e-11
4.57551e-11
8.90146e-11
1.39792e-10
1.93369e-10
2.46812e-10
2.98435e-10
3.47294e-10
3.92883e-10
4.34983e-10
4.73575e-10
5.08788e-10
5.40866e-10
5.70134e-10
5.96973e-10
6.21797e-10
6.45027e-10
6.67079e-10
6.88346e-10
7.09192e-10
7.29943e-10
7.50894e-10
7.72299e-10
7.94383e-10
8.17341e-10
8.41359e-10
8.66579e-10
8.93135e-10
9.21148e-10
9.50734e-10
9.81998e-10
1.01504e-09
1.04997e-09
1.08687e-09
1.12582e-09
1.16691e-09
1.21019e-09
1.25571e-09
1.30347e-09
1.35342e-09
1.40545e-09
1.45934e-09
1.51479e-09
1.57131e-09
1.62828e-09
1.68483e-09
1.73986e-09
1.79197e-09
1.83953e-09
1.8807e-09
1.91361e-09
1.93145e-09
1.94081e-09
1.93405e-09
1.90856e-09
1.86323e-09
1.79739e-09
1.7111e-09
1.60533e-09
1.48204e-09
1.34418e-09
1.19553e-09
1.04041e-09
8.83336e-10
7.28665e-10
5.80202e-10
4.41004e-10
3.13467e-10
2.00087e-10
1.05228e-10
3.79315e-11
5.87956e-12
3.65734e-14
1.73858e-14
2.84301e-12
1.93291e-11
5.75347e-11
1.15439e-10
1.85692e-10
2.61275e-10
3.37344e-10
4.10961e-10
4.80472e-10
5.45014e-10
6.04223e-10
6.58075e-10
7.06789e-10
7.50753e-10
7.90476e-10
8.26542e-10
8.59569e-10
8.9019e-10
9.19012e-10
9.46603e-10
9.73486e-10
1.00013e-09
1.02695e-09
1.05431e-09
1.08252e-09
1.11185e-09
1.14255e-09
1.17483e-09
1.20888e-09
1.24489e-09
1.28301e-09
1.32342e-09
1.36624e-09
1.41164e-09
1.45974e-09
1.51067e-09
1.56455e-09
1.62144e-09
1.6814e-09
1.74441e-09
1.81039e-09
1.87915e-09
1.95037e-09
2.02358e-09
2.09804e-09
2.17281e-09
2.24661e-09
2.31785e-09
2.38457e-09
2.44448e-09
2.49501e-09
2.53303e-09
2.55186e-09
2.55826e-09
2.54288e-09
2.50247e-09
2.43605e-09
2.34324e-09
2.22448e-09
2.08134e-09
1.9166e-09
1.73417e-09
1.53892e-09
1.3363e-09
1.13196e-09
9.31286e-10
7.3898e-10
5.58894e-10
3.94226e-10
2.48628e-10
1.28339e-10
4.52098e-11
6.86416e-12
4.235e-14
2.00738e-14
3.30645e-12
2.29022e-11
6.99231e-11
1.4386e-10
2.36237e-10
3.37527e-10
4.40477e-10
5.40438e-10
6.34707e-10
7.21864e-10
8.01328e-10
8.73065e-10
9.37411e-10
9.94951e-10
1.04644e-09
1.09272e-09
1.13468e-09
1.17321e-09
1.20915e-09
1.24329e-09
1.27637e-09
1.30902e-09
1.3418e-09
1.3752e-09
1.40966e-09
1.44556e-09
1.48319e-09
1.52287e-09
1.56485e-09
1.60937e-09
1.65665e-09
1.70691e-09
1.76036e-09
1.81717e-09
1.87753e-09
1.9416e-09
2.00952e-09
2.08137e-09
2.15718e-09
2.2369e-09
2.32037e-09
2.40729e-09
2.49714e-09
2.58921e-09
2.68245e-09
2.77547e-09
2.86653e-09
2.95342e-09
3.03354e-09
3.10389e-09
3.16114e-09
3.20082e-09
3.21577e-09
3.21557e-09
3.18666e-09
3.12616e-09
3.03353e-09
2.90888e-09
2.75326e-09
2.56893e-09
2.35955e-09
2.13001e-09
1.8862e-09
1.63466e-09
1.38202e-09
1.1346e-09
8.97915e-10
6.76553e-10
4.74519e-10
2.96673e-10
1.5113e-10
5.24238e-11
7.85438e-12
4.82229e-14
2.28834e-14
3.78912e-12
2.66091e-11
8.28443e-11
1.73936e-10
2.90673e-10
4.20944e-10
5.54673e-10
6.85023e-10
8.07892e-10
9.21103e-10
1.02375e-09
1.11578e-09
1.19765e-09
1.2702e-09
1.3345e-09
1.39172e-09
1.4431e-09
1.48983e-09
1.53306e-09
1.57385e-09
1.61315e-09
1.6518e-09
1.69056e-09
1.73005e-09
1.77084e-09
1.8134e-09
1.85817e-09
1.9055e-09
1.95575e-09
2.00922e-09
2.0662e-09
2.12695e-09
2.19174e-09
2.2608e-09
2.33434e-09
2.41256e-09
2.49558e-09
2.58349e-09
2.67627e-09
2.77379e-09
2.87578e-09
2.98172e-09
3.09088e-09
3.20218e-09
3.31416e-09
3.42493e-09
3.53215e-09
3.63295e-09
3.72403e-09
3.80165e-09
3.86177e-09
3.8991e-09
3.90424e-09
3.893e-09
3.84602e-09
3.76053e-09
3.63711e-09
3.47667e-09
3.28095e-09
3.05299e-09
2.79729e-09
2.51966e-09
2.22696e-09
1.92664e-09
1.62623e-09
1.33282e-09
1.05266e-09
7.90979e-10
5.52545e-10
3.43382e-10
1.73367e-10
5.95422e-11
8.84706e-12
5.41662e-14
2.58132e-14
4.29116e-12
3.04506e-11
9.6261e-11
2.05445e-10
3.48419e-10
5.10506e-10
6.78482e-10
8.42891e-10
9.97874e-10
1.14027e-09
1.26874e-09
1.38316e-09
1.48418e-09
1.57295e-09
1.65089e-09
1.7196e-09
1.78071e-09
1.83579e-09
1.88634e-09
1.93374e-09
1.97919e-09
2.02378e-09
2.06845e-09
2.11401e-09
2.16116e-09
2.2105e-09
2.26256e-09
2.3178e-09
2.37665e-09
2.43949e-09
2.50666e-09
2.57851e-09
2.65532e-09
2.73737e-09
2.8249e-09
2.91811e-09
3.01712e-09
3.12195e-09
3.23253e-09
3.34858e-09
3.46965e-09
3.59497e-09
3.72346e-09
3.85363e-09
3.98351e-09
4.11064e-09
4.232e-09
4.34404e-09
4.44276e-09
4.52372e-09
4.58226e-09
4.61232e-09
4.60354e-09
4.57432e-09
4.50646e-09
4.39178e-09
4.23384e-09
4.03469e-09
3.79679e-09
3.52393e-09
3.2214e-09
2.89587e-09
2.55501e-09
2.20709e-09
1.86038e-09
1.52265e-09
1.20075e-09
9.00493e-10
6.27322e-10
3.88315e-10
1.94938e-10
6.65479e-11
9.83968e-12
6.01592e-14
2.88623e-14
4.81269e-12
3.4429e-11
1.10158e-10
2.38253e-10
4.09063e-10
6.05401e-10
8.10653e-10
1.01236e-09
1.20258e-09
1.37692e-09
1.53352e-09
1.67216e-09
1.79369e-09
1.89962e-09
1.99184e-09
2.07241e-09
2.14342e-09
2.20689e-09
2.26472e-09
2.31863e-09
2.37014e-09
2.42058e-09
2.47112e-09
2.52274e-09
2.5763e-09
2.63253e-09
2.69208e-09
2.7555e-09
2.82329e-09
2.89592e-09
2.97379e-09
3.05729e-09
3.14674e-09
3.24246e-09
3.34469e-09
3.4536e-09
3.56929e-09
3.69169e-09
3.82059e-09
3.95555e-09
4.09584e-09
4.24039e-09
4.38769e-09
4.53575e-09
4.68204e-09
4.82344e-09
4.95627e-09
5.07629e-09
5.17884e-09
5.25892e-09
5.31139e-09
5.32933e-09
5.30238e-09
5.25057e-09
5.15738e-09
5.01144e-09
4.81611e-09
4.57626e-09
4.29503e-09
3.97688e-09
3.62782e-09
3.25525e-09
2.86758e-09
2.47374e-09
2.08266e-09
1.70267e-09
1.34115e-09
1.00439e-09
6.98452e-10
4.31308e-10
2.15801e-10
7.3433e-11
1.08304e-11
6.61867e-14
3.20303e-14
5.35391e-12
3.85475e-11
1.24535e-10
2.72286e-10
4.72323e-10
7.05016e-10
9.50168e-10
1.192e-09
1.42016e-09
1.62884e-09
1.81553e-09
1.9799e-09
2.12305e-09
2.24689e-09
2.35383e-09
2.44649e-09
2.52747e-09
2.59931e-09
2.66434e-09
2.72467e-09
2.78214e-09
2.83837e-09
2.89476e-09
2.95248e-09
3.01255e-09
3.07585e-09
3.14312e-09
3.21502e-09
3.29214e-09
3.37499e-09
3.46405e-09
3.55974e-09
3.66243e-09
3.77241e-09
3.88994e-09
4.01514e-09
4.14801e-09
4.2884e-09
4.43589e-09
4.58982e-09
4.74912e-09
4.91234e-09
5.07747e-09
5.24199e-09
5.40272e-09
5.55589e-09
5.69716e-09
5.82166e-09
5.92417e-09
5.99926e-09
6.04151e-09
6.04285e-09
5.99377e-09
5.91729e-09
5.79306e-09
5.61542e-09
5.38073e-09
5.09893e-09
4.77387e-09
4.41057e-09
4.01567e-09
3.59723e-09
3.16428e-09
2.72636e-09
2.29292e-09
1.87278e-09
1.47377e-09
1.10264e-09
7.65917e-10
4.72369e-10
2.35956e-10
8.01958e-11
1.18178e-11
7.22375e-14
3.53173e-14
5.915e-12
4.28092e-11
1.39396e-10
3.07514e-10
5.38024e-10
8.0891e-10
1.09624e-09
1.38062e-09
1.64904e-09
1.89409e-09
2.11251e-09
2.30386e-09
2.46948e-09
2.61178e-09
2.73375e-09
2.83861e-09
2.92959e-09
3.00974e-09
3.08188e-09
3.14854e-09
3.21192e-09
3.27394e-09
3.33621e-09
3.40013e-09
3.46688e-09
3.53746e-09
3.61274e-09
3.69347e-09
3.78031e-09
3.87385e-09
3.97459e-09
4.083e-09
4.19945e-09
4.32424e-09
4.45758e-09
4.59952e-09
4.74996e-09
4.90856e-09
5.07469e-09
5.24738e-09
5.4252e-09
5.60622e-09
5.78792e-09
5.96714e-09
6.14011e-09
6.30239e-09
6.44901e-09
6.57458e-09
6.67344e-09
6.73986e-09
6.76834e-09
6.74931e-09
6.67511e-09
6.57206e-09
6.41338e-09
6.20249e-09
5.92799e-09
5.60342e-09
5.23437e-09
4.82628e-09
4.38633e-09
3.92316e-09
3.44638e-09
2.96604e-09
2.49206e-09
2.03369e-09
1.59916e-09
1.19558e-09
8.29937e-10
5.11605e-10
2.55438e-10
8.68392e-11
1.28013e-11
7.83045e-14
3.87238e-14
6.49616e-12
4.72174e-11
1.5475e-10
3.43932e-10
6.06058e-10
9.16777e-10
1.24826e-09
1.57729e-09
1.88795e-09
2.17105e-09
2.42254e-09
2.64184e-09
2.83058e-09
2.99172e-09
3.12891e-09
3.24604e-09
3.34697e-09
3.43536e-09
3.51456e-09
3.58751e-09
3.6568e-09
3.72464e-09
3.79291e-09
3.8632e-09
3.93684e-09
4.015e-09
4.09862e-09
4.18857e-09
4.28556e-09
4.39024e-09
4.50316e-09
4.62478e-09
4.7555e-09
4.89558e-09
5.04516e-09
5.2042e-09
5.37245e-09
5.54935e-09
5.734e-09
5.92508e-09
6.12073e-09
6.3185e-09
6.51532e-09
6.70742e-09
6.89038e-09
7.05918e-09
7.2083e-09
7.33188e-09
7.42396e-09
7.47866e-09
7.4905e-09
7.44821e-09
7.34697e-09
7.21576e-09
7.02114e-09
6.77377e-09
6.46084e-09
6.0927e-09
5.67959e-09
5.22701e-09
4.74262e-09
4.23561e-09
3.71612e-09
3.19468e-09
2.68163e-09
2.18661e-09
1.71818e-09
1.28382e-09
8.90864e-10
5.49182e-10
2.74304e-10
9.337e-11
1.37807e-11
8.43844e-14
4.22502e-14
7.09759e-12
5.17751e-11
1.70609e-10
3.81546e-10
6.7637e-10
1.02841e-09
1.4058e-09
1.78128e-09
2.13584e-09
2.45839e-09
2.74401e-09
2.992e-09
3.20433e-09
3.38456e-09
3.53705e-09
3.66643e-09
3.77727e-09
3.87385e-09
3.96006e-09
4.03931e-09
4.11456e-09
4.18835e-09
4.26279e-09
4.33967e-09
4.42051e-09
4.50656e-09
4.59892e-09
4.6985e-09
4.8061e-09
4.92241e-09
5.04799e-09
5.18334e-09
5.32881e-09
5.48462e-09
5.65082e-09
5.82724e-09
6.01345e-09
6.20864e-09
6.41159e-09
6.62057e-09
6.83326e-09
7.04669e-09
7.25719e-09
7.46039e-09
7.65128e-09
7.8243e-09
7.97346e-09
8.09256e-09
8.17539e-09
8.21601e-09
8.20899e-09
8.14126e-09
8.01283e-09
7.85099e-09
7.62039e-09
7.33426e-09
6.98343e-09
6.57122e-09
6.1139e-09
5.61689e-09
5.08831e-09
4.53791e-09
3.97636e-09
3.41465e-09
2.86353e-09
2.333e-09
1.83193e-09
1.36809e-09
9.49125e-10
5.85292e-10
2.92626e-10
9.97976e-11
1.47561e-11
9.04769e-14
4.5897e-14
7.71947e-12
5.6485e-11
1.86985e-10
4.2037e-10
7.4894e-10
1.14368e-09
1.56854e-09
1.99203e-09
2.39188e-09
2.75501e-09
3.07559e-09
3.35281e-09
3.58903e-09
3.78848e-09
3.95628e-09
4.09788e-09
4.21856e-09
4.32329e-09
4.41651e-09
4.50212e-09
4.58346e-09
4.66337e-09
4.74422e-09
4.828e-09
4.91637e-09
5.01073e-09
5.11225e-09
5.22193e-09
5.34063e-09
5.46905e-09
5.60781e-09
5.75737e-09
5.91804e-09
6.09e-09
6.27317e-09
6.46723e-09
6.67151e-09
6.88493e-09
7.10591e-09
7.33229e-09
7.56126e-09
7.7893e-09
8.01217e-09
8.22493e-09
8.42202e-09
8.59741e-09
8.74472e-09
8.85747e-09
8.92931e-09
8.95424e-09
8.92692e-09
8.83244e-09
8.677e-09
8.48293e-09
8.21603e-09
7.89009e-09
7.50104e-09
7.04442e-09
6.54248e-09
6.00068e-09
5.42767e-09
4.83378e-09
4.23024e-09
3.62854e-09
3.03983e-09
2.47445e-09
1.94154e-09
1.44915e-09
1.00518e-09
6.20157e-10
3.1048e-10
1.06134e-10
1.57282e-11
9.65844e-14
4.96648e-14
8.36199e-12
6.13497e-11
2.03888e-10
4.6042e-10
8.23764e-10
1.26251e-09
1.73625e-09
2.20912e-09
2.65543e-09
3.06004e-09
3.41619e-09
3.723e-09
3.98328e-09
4.20197e-09
4.38505e-09
4.53878e-09
4.66926e-09
4.78212e-09
4.8824e-09
4.97449e-09
5.0621e-09
5.14838e-09
5.23595e-09
5.32699e-09
5.42331e-09
5.52641e-09
5.63757e-09
5.75786e-09
5.88816e-09
6.02924e-09
6.18169e-09
6.34596e-09
6.52232e-09
6.71084e-09
6.91133e-09
7.12326e-09
7.34572e-09
7.57732e-09
7.81609e-09
8.05943e-09
8.30402e-09
8.54579e-09
8.77997e-09
9.00108e-09
9.2031e-09
9.37955e-09
9.52376e-09
9.62901e-09
9.68883e-09
9.69721e-09
9.64888e-09
9.52703e-09
9.34493e-09
9.11778e-09
8.81423e-09
8.44783e-09
8.01973e-09
7.5183e-09
6.97095e-09
6.38354e-09
5.76528e-09
5.12717e-09
4.48108e-09
3.83904e-09
3.21265e-09
2.61256e-09
2.04819e-09
1.52781e-09
1.05951e-09
6.54009e-10
3.2794e-10
1.12395e-10
1.66981e-11
1.02711e-13
5.35542e-14
9.02528e-12
6.63712e-11
2.21329e-10
5.01716e-10
9.00847e-10
1.38483e-09
1.90876e-09
2.43219e-09
2.92593e-09
3.37273e-09
3.7649e-09
4.10151e-09
4.38589e-09
4.62377e-09
4.82202e-09
4.98781e-09
5.12804e-09
5.24906e-09
5.3565e-09
5.45523e-09
5.54936e-09
5.64234e-09
5.73701e-09
5.83574e-09
5.94047e-09
6.05283e-09
6.17417e-09
6.3056e-09
6.44808e-09
6.60237e-09
6.76906e-09
6.94857e-09
7.14111e-09
7.34664e-09
7.56481e-09
7.79488e-09
8.03568e-09
8.28546e-09
8.54188e-09
8.80185e-09
9.06158e-09
9.31647e-09
9.56124e-09
9.78993e-09
9.99609e-09
1.01729e-08
1.03134e-08
1.04107e-08
1.04582e-08
1.04498e-08
1.03804e-08
1.0231e-08
1.00228e-08
9.76221e-09
9.42181e-09
9.01439e-09
8.54585e-09
7.99917e-09
7.40515e-09
6.77074e-09
6.10579e-09
5.42207e-09
4.73219e-09
4.04884e-09
3.38408e-09
2.74891e-09
2.15301e-09
1.60481e-09
1.11256e-09
6.87075e-10
3.45086e-10
1.18594e-10
1.76668e-11
1.08864e-13
5.75653e-14
9.70946e-12
7.15514e-11
2.39314e-10
5.44271e-10
9.80198e-10
1.51062e-09
2.08592e-09
2.66096e-09
3.20295e-09
3.69246e-09
4.12092e-09
4.48742e-09
4.79585e-09
5.0528e-09
5.2661e-09
5.44385e-09
5.59381e-09
5.72305e-09
5.83781e-09
5.94343e-09
6.0444e-09
6.14446e-09
6.24668e-09
6.3536e-09
6.46729e-09
6.58947e-09
6.72157e-09
6.86476e-09
7.02002e-09
7.18813e-09
7.36966e-09
7.56499e-09
7.77425e-09
7.99727e-09
8.23353e-09
8.48208e-09
8.74143e-09
9.00951e-09
9.28355e-09
9.56003e-09
9.83466e-09
1.01024e-08
1.03574e-08
1.05934e-08
1.08035e-08
1.09805e-08
1.11174e-08
1.12069e-08
1.12424e-08
1.12177e-08
1.11274e-08
1.09509e-08
1.07173e-08
1.04231e-08
1.00457e-08
9.59688e-09
9.08562e-09
8.4934e-09
7.85089e-09
7.16752e-09
6.4538e-09
5.7224e-09
4.98684e-09
4.26054e-09
3.55615e-09
2.88504e-09
2.2571e-09
1.68091e-09
1.16478e-09
7.19576e-10
3.61995e-10
1.24748e-10
1.86357e-11
1.15049e-13
6.16986e-14
1.04146e-11
7.68915e-11
2.57851e-10
5.88101e-10
1.06182e-09
1.63983e-09
2.26762e-09
2.8952e-09
3.48609e-09
4.01869e-09
4.48359e-09
4.87994e-09
5.21227e-09
5.48812e-09
5.71632e-09
5.90595e-09
6.06564e-09
6.20322e-09
6.3255e-09
6.43832e-09
6.54653e-09
6.65414e-09
6.76444e-09
6.88012e-09
7.00338e-09
7.13602e-09
7.27954e-09
7.43516e-09
7.60388e-09
7.78647e-09
7.9835e-09
8.19528e-09
8.42185e-09
8.66292e-09
8.91777e-09
9.1852e-09
9.46344e-09
9.75006e-09
1.00419e-08
1.0335e-08
1.06245e-08
1.09051e-08
1.11705e-08
1.14139e-08
1.16282e-08
1.1806e-08
1.19398e-08
1.20224e-08
1.20467e-08
1.20065e-08
1.1896e-08
1.16931e-08
1.14348e-08
1.11071e-08
1.06926e-08
1.02018e-08
9.64616e-09
9.0069e-09
8.31378e-09
7.57898e-09
6.8138e-09
6.03201e-09
5.24819e-09
4.47667e-09
3.7308e-09
3.02237e-09
2.36147e-09
1.75677e-09
1.21659e-09
7.5172e-10
3.78742e-10
1.30873e-10
1.96062e-11
1.21273e-13
6.59541e-14
1.11408e-11
8.23925e-11
2.76945e-10
6.33214e-10
1.14572e-09
1.77243e-09
2.45375e-09
3.13468e-09
3.77499e-09
4.35093e-09
4.85227e-09
5.27832e-09
5.63435e-09
5.92888e-09
6.17182e-09
6.37327e-09
6.54274e-09
6.68881e-09
6.8189e-09
6.9393e-09
7.05522e-09
7.17094e-09
7.28993e-09
7.41504e-09
7.54856e-09
7.69238e-09
7.84806e-09
8.01685e-09
8.19976e-09
8.39758e-09
8.61083e-09
8.83977e-09
9.08433e-09
9.34407e-09
9.61809e-09
9.90493e-09
1.02025e-08
1.05081e-08
1.0818e-08
1.11281e-08
1.14329e-08
1.17268e-08
1.2003e-08
1.22545e-08
1.24739e-08
1.26533e-08
1.27852e-08
1.2862e-08
1.28766e-08
1.28224e-08
1.2692e-08
1.24639e-08
1.21816e-08
1.18206e-08
1.13687e-08
1.08354e-08
1.02339e-08
9.54528e-09
8.79914e-09
8.00996e-09
7.19008e-09
6.35456e-09
5.51927e-09
4.69966e-09
3.90989e-09
3.16227e-09
2.46709e-09
1.83304e-09
1.26837e-09
7.83701e-10
3.954e-10
1.36983e-10
2.05796e-11
1.27545e-13
7.03315e-14
1.1888e-11
8.8055e-11
2.96598e-10
6.79614e-10
1.23189e-09
1.90837e-09
2.64418e-09
3.37916e-09
4.0693e-09
4.68868e-09
5.22636e-09
5.68189e-09
6.06135e-09
6.37431e-09
6.63183e-09
6.84504e-09
7.02439e-09
7.17918e-09
7.31744e-09
7.44589e-09
7.57009e-09
7.69456e-09
7.82295e-09
7.95823e-09
8.10279e-09
8.2586e-09
8.42726e-09
8.61004e-09
8.80799e-09
9.02186e-09
9.25214e-09
9.49903e-09
9.76233e-09
1.00415e-08
1.03353e-08
1.06422e-08
1.09598e-08
1.12848e-08
1.16135e-08
1.1941e-08
1.22619e-08
1.25697e-08
1.28577e-08
1.31183e-08
1.33439e-08
1.35264e-08
1.36579e-08
1.37307e-08
1.37372e-08
1.36707e-08
1.35208e-08
1.32691e-08
1.29634e-08
1.25694e-08
1.20796e-08
1.15033e-08
1.08545e-08
1.01138e-08
9.31188e-09
8.46495e-09
7.58663e-09
6.6935e-09
5.80295e-09
4.93178e-09
4.09517e-09
3.30601e-09
2.57484e-09
1.9103e-09
1.32046e-09
8.15694e-10
4.12032e-10
1.43092e-10
2.15569e-11
1.33869e-13
7.48306e-14
1.26562e-11
9.3879e-11
3.16811e-10
7.27301e-10
1.32032e-09
2.0476e-09
2.83877e-09
3.62841e-09
4.36865e-09
5.03147e-09
5.60529e-09
6.08998e-09
6.49253e-09
6.82366e-09
7.0956e-09
7.32057e-09
7.50993e-09
7.67375e-09
7.82061e-09
7.95768e-09
8.09082e-09
8.22478e-09
8.36337e-09
8.50968e-09
8.66618e-09
8.83488e-09
9.01743e-09
9.21514e-09
9.42904e-09
9.65987e-09
9.90808e-09
1.01738e-08
1.04567e-08
1.0756e-08
1.10705e-08
1.13982e-08
1.17365e-08
1.20818e-08
1.24299e-08
1.27758e-08
1.31135e-08
1.34364e-08
1.37373e-08
1.40085e-08
1.42418e-08
1.44291e-08
1.4562e-08
1.46325e-08
1.46328e-08
1.45558e-08
1.43879e-08
1.41138e-08
1.3785e-08
1.33583e-08
1.28304e-08
1.22105e-08
1.15127e-08
1.07171e-08
9.85642e-09
8.94804e-09
8.00714e-09
7.05205e-09
6.10194e-09
5.17521e-09
4.28827e-09
3.45478e-09
2.68553e-09
1.98907e-09
1.37317e-09
8.47859e-10
4.28698e-10
1.49212e-10
2.25393e-11
1.4025e-13
7.94507e-14
1.34454e-11
9.98642e-11
3.37583e-10
7.76269e-10
1.41097e-09
2.19004e-09
3.03739e-09
3.88217e-09
4.67266e-09
5.37881e-09
5.98845e-09
6.50192e-09
6.92717e-09
7.27619e-09
7.56241e-09
7.79917e-09
7.99875e-09
8.17197e-09
8.32797e-09
8.47432e-09
8.61717e-09
8.76148e-09
8.91119e-09
9.06949e-09
9.23891e-09
9.42153e-09
9.619e-09
9.83266e-09
1.00635e-08
1.03123e-08
1.05795e-08
1.08649e-08
1.11684e-08
1.14889e-08
1.18249e-08
1.21743e-08
1.25341e-08
1.29005e-08
1.32691e-08
1.36343e-08
1.399e-08
1.43293e-08
1.46446e-08
1.49279e-08
1.51708e-08
1.53647e-08
1.55011e-08
1.55714e-08
1.55674e-08
1.54815e-08
1.52976e-08
1.50022e-08
1.46504e-08
1.41916e-08
1.36251e-08
1.29608e-08
1.22126e-08
1.13592e-08
1.04366e-08
9.46282e-09
8.45492e-09
7.43315e-09
6.41873e-09
5.43197e-09
4.49077e-09
3.60971e-09
2.79993e-09
2.06983e-09
1.4268e-09
8.80336e-10
4.45448e-10
1.55354e-10
2.35271e-11
1.46692e-13
8.4191e-14
1.42553e-11
1.0601e-10
3.58911e-10
8.26506e-10
1.5038e-09
2.3356e-09
3.23983e-09
4.14014e-09
4.98093e-09
5.73016e-09
6.37522e-09
6.91699e-09
7.36454e-09
7.73115e-09
8.03153e-09
8.28015e-09
8.49025e-09
8.67333e-09
8.83909e-09
8.99549e-09
9.14894e-09
9.30457e-09
9.46644e-09
9.63781e-09
9.82127e-09
1.00189e-08
1.02325e-08
1.04632e-08
1.07122e-08
1.098e-08
1.12672e-08
1.15735e-08
1.18985e-08
1.22411e-08
1.25997e-08
1.29717e-08
1.3354e-08
1.37427e-08
1.41328e-08
1.45186e-08
1.48936e-08
1.52507e-08
1.55819e-08
1.58791e-08
1.61335e-08
1.63361e-08
1.6478e-08
1.65501e-08
1.65438e-08
1.64509e-08
1.6253e-08
1.59375e-08
1.55629e-08
1.50722e-08
1.44669e-08
1.37574e-08
1.29572e-08
1.20432e-08
1.10554e-08
1.00123e-08
8.93282e-09
7.8394e-09
6.7556e-09
5.70392e-09
4.70408e-09
3.77183e-09
2.91873e-09
2.15303e-09
1.48159e-09
9.13247e-10
4.62324e-10
1.61523e-10
2.45208e-11
1.53195e-13
8.90504e-14
1.50858e-11
1.12314e-10
3.80791e-10
8.77994e-10
1.59878e-09
2.48416e-09
3.44591e-09
4.40201e-09
5.293e-09
6.08495e-09
6.76492e-09
7.33446e-09
7.80386e-09
8.18776e-09
8.50221e-09
8.76284e-09
8.98379e-09
9.1773e-09
9.35357e-09
9.52091e-09
9.68596e-09
9.854e-09
1.00292e-08
1.02148e-08
1.04136e-08
1.06275e-08
1.08584e-08
1.11074e-08
1.13757e-08
1.16639e-08
1.19722e-08
1.23005e-08
1.26482e-08
1.3014e-08
1.33961e-08
1.37919e-08
1.41979e-08
1.46098e-08
1.50226e-08
1.54302e-08
1.5826e-08
1.62024e-08
1.65514e-08
1.68643e-08
1.71321e-08
1.73454e-08
1.74948e-08
1.75708e-08
1.7564e-08
1.74658e-08
1.7256e-08
1.69217e-08
1.6524e-08
1.60021e-08
1.53576e-08
1.46021e-08
1.37483e-08
1.27715e-08
1.17154e-08
1.05989e-08
9.44321e-09
8.27303e-09
7.11454e-09
5.99276e-09
4.92955e-09
3.94211e-09
3.04259e-09
2.23906e-09
1.53776e-09
9.46697e-10
4.7936e-10
1.67727e-10
2.55202e-11
1.59757e-13
9.40276e-14
1.59367e-11
1.18776e-10
4.03214e-10
9.3071e-10
1.69583e-09
2.6356e-09
3.65538e-09
4.6674e-09
5.60838e-09
6.44256e-09
7.15682e-09
7.75354e-09
8.2443e-09
8.6452e-09
8.97367e-09
9.24649e-09
9.47874e-09
9.68334e-09
9.87096e-09
1.00502e-08
1.0228e-08
1.04097e-08
1.05995e-08
1.08008e-08
1.10162e-08
1.12478e-08
1.14973e-08
1.1766e-08
1.20549e-08
1.23647e-08
1.26954e-08
1.30469e-08
1.34185e-08
1.38087e-08
1.42155e-08
1.46361e-08
1.50669e-08
1.55033e-08
1.594e-08
1.63708e-08
1.67887e-08
1.71861e-08
1.75544e-08
1.78848e-08
1.81679e-08
1.83938e-08
1.85526e-08
1.86343e-08
1.86288e-08
1.85268e-08
1.83075e-08
1.79555e-08
1.75346e-08
1.69818e-08
1.62981e-08
1.54955e-08
1.4587e-08
1.35454e-08
1.24179e-08
1.12243e-08
9.98786e-09
8.73584e-09
7.49724e-09
6.29996e-09
5.16838e-09
4.12143e-09
3.17208e-09
2.32827e-09
1.5955e-09
9.80773e-10
4.96582e-10
1.73966e-10
2.65248e-11
1.66373e-13
9.91209e-14
1.68077e-11
1.25394e-10
4.26173e-10
9.84623e-10
1.79488e-09
2.78975e-09
3.86795e-09
4.93591e-09
5.9265e-09
6.8023e-09
7.55015e-09
8.17336e-09
8.68495e-09
9.10257e-09
9.44503e-09
9.73031e-09
9.97438e-09
1.01908e-08
1.03908e-08
1.05831e-08
1.07749e-08
1.09716e-08
1.11774e-08
1.13958e-08
1.16293e-08
1.188e-08
1.21497e-08
1.24396e-08
1.27506e-08
1.30833e-08
1.34378e-08
1.38138e-08
1.42105e-08
1.46262e-08
1.50589e-08
1.55055e-08
1.59621e-08
1.64242e-08
1.68861e-08
1.73413e-08
1.77828e-08
1.82025e-08
1.85918e-08
1.89413e-08
1.92413e-08
1.94816e-08
1.96515e-08
1.97405e-08
1.97379e-08
1.96336e-08
1.94066e-08
1.9038e-08
1.85938e-08
1.80108e-08
1.72879e-08
1.64371e-08
1.54728e-08
1.43651e-08
1.31635e-08
1.18894e-08
1.05679e-08
9.22913e-09
7.90504e-09
6.62677e-09
5.42159e-09
4.31057e-09
3.30773e-09
2.42098e-09
1.65497e-09
1.01555e-09
5.14006e-10
1.80241e-10
2.75335e-11
1.73035e-13
1.04329e-13
1.76985e-11
1.32164e-10
4.49654e-10
1.0397e-09
1.89584e-09
2.94642e-09
4.08333e-09
5.20706e-09
6.24674e-09
7.16341e-09
7.94401e-09
8.59297e-09
9.12485e-09
9.55888e-09
9.91536e-09
1.02134e-08
1.04699e-08
1.06991e-08
1.09124e-08
1.11191e-08
1.13262e-08
1.15394e-08
1.17628e-08
1.19999e-08
1.22531e-08
1.25247e-08
1.28161e-08
1.31287e-08
1.34632e-08
1.38204e-08
1.42e-08
1.46019e-08
1.50249e-08
1.54674e-08
1.59271e-08
1.64008e-08
1.68844e-08
1.73733e-08
1.78614e-08
1.83424e-08
1.88087e-08
1.9252e-08
1.96636e-08
2.00336e-08
2.0352e-08
2.06079e-08
2.07904e-08
2.08881e-08
2.08896e-08
2.07841e-08
2.05514e-08
2.01674e-08
1.96997e-08
1.9087e-08
1.83252e-08
1.74254e-08
1.64043e-08
1.52297e-08
1.39518e-08
1.25941e-08
1.11838e-08
9.75362e-09
8.33886e-09
6.97414e-09
5.69004e-09
4.5102e-09
3.45e-09
2.51745e-09
1.71631e-09
1.05107e-09
5.31643e-10
1.86548e-10
2.85451e-11
1.79734e-13
1.09648e-13
1.86087e-11
1.39084e-10
4.73646e-10
1.09589e-09
1.99863e-09
3.1054e-09
4.30114e-09
5.48032e-09
6.56841e-09
7.52505e-09
8.33745e-09
9.01132e-09
9.56289e-09
1.00131e-08
1.03836e-08
1.06948e-08
1.09644e-08
1.12073e-08
1.14352e-08
1.16575e-08
1.18816e-08
1.21128e-08
1.23555e-08
1.2613e-08
1.28877e-08
1.31817e-08
1.34966e-08
1.38335e-08
1.41933e-08
1.45763e-08
1.49826e-08
1.54116e-08
1.58622e-08
1.63327e-08
1.68205e-08
1.73224e-08
1.78341e-08
1.83507e-08
1.88662e-08
1.93738e-08
1.98659e-08
2.0334e-08
2.07689e-08
2.11605e-08
2.14984e-08
2.17711e-08
2.19671e-08
2.20745e-08
2.20811e-08
2.19753e-08
2.17382e-08
2.134e-08
2.08489e-08
2.0207e-08
1.94067e-08
1.84572e-08
1.73787e-08
1.61372e-08
1.47813e-08
1.33376e-08
1.18352e-08
1.03094e-08
8.79913e-09
7.34267e-09
5.97437e-09
4.72086e-09