/*--------------------------------*- C++ -*----------------------------------*\
  =========                 |
  \\      /  F ield         | OpenFOAM: The Open Source CFD Toolbox
   \\    /   O peration     | Website:  https://openfoam.org
    \\  /    A nd           | Version:  12
     \\/     M anipulation  |
\*---------------------------------------------------------------------------*/
FoamFile
{
    format      ascii;
    class       volScalarField;
    location    "4";
    object      p;
}
// * * * * * * * * * * * * * * * * * * * * * * * * * * * * * * * * * * * * * //

dimensions      [0 2 -2 0 0 0 0];

internalField   nonuniform List<scalar> 
5625
(
1.49613e-08
-8.79235e-06
-8.75504e-05
-0.000237636
-0.000440563
-0.000680232
-0.00094351
-0.00122078
-0.00150561
-0.00179428
-0.00208508
-0.00237787
-0.00267348
-0.00297341
-0.00327945
-0.00359342
-0.00391708
-0.00425191
-0.00459909
-0.00495939
-0.00533317
-0.00572031
-0.0061202
-0.00653164
-0.00695284
-0.00738131
-0.00781377
-0.00824603
-0.00867284
-0.00908779
-0.00948307
-0.00984932
-0.0101754
-0.0104484
-0.0106529
-0.0107716
-0.0107845
-0.010669
-0.0104002
-0.00995037
-0.0092898
-0.00838669
-0.0072079
-0.00571971
-0.00388879
-0.00168354
0.000924328
0.00395793
0.00743309
0.0113562
0.0157224
0.0205056
0.0256696
0.0311716
0.0369256
0.0428389
0.048801
0.0546855
0.060356
0.0656723
0.0704983
0.0747112
0.0782103
0.0809255
0.0828245
0.083917
0.0842555
0.083933
0.0830777
0.0818455
0.0804123
0.0789668
0.0777079
0.0768492
0.0765081
-1.19797e-05
-2.10219e-05
-9.52603e-05
-0.0002356
-0.000425575
-0.000651253
-0.000900896
-0.00116563
-0.00143936
-0.00171834
-0.00200076
-0.00228618
-0.00257516
-0.00286886
-0.00316877
-0.00347645
-0.00379339
-0.00412087
-0.00445986
-0.004811
-0.00517449
-0.00555012
-0.00593715
-0.00633433
-0.00673981
-0.00715103
-0.00756469
-0.00797659
-0.00838153
-0.00877314
-0.00914372
-0.00948408
-0.00978333
-0.0100287
-0.0102054
-0.0102964
-0.0102822
-0.0101411
-0.00984886
-0.00937873
-0.00870194
-0.00778785
-0.00660454
-0.00511955
-0.00330087
-0.00111822
0.00145548
0.00444222
0.00785694
0.0117054
0.0159829
0.0206613
0.0257097
0.0310868
0.0367025
0.0424726
0.0482895
0.0540314
0.059567
0.0647618
0.0694853
0.07362
0.0770699
0.0797688
0.0816864
0.0828329
0.083259
0.0830544
0.0823414
0.0812685
0.0800017
0.0787173
0.0775971
0.0768351
0.0765347
-1.33403e-05
-2.29286e-05
-9.32747e-05
-0.000224544
-0.000401812
-0.000613313
-0.000848736
-0.00110008
-0.00136165
-0.00162983
-0.00190266
-0.00217951
-0.00246065
-0.00274692
-0.0030395
-0.00333967
-0.00364864
-0.00396745
-0.0042969
-0.00463742
-0.00498908
-0.00535154
-0.00572397
-0.00610504
-0.00649281
-0.00688472
-0.00727745
-0.00766681
-0.00804767
-0.00841376
-0.00875752
-0.00906999
-0.00934057
-0.00955687
-0.00970453
-0.00976708
-0.00972582
-0.00955969
-0.00924533
-0.0087571
-0.00806731
-0.00714651
-0.00596405
-0.00448878
-0.00268999
-0.000538597
0.00199133
0.00492088
0.00826432
0.0120271
0.0162044
0.0207677
0.0256945
0.0309359
0.0364071
0.0420298
0.0476993
0.0532983
0.0587005
0.0637767
0.0684015
0.0724624
0.0758675
0.0785537
0.0804925
0.0816943
0.0822085
0.0821209
0.0815489
0.080633
0.0795292
0.0784007
0.0774106
0.076731
0.0764475
4.12835e-06
-7.458e-06
-7.60747e-05
-0.000201452
-0.00036954
-0.000570117
-0.000793983
-0.00103398
-0.00128485
-0.00154315
-0.00180697
-0.00207552
-0.0023489
-0.00262772
-0.00291292
-0.00320553
-0.00350655
-0.00381682
-0.00413695
-0.00446723
-0.0048076
-0.00515762
-0.00551637
-0.00588245
-0.00625391
-0.00662817
-0.00700192
-0.00737106
-0.00773053
-0.00807421
-0.00839475
-0.00868344
-0.00893001
-0.00912249
-0.00924701
-0.00928768
-0.00922646
-0.00904308
-0.00871499
-0.00821749
-0.00752386
-0.00660568
-0.00543331
-0.00397659
-0.00220572
-9.24371e-05
0.0023886
0.00525809
0.00853022
0.0122106
0.0162944
0.020757
0.0255779
0.0307016
0.0360559
0.0415615
0.047117
0.0526087
0.0579138
0.0629065
0.0674646
0.0714782
0.0748577
0.0775414
0.0795018
0.080749
0.081331
0.0813316
0.0808638
0.0800628
0.0790764
0.0780569
0.0771524
0.0765147
0.0762144
4.08141e-05
2.46365e-05
-4.48808e-05
-0.000167195
-0.000329083
-0.000521378
-0.000735938
-0.000966297
-0.00120769
-0.00145693
-0.0017122
-0.00197269
-0.00223837
-0.0025097
-0.00278744
-0.00307242
-0.00336548
-0.00366727
-0.00397824
-0.00429857
-0.00462808
-0.00496623
-0.00531205
-0.00566411
-0.00602045
-0.00637849
-0.006735
-0.00708596
-0.00742645
-0.00775055
-0.00805116
-0.00831987
-0.0085468
-0.00872042
-0.0088274
-0.00885245
-0.00877822
-0.00858517
-0.00825158
-0.00775359
-0.00706533
-0.00615923
-0.00500647
-0.00357757
-0.00184333
0.000224134
0.00264999
0.00545508
0.00865399
0.0122531
0.0162485
0.0206198
0.0253436
0.0303682
0.0356267
0.0410398
0.0465092
0.0519237
0.0571628
0.0621024
0.0666219
0.0706125
0.0739851
0.076678
0.0786634
0.0799507
0.080587
0.0806539
0.0802621
0.0795423
0.0786363
0.0776873
0.0768315
0.0762017
0.0758571
9.57422e-05
7.19388e-05
-1.21045e-06
-0.000122882
-0.0002809
-0.000467
-0.000673949
-0.000895972
-0.00112881
-0.00136959
-0.00161664
-0.0018692
-0.00212718
-0.00239094
-0.00266111
-0.00293837
-0.00322338
-0.00351667
-0.00381856
-0.00412909
-0.00444801
-0.00477469
-0.00510813
-0.00544688
-0.005789
-0.00613196
-0.00647262
-0.0068071
-0.00713066
-0.00743761
-0.00772116
-0.00797326
-0.00818446
-0.00834374
-0.00843834
-0.00845362
-0.00837292
-0.00817747
-0.00784633
-0.00735641
-0.00668262
-0.0057981
-0.00467464
-0.00328323
-0.00159495
0.000418048
0.00278116
0.00551577
0.00863737
0.0121535
0.0160619
0.0203456
0.0249798
0.0299174
0.0350946
0.0404334
0.0458379
0.0511986
0.0563963
0.0613079
0.0658129
0.069802
0.0731854
0.0759003
0.0779176
0.0792453
0.0799291
0.0800493
0.0797145
0.0790523
0.0781997
0.0772927
0.0764577
0.0758092
0.0753996
0.000167789
0.000133342
5.3895e-05
-6.93686e-05
-0.000225589
-0.000407322
-0.000608159
-0.000823015
-0.00104814
-0.00128104
-0.00152021
-0.00176501
-0.00201534
-0.00227153
-0.00253407
-0.00280355
-0.00308051
-0.00336534
-0.00365825
-0.00395918
-0.00426781
-0.00458347
-0.00490511
-0.00523132
-0.00556017
-0.00588924
-0.00621551
-0.00653527
-0.00684402
-0.00713635
-0.00740583
-0.00764484
-0.0078444
-0.00799405
-0.00808167
-0.00809329
-0.00801297
-0.00782271
-0.0075023
-0.00702942
-0.00637964
-0.00552667
-0.00444271
-0.00309901
-0.00146663
0.000482563
0.00277456
0.00543169
0.00847074
0.0119009
0.0157218
0.0199196
0.0244701
0.0293297
0.0344375
0.0397172
0.0450746
0.0504019
0.0555803
0.0604866
0.0649996
0.0690084
0.072421
0.0751725
0.0772314
0.0786037
0.0793333
0.0794991
0.0792079
0.0785853
0.0777646
0.0768763
0.0760392
0.0753508
0.0748607
0.000255609
0.000207707
0.000119461
-7.48694e-06
-0.000163821
-0.000342857
-0.000538974
-0.000747766
-0.000966019
-0.0011916
-0.00142329
-0.00166056
-0.00190338
-0.00215205
-0.002407
-0.00266875
-0.00293772
-0.00321421
-0.00349833
-0.00378996
-0.0040887
-0.00439386
-0.0047044
-0.00501892
-0.00533559
-0.0056521
-0.00596559
-0.00627258
-0.00656885
-0.00684933
-0.007108
-0.00733772
-0.00753006
-0.00767517
-0.0077616
-0.00777609
-0.00770348
-0.00752648
-0.00722564
-0.00677929
-0.00616359
-0.00535267
-0.00431897
-0.00303375
-0.00146777
0.000407682
0.00261956
0.00519149
0.00814196
0.0114822
0.015214
0.0193265
0.0237974
0.028586
0.0336344
0.0388679
0.0441943
0.0495064
0.0546859
0.0596085
0.0641513
0.0682009
0.0716623
0.0744669
0.0765799
0.0780044
0.078782
0.0789898
0.0787333
0.0781366
0.0773305
0.0764416
0.075583
0.074838
0.0742559
0.000357639
0.000293737
0.000194407
6.18546e-05
-9.63329e-05
-0.000274192
-0.000466871
-0.000670632
-0.000882807
-0.00110168
-0.0013263
-0.00155633
-0.00179183
-0.00203311
-0.0022806
-0.00253472
-0.00279585
-0.00306421
-0.00333982
-0.00362251
-0.00391184
-0.00420712
-0.00450734
-0.00481114
-0.00511683
-0.00542223
-0.00572471
-0.00602104
-0.00630734
-0.00657896
-0.00683032
-0.00705483
-0.00724467
-0.00739066
-0.00748206
-0.00750638
-0.00744919
-0.00729398
-0.00702198
-0.00661213
-0.00604105
-0.00528315
-0.00431093
-0.0030954
-0.00160681
0.000184482
0.00230669
0.00478508
0.00764014
0.0108854
0.0145254
0.0185523
0.0229459
0.0276687
0.0326656
0.037864
0.043173
0.0484864
0.0536854
0.0586446
0.0632384
0.0673502
0.0708805
0.0737565
0.0759387
0.0774263
0.0782578
0.0785082
0.0782816
0.0777011
0.0768962
0.0759909
0.0750952
0.0742806
0.0735985
0.000472176
0.000390045
0.000277565
0.000137667
-2.39409e-05
-0.000201995
-0.0003924
-0.000592087
-0.000798946
-0.00101169
-0.00122969
-0.00145281
-0.00168124
-0.00191534
-0.00215554
-0.00240224
-0.00265576
-0.00291625
-0.0031837
-0.00345789
-0.00373838
-0.00402447
-0.00431523
-0.00460939
-0.00490539
-0.00520126
-0.00549461
-0.00578255
-0.00606158
-0.0063275
-0.00657527
-0.0067989
-0.00699124
-0.00714383
-0.00724669
-0.00728811
-0.00725445
-0.00712991
-0.00689639
-0.00653335
-0.00601778
-0.00532421
-0.00442501
-0.00329075
-0.00189085
-0.000194519
0.00182802
0.00420398
0.00695615
0.0101007
0.013645
0.0175844
0.0219015
0.0265619
0.0315134
0.0366853
0.0419887
0.0473177
0.0525531
0.0575677
0.0622331
0.0664282
0.0700486
0.0730157
0.0752845
0.0768491
0.0777438
0.0780411
0.0778434
0.0772732
0.0764597
0.0755259
0.0745805
0.0736865
0.0728992
0.000597489
0.000495153
0.000367694
0.000218891
5.24598e-05
-0.00012702
-0.000316208
-0.000512707
-0.000714971
-0.000922167
-0.00113401
-0.00135059
-0.00157226
-0.00179944
-0.00203261
-0.00227215
-0.00251835
-0.00277132
-0.00303103
-0.00329723
-0.0035695
-0.0038472
-0.00412944
-0.0044151
-0.00470281
-0.00499082
-0.00527707
-0.00555902
-0.00583363
-0.0060972
-0.00634531
-0.00657261
-0.00677269
-0.00693786
-0.00705893
-0.00712502
-0.00712325
-0.00703855
-0.00685343
-0.00654778
-0.00609883
-0.00548112
-0.00466667
-0.00362541
-0.00232571
-0.000735377
0.0011772
0.00344142
0.00608265
0.00911993
0.0125636
0.0164127
0.0206525
0.0252521
0.0301622
0.0353146
0.0406218
0.0459787
0.0512657
0.0563533
0.0611099
0.0654095
0.0691417
0.072221
0.0745958
0.0762537
0.0772242
0.0775759
0.0774097
0.0768475
0.0760188
0.0750474
0.0740428
0.073062
0.0721661
0.000731824
0.000607545
0.000463493
0.000304397
0.000131894
-5.01135e-05
-0.000239039
-0.000433164
-0.000631522
-0.000833743
-0.0010399
-0.00125035
-0.00146561
-0.00168621
-0.00191266
-0.00214537
-0.00238461
-0.00263048
-0.00288293
-0.00314173
-0.00340648
-0.00367661
-0.00395135
-0.00422976
-0.00451065
-0.0047926
-0.00507386
-0.00535236
-0.00562552
-0.00589027
-0.0061428
-0.00637852
-0.00659177
-0.0067757
-0.00692197
-0.0070205
-0.00705921
-0.0070237
-0.00689705
-0.0066595
-0.00628839
-0.00575811
-0.00504019
-0.00410368
-0.00291574
-0.0014425
0.000349662
0.00249259
0.00501438
0.00793717
0.0112746
0.0150292
0.0191897
0.0237284
0.0285994
0.033737
0.0390556
0.0444509
0.0498027
0.0549796
0.0598462
0.0642711
0.068137
0.0713508
0.0738527
0.0756227
0.0766841
0.0771011
0.076972
0.0764186
0.0755713
0.074556
0.0734849
0.0724116
0.0714052
0.000873416
0.000725672
0.000563605
0.00039299
0.000213309
2.77947e-05
-0.00016173
-0.000354233
-0.000549334
-0.000747146
-0.000948114
-0.00115287
-0.00136212
-0.00157651
-0.00179662
-0.00202289
-0.00225559
-0.00249483
-0.00274056
-0.0029926
-0.00325059
-0.00351406
-0.00378239
-0.00405484
-0.00433048
-0.00460821
-0.00488672
-0.00516439
-0.00543922
-0.00570877
-0.00596997
-0.00621898
-0.006451
-0.00666003
-0.0068386
-0.00697748
-0.00706535
-0.00708848
-0.00703039
-0.00687163
-0.00658954
-0.00615817
-0.00554843
-0.00472831
-0.00366354
-0.00231843
-0.000657133
0.00135478
0.00374834
0.00654891
0.00977365
0.0134286
0.0175062
0.0219825
0.0268148
0.0319405
0.037276
0.0427181
0.0481463
0.0534273
0.0584216
0.0629921
0.067014
0.0703853
0.0730369
0.0749399
0.07611
0.0766056
0.0765223
0.0759812
0.0751146
0.0740515
0.0729088
0.0717389
0.0706208
0.00102051
0.000847951
0.00066662
0.000483405
0.000295575
0.000105685
-8.5213e-05
-0.000276784
-0.000469246
-0.000663201
-0.000859482
-0.00105901
-0.00126268
-0.00147129
-0.00168549
-0.00190576
-0.0021324
-0.00236553
-0.00260515
-0.00285111
-0.00310314
-0.00336091
-0.00362396
-0.0038918
-0.0041638
-0.00443926
-0.0047173
-0.00499684
-0.00527653
-0.00555461
-0.0058288
-0.00609608
-0.00635255
-0.0065931
-0.00681115
-0.00699832
-0.00714403
-0.00723516
-0.00725565
-0.00718623
-0.00700411
-0.0066829
-0.0061927
-0.0055003
-0.00456985
-0.00336369
-0.00184359
2.75784e-05
0.00228391
0.00495411
0.00805897
0.0116083
0.0155984
0.020009
0.0248015
0.0299161
0.035272
0.0407673
0.0462816
0.0516797
0.0568182
0.0615539
0.0657538
0.0693062
0.0721314
0.0741902
0.0754888
0.0760792
0.076053
0.0755304
0.0746462
0.0735336
0.0723159
0.0710464
0.0698157
0.00117133
0.00097277
0.000771073
0.000574313
0.000377482
0.000182451
-1.05124e-05
-0.000201784
-0.000392189
-0.00058283
-0.000774933
-0.000969713
-0.00116828
-0.00137158
-0.00158033
-0.00179509
-0.00201618
-0.00224378
-0.00247792
-0.00271852
-0.00296544
-0.00321849
-0.00347744
-0.00374205
-0.00401207
-0.00428722
-0.00456712
-0.0048513
-0.00513909
-0.00542947
-0.005721
-0.00601157
-0.00629818
-0.00657666
-0.00684134
-0.00708466
-0.00729678
-0.00746511
-0.00757397
-0.00760413
-0.00753259
-0.00733239
-0.00697265
-0.00641888
-0.00563349
-0.00457672
-0.0032079
-0.00148709
0.000622929
0.0031543
0.00613155
0.00956842
0.0134651
0.0178056
0.0225551
0.0276577
0.0330354
0.0385884
0.0441964
0.0497228
0.0550206
0.0599401
0.0643397
0.0680972
0.0711208
0.0733594
0.0748088
0.0755123
0.0755568
0.0750616
0.0741637
0.073002
0.0717073
0.0703359
0.0689915
0.00132411
0.00109848
0.00087545
0.000664319
0.000457744
0.000256903
6.12549e-05
-0.000130297
-0.000319195
-0.00050705
-0.000695487
-0.000886023
-0.00107998
-0.00127845
-0.00148227
-0.00169204
-0.00190814
-0.0021308
-0.00236011
-0.00259611
-0.00283878
-0.00308811
-0.00334413
-0.00360693
-0.00387664
-0.00415345
-0.00443756
-0.00472915
-0.00502827
-0.00533473
-0.00564797
-0.0059668
-0.0062892
-0.00661194
-0.00693026
-0.00723742
-0.00752426
-0.00777872
-0.00798534
-0.0081249
-0.00817405
-0.00810514
-0.00788625
-0.00748141
-0.00685126
-0.00595387
-0.00474604
-0.00318498
-0.00123032
0.00115356
0.00399502
0.00731182
0.0111082
0.0153726
0.0200747
0.0251624
0.0305613
0.036174
0.0418812
0.0475453
0.0530156
0.0581362
0.0627566
0.0667429
0.0699904
0.0724345
0.0740584
0.0748958
0.0750272
0.0745704
0.0736651
0.0724562
0.0710839
0.069609
0.0681494
0.00147707
0.00122341
0.000978182
0.00075196
0.000534999
0.000327762
0.00012888
-6.34799e-05
-0.000251389
-0.000436971
-0.000622253
-0.000809054
-0.000998918
-0.00119308
-0.00139249
-0.0015978
-0.00180948
-0.00202781
-0.00225298
-0.00248513
-0.0027244
-0.00297102
-0.0032253
-0.00348768
-0.00375873
-0.00403917
-0.00432981
-0.00463154
-0.00494519
-0.00527145
-0.00561068
-0.00596267
-0.00632636
-0.00669951
-0.00707826
-0.00745667
-0.00782622
-0.00817528
-0.00848859
-0.0087468
-0.00892612
-0.00899812
-0.00892972
-0.00868344
-0.00821805
-0.0074894
-0.00645178
-0.00505953
-0.00326914
-0.0010415
0.00165566
0.00484423
0.00853258
0.0127136
0.0173621
0.0224304
0.0278479
0.0335203
0.0393299
0.0451386
0.0507927
0.0561302
0.0609913
0.0652299
0.0687271
0.0714032
0.0732272
0.074221
0.0744579
0.0740529
0.0731482
0.0718959
0.0704466
0.0688669
0.0672902
0.00162841
0.00134584
0.00107765
0.000835707
0.000607806
0.000393665
0.000191064
-2.58493e-06
-0.000189991
-0.000373795
-0.000556426
-0.000740004
-0.00092629
-0.00111667
-0.0013122
-0.00151362
-0.00172145
-0.00193606
-0.00215775
-0.00238678
-0.00262351
-0.0028684
-0.00312208
-0.0033854
-0.0036594
-0.00394538
-0.00424482
-0.00455935
-0.00489066
-0.00524033
-0.0056097
-0.00599956
-0.00640985
-0.00683931
-0.00728497
-0.00774165
-0.00820142
-0.00865303
-0.00908132
-0.00946674
-0.00978498
-0.0100067
-0.0100976
-0.0100187
-0.00972684
-0.00917561
-0.00831681
-0.00710198
-0.0054845
-0.00342185
-0.000877669
0.00217411
0.00574584
0.00983519
0.0144227
0.0194652
0.0248966
0.0306264
0.0365392
0.0424973
0.0483442
0.0539123
0.0590325
0.0635461
0.0673188
0.0702542
0.0723052
0.0734802
0.073843
0.0735053
0.0726115
0.0713211
0.0697963
0.0681109
0.0664148
0.00177629
0.001464
0.00117216
0.000913963
0.000674646
0.000453163
0.000246417
5.10441e-05
-0.000136312
-0.00031881
-0.000499281
-0.000680143
-0.000863368
-0.00105049
-0.00124267
-0.00144073
-0.00164528
-0.00185677
-0.00207561
-0.00230224
-0.00253723
-0.00278132
-0.0030355
-0.00330104
-0.00357954
-0.00387289
-0.0041833
-0.00451319
-0.00486513
-0.00524167
-0.00564513
-0.00607734
-0.00653927
-0.00703059
-0.00754922
-0.00809071
-0.00864767
-0.00920914
-0.00975999
-0.0102804
-0.0107454
-0.0111248
-0.011383
-0.0114794
-0.0113688
-0.0110029
-0.0103308
-0.00930144
-0.00786514
-0.00597609
-0.00359357
-0.000687455
0.00275792
0.00674696
0.0112649
0.0162736
0.0217124
0.0274951
0.0335095
0.0396189
0.0456651
0.0514754
0.0568713
0.0616813
0.0657548
0.0689772
0.0712833
0.0726657
0.0731773
0.0729245
0.0720538
0.0707322
0.0691343
0.0673426
0.0655244
0.00191886
0.0015761
0.00125999
0.00098506
0.000733921
0.000504723
0.00029346
9.59728e-05
-9.17504e-05
-0.00027339
-0.000452173
-0.000630809
-0.000811474
-0.00099585
-0.00118519
-0.00138041
-0.0015822
-0.00179112
-0.00200771
-0.0022326
-0.00246659
-0.00271074
-0.00296643
-0.0032354
-0.00351983
-0.00382226
-0.00414567
-0.00449331
-0.00486869
-0.00527533
-0.0057166
-0.00619535
-0.00671357
-0.0072719
-0.00786908
-0.00850134
-0.0091618
-0.0098397
-0.0105199
-0.0111822
-0.0118009
-0.0123449
-0.0127773
-0.0130558
-0.0131335
-0.0129598
-0.0124816
-0.011645
-0.0103976
-0.00869011
-0.00647774
-0.00372699
-0.000418668
0.00346201
0.00790038
0.0128659
0.0183037
0.0241326
0.0302445
0.0365046
0.0427539
0.0488151
0.0545011
0.0596273
0.0640259
0.067563
0.0701532
0.071771
0.0724559
0.0723079
0.0714741
0.0701296
0.0684623
0.0665637
0.0646204
0.00205421
0.00168028
0.00133934
0.00104726
0.000783955
0.000546727
0.000330626
0.000130679
-5.77925e-05
-0.000238989
-0.000416528
-0.000593401
-0.000771981
-0.000954084
-0.00114106
-0.00133392
-0.00153344
-0.00174028
-0.00195515
-0.00217887
-0.00241251
-0.00265748
-0.00291557
-0.00318907
-0.00348072
-0.0037938
-0.00413206
-0.00449965
-0.00490104
-0.00534077
-0.00582323
-0.00635235
-0.00693111
-0.00756109
-0.00824183
-0.0089702
-0.00973973
-0.0105398
-0.0113552
-0.0121653
-0.0129437
-0.0136582
-0.0142706
-0.0147371
-0.015009
-0.0150335
-0.0147554
-0.0141181
-0.0130662
-0.0115464
-0.00951234
-0.00692794
-0.00376402
-3.38571e-06
0.00434416
0.00925587
0.0146826
0.020549
0.0267518
0.0331591
0.0396122
0.0459303
0.0519181
0.0573779
0.0621249
0.0660038
0.0689074
0.0707898
0.0716746
0.0716532
0.0708724
0.0695148
0.0677824
0.0657768
0.063705
0.00218041
0.00177462
0.00140833
0.00109875
0.00082299
0.00057747
0.000356261
0.000153553
-3.6006e-05
-0.000217136
-0.000393839
-0.000569375
-0.000746301
-0.000926562
-0.0011116
-0.00130251
-0.00150016
-0.00170534
-0.00191892
-0.00214195
-0.00237578
-0.00262221
-0.00288347
-0.00316241
-0.00346241
-0.00378751
-0.00414227
-0.00453179
-0.00496148
-0.00543695
-0.00596366
-0.00654655
-0.00718962
-0.00789535
-0.00866403
-0.00949312
-0.0103765
-0.0113037
-0.0122592
-0.013222
-0.014165
-0.0150548
-0.0158519
-0.0165111
-0.0169819
-0.0172096
-0.0171367
-0.0167043
-0.0158538
-0.0145293
-0.0126833
-0.0102723
-0.00726016
-0.00363209
0.000614111
0.00546056
0.0108648
0.0167581
0.0230429
0.0295912
0.0362457
0.0428232
0.0491213
0.0549299
0.0600462
0.0642933
0.0675397
0.0697169
0.0708297
0.0709587
0.0702486
0.0688894
0.0670975
0.0649849
0.0627813
0.00229546
0.00185717
0.00146504
0.00113764
0.000849188
0.000595165
0.000368626
0.000162903
-2.80375e-05
-0.000209434
-0.000385659
-0.000560231
-0.000735879
-0.000914663
-0.00109812
-0.00128741
-0.0014835
-0.00168733
-0.00189994
-0.00212262
-0.00235705
-0.00260542
-0.00287046
-0.00315558
-0.00346487
-0.00380313
-0.0041758
-0.00458892
-0.00504892
-0.00556244
-0.00613601
-0.00677562
-0.00748624
-0.00827121
-0.00913154
-0.0100652
-0.0110664
-0.0121246
-0.0132242
-0.0143436
-0.0154548
-0.0165235
-0.017509
-0.0183645
-0.0190378
-0.0194725
-0.019609
-0.0193862
-0.0187432
-0.017622
-0.0159698
-0.0137379
-0.0108892
-0.00740243
-0.00326871
0.00150036
0.00686963
0.0127776
0.0191331
0.0258134
0.0326638
0.0395
0.0461136
0.0522828
0.0577871
0.0624269
0.0660453
0.0685479
0.0699184
0.0702233
0.0696038
0.0682559
0.0664108
0.064192
0.061853
0.00239731
0.00192588
0.00150746
0.00116196
0.000860626
0.000597937
0.000365896
0.000156956
-3.56083e-05
-0.000217547
-0.000393594
-0.000567509
-0.00074218
-0.000919769
-0.00110189
-0.00128979
-0.00148453
-0.00168719
-0.00189901
-0.00212154
-0.00235681
-0.00260742
-0.00287664
-0.00316849
-0.00348777
-0.0038401
-0.00423181
-0.0046699
-0.00516184
-0.00571533
-0.00633795
-0.00703673
-0.00781756
-0.00868461
-0.00963957
-0.0106809
-0.0118029
-0.0129952
-0.0142418
-0.0155205
-0.0168026
-0.0180528
-0.019229
-0.0202831
-0.0211614
-0.0218056
-0.0221545
-0.0221448
-0.0217134
-0.0207994
-0.0193463
-0.0173022
-0.0146262
-0.0112904
-0.00728047
-0.00260122
0.00271976
0.00862866
0.0150418
0.0218425
0.0288802
0.0359707
0.0429012
0.0494392
0.0553472
0.0604025
0.0644207
0.0672797
0.0689385
0.0694468
0.0689394
0.0676174
0.0657268
0.0634027
0.060925
0.00248387
0.00197866
0.00153351
0.00116968
0.000855299
0.000583827
0.000346164
0.00013386
-6.051e-05
-0.0002432
-0.000419295
-0.000592779
-0.000766681
-0.000943254
-0.00112418
-0.00131079
-0.00150424
-0.00170576
-0.0019168
-0.00213921
-0.00237536
-0.00262832
-0.00290191
-0.00320079
-0.00353053
-0.00389754
-0.00430911
-0.00477321
-0.00529836
-0.00589332
-0.0065667
-0.00732654
-0.00817965
-0.00913096
-0.0101828
-0.0113339
-0.012579
-0.0139074
-0.0153028
-0.0167426
-0.0181971
-0.01963
-0.0209981
-0.022252
-0.0233364
-0.0241917
-0.0247547
-0.0249603
-0.0247433
-0.0240402
-0.0227912
-0.0209414
-0.0184456
-0.0152701
-0.0113949
-0.00681792
-0.00155897
0.00433626
0.0107921
0.0176994
0.0249125
0.0322494
0.0394943
0.0464055
0.0527294
0.05822
0.0626646
0.0659106
0.0678891
0.0686296
0.0682577
0.0669778
0.0650504
0.0626229
0.0600032
0.00255297
0.00201333
0.00154103
0.00115865
0.000831112
0.00055079
0.00030744
9.16854e-05
-0.0001046
-0.000288174
-0.000464453
-0.000637631
-0.00081086
-0.000986471
-0.00116621
-0.00135147
-0.00154353
-0.00174377
-0.00195387
-0.00217597
-0.00241284
-0.00266803
-0.00294594
-0.00325191
-0.00359226
-0.00397429
-0.00440622
-0.00489702
-0.00545624
-0.0060937
-0.00681907
-0.00764131
-0.00856813
-0.0096052
-0.0107553
-0.0120177
-0.013387
-0.0148526
-0.0163978
-0.0179992
-0.0196265
-0.0212423
-0.0228023
-0.0242558
-0.0255464
-0.0266128
-0.0273904
-0.0278124
-0.0278114
-0.0273217
-0.0262806
-0.0246302
-0.022321
-0.0193141
-0.0155838
-0.011121
-0.00593791
-7.16149e-05
0.00641095
0.0134087
0.0207827
0.0283546
0.0359073
0.043192
0.04994
0.0558826
0.0607778
0.0644403
0.0667703
0.0677731
0.0675618
0.0663418
0.0643876
0.0618592
0.0590945
0.00260238
0.00202766
0.00152778
0.00112665
0.000785882
0.000496691
0.00024765
2.84323e-05
-0.000169799
-0.000354294
-0.000530787
-0.000703665
-0.000876185
-0.00105074
-0.00122913
-0.00141282
-0.0016032
-0.00180182
-0.00201059
-0.00223199
-0.00246919
-0.00272625
-0.00300817
-0.00332099
-0.00367185
-0.00406891
-0.00452133
-0.00503913
-0.00563288
-0.00631344
-0.00709147
-0.0079769
-0.00897825
-0.0101018
-0.011351
-0.0127252
-0.0142191
-0.015822
-0.0175167
-0.0192793
-0.0210786
-0.0228763
-0.0246271
-0.0262791
-0.0277745
-0.029051
-0.0300424
-0.0306803
-0.0308957
-0.0306206
-0.0297897
-0.0283422
-0.0262247
-0.0233935
-0.0198171
-0.0154799
-0.0103861
-0.00456413
0.00192817
0.0089988
0.0165167
0.0243088
0.0321589
0.0398129
0.0469888
0.0533962
0.0587634
0.0628708
0.0655838
0.0668799
0.0668558
0.0657151
0.0637455
0.0611195
0.0582074
0.0026298
0.00201932
0.00149142
0.00107137
0.000717332
0.000419308
0.000164641
-5.79721e-05
-0.000258082
-0.000443425
-0.000620039
-0.000792482
-0.000964102
-0.00113734
-0.00131404
-0.00149574
-0.00168394
-0.00188037
-0.00208721
-0.00230726
-0.00254414
-0.00280244
-0.00308778
-0.00340695
-0.00376788
-0.00417965
-0.00465238
-0.00519708
-0.00582538
-0.00654915
-0.00738004
-0.00832886
-0.00940491
-0.0106151
-0.0119633
-0.0134489
-0.015067
-0.0168064
-0.0186495
-0.0205718
-0.0225413
-0.0245189
-0.0264581
-0.0283061
-0.030004
-0.0314881
-0.0326911
-0.0335433
-0.033974
-0.0339132
-0.0332933
-0.0320508
-0.0301287
-0.0274788
-0.0240641
-0.0198625
-0.0148706
-0.00910819
-0.00262346
0.00450129
0.0121441
0.0201386
0.0282718
0.0362865
0.0438897
0.0507704
0.0566277
0.0612058
0.0643328
0.0659538
0.0661448
0.0651045
0.0631321
0.0604128
0.0573512
0.00263285
0.00198587
0.00142952
0.000990393
0.000623088
0.000316328
5.61765e-05
-0.000169668
-0.000371479
-0.000557469
-0.000733964
-0.000905675
-0.00107602
-0.00124749
-0.00142195
-0.00160101
-0.0017863
-0.00197975
-0.00218379
-0.00240159
-0.00263724
-0.00289587
-0.00318377
-0.00350846
-0.00387872
-0.00430453
-0.004797
-0.00536814
-0.00603058
-0.00679722
-0.00768062
-0.00869248
-0.00984278
-0.0111391
-0.0125854
-0.0141815
-0.0159223
-0.0177964
-0.0197859
-0.0218655
-0.0240024
-0.0261567
-0.028281
-0.0303214
-0.0322181
-0.0339063
-0.0353176
-0.036381
-0.0370244
-0.0371761
-0.0367665
-0.0357295
-0.0340048
-0.0315399
-0.0282931
-0.0242359
-0.0193575
-0.013669
-0.00720904
-4.95443e-05
0.0076975
0.0158742
0.0242729
0.0326354
0.0406603
0.0480184
0.0543798
0.059452
0.0630224
0.0649999
0.0654351
0.0645177
0.0625568
0.0597492
0.056537
0.00260906
0.00192482
0.00133954
0.000881202
0.000500673
0.00018534
-8.00623e-05
-0.000308865
-0.000512067
-0.000698352
-0.00087432
-0.00104482
-0.00121332
-0.00138234
-0.00155378
-0.00172932
-0.00191072
-0.00210011
-0.00230022
-0.0025146
-0.00274782
-0.00300558
-0.00329487
-0.00362396
-0.00400248
-0.00444135
-0.00495262
-0.00554933
-0.0062451
-0.00705379
-0.00798888
-0.00906285
-0.0102864
-0.0116675
-0.0132106
-0.0149152
-0.0167767
-0.018783
-0.0209158
-0.0231493
-0.0254499
-0.0277768
-0.0300817
-0.0323099
-0.0344007
-0.0362882
-0.0379032
-0.0391734
-0.0400256
-0.0403866
-0.0401849
-0.0393521
-0.0378249
-0.0355474
-0.0324728
-0.028567
-0.0238121
-0.0182109
-0.0117921
-0.00461728
0.00321252
0.0115493
0.0201925
0.028886
0.0373226
0.045157
0.0520321
0.0576183
0.0616599
0.0640252
0.0647344
0.063964
0.0620299
0.0591405
0.0557768
0.00255588
0.00183353
0.00121884
0.00074116
0.000347502
2.38392e-05
-0.000246477
-0.000477833
-0.000681966
-0.000868023
-0.00104286
-0.00121145
-0.00137731
-0.00154296
-0.00171034
-0.00188121
-0.00205747
-0.00224146
-0.00243622
-0.00264573
-0.00287502
-0.00313043
-0.00341963
-0.00375168
-0.00413709
-0.00458767
-0.00511648
-0.00573751
-0.00646538
-0.00731487
-0.00830033
-0.00943499
-0.0107301
-0.0121942
-0.013832
-0.0156426
-0.0176218
-0.0197569
-0.0220294
-0.0244125
-0.0268722
-0.0293666
-0.0318469
-0.0342573
-0.0365363
-0.0386173
-0.0404301
-0.0419015
-0.0429572
-0.0435228
-0.0435249
-0.0428934
-0.0415623
-0.0394723
-0.0365723
-0.0328231
-0.0281999
-0.0226976
-0.0163354
-0.00916408
-0.00127329
0.00720011
0.0160645
0.0250685
0.0339021
0.042207
0.0496008
0.0557171
0.0602549
0.0630384
0.0640519
0.0634536
0.0615633
0.0585995
0.0550845
0.00247066
0.00170928
0.00106464
0.00056751
0.000160872
-0.000170786
-0.000445554
-0.000678909
-0.000883336
-0.00106844
-0.00124133
-0.00140708
-0.00156924
-0.00173033
-0.00189235
-0.00205711
-0.00222668
-0.00240363
-0.00259134
-0.0027942
-0.00301779
-0.00326906
-0.0035564
-0.00388968
-0.00428027
-0.00474092
-0.00528564
-0.00592939
-0.00668773
-0.00757636
-0.00861042
-0.00980385
-0.0111685
-0.0127132
-0.0144429
-0.0163561
-0.0184495
-0.0207095
-0.0231171
-0.0256449
-0.0282581
-0.0309142
-0.0335636
-0.0361496
-0.0386101
-0.0408778
-0.0428815
-0.0445473
-0.0458
-0.0465639
-0.0467645
-0.0463296
-0.0451913
-0.043287
-0.0405622
-0.0369724
-0.0324872
-0.0270934
-0.0208015
-0.0136514
-0.005721
0.00286492
0.0119255
0.0212165
0.0304283
0.0391929
0.0471053
0.0537634
0.0588195
0.0620502
0.0633985
0.0629986
0.0611703
0.0581407
0.0544753
0.00235062
0.00154918
0.000874036
0.000357358
-6.20453e-05
-0.000401254
-0.000679868
-0.000914492
-0.00111837
-0.00130158
-0.00147145
-0.00163316
-0.00179027
-0.00194535
-0.00210038
-0.0022573
-0.00241832
-0.00258629
-0.00276494
-0.0029591
-0.0031749
-0.00341995
-0.00370336
-0.00403584
-0.00442961
-0.00489837
-0.00545705
-0.00612158
-0.00690843
-0.00783413
-0.00891461
-0.0101644
-0.0115959
-0.0132183
-0.0150369
-0.0170487
-0.0192522
-0.0216323
-0.0241698
-0.0268366
-0.0295973
-0.0324085
-0.0352199
-0.0379743
-0.0406087
-0.0430551
-0.0452418
-0.0470942
-0.048536
-0.0494908
-0.0498829
-0.0496386
-0.0486878
-0.0469657
-0.0444143
-0.0409849
-0.0366414
-0.0313638
-0.0251537
-0.0180408
-0.0100911
-0.00141652
0.00781421
0.0173664
0.0269341
0.036143
0.0445689
0.051776
0.0573688
0.0610735
0.0627867
0.0626124
0.0608657
0.0577801
0.0539661
0.00219289
0.00135025
0.000643955
0.000107661
-0.000324212
-0.000670399
-0.000952084
-0.00118704
-0.0013893
-0.00156939
-0.0017349
-0.00189107
-0.00204151
-0.00218876
-0.00233488
-0.00248189
-0.0026322
-0.00278893
-0.00295619
-0.0031393
-0.00334493
-0.00358139
-0.00385854
-0.0041879
-0.00458258
-0.0050572
-0.00562761
-0.00631066
-0.00712371
-0.00808408
-0.00920841
-0.0105119
-0.0120072
-0.0137038
-0.0156077
-0.0177136
-0.0200224
-0.0225173
-0.0251791
-0.0279787
-0.03088
-0.033839
-0.0368048
-0.0397195
-0.0425194
-0.045136
-0.0474969
-0.0495269
-0.0511491
-0.0522861
-0.0528614
-0.0527999
-0.05203
-0.0504846
-0.0481029
-0.0448324
-0.0406321
-0.0354756
-0.0293566
-0.0222947
-0.0143441
-0.0056039
0.00377081
0.0135569
0.0234551
0.0330889
0.0420182
0.0497768
0.0559205
0.0601238
0.0622313
0.0623103
0.060666
0.0575354
0.0535755
0.00199441
0.00110929
0.000371165
-0.00018479
-0.000628741
-0.000981181
-0.00126496
-0.00149908
-0.00169837
-0.00187385
-0.00203333
-0.00218215
-0.00232393
-0.00246123
-0.00259616
-0.00273086
-0.00286796
-0.00301088
-0.00316413
-0.00333353
-0.00352633
-0.00375156
-0.00401982
-0.00434349
-0.00473656
-0.00521452
-0.00579417
-0.00649322
-0.00732986
-0.00832219
-0.00948749
-0.0108414
-0.0123971
-0.0141643
-0.0161497
-0.0183441
-0.0207534
-0.0233575
-0.0261373
-0.0290628
-0.0320974
-0.0351965
-0.0383084
-0.0413747
-0.0443311
-0.0471086
-0.0496341
-0.051832
-0.0536247
-0.0549343
-0.0556833
-0.0557956
-0.0551983
-0.0538223
-0.0516046
-0.0484893
-0.0444312
-0.0393982
-0.0333766
-0.0263768
-0.0184417
-0.00965705
-0.000163824