/*--------------------------------*- C++ -*----------------------------------*\
  =========                 |
  \\      /  F ield         | OpenFOAM: The Open Source CFD Toolbox
   \\    /   O peration     | Website:  https://openfoam.org
    \\  /    A nd           | Version:  12
     \\/     M anipulation  |
\*---------------------------------------------------------------------------*/
FoamFile
{
    format      ascii;
    class       volVectorField;
    location    "4";
    object      U;
}
// * * * * * * * * * * * * * * * * * * * * * * * * * * * * * * * * * * * * * //

dimensions      [0 1 -1 0 0 0 0];

internalField   nonuniform List<vector> 
5625
(
(7.56216e-06 -3.52325e-06 0)
(4.61343e-05 -5.87272e-06 0)
(9.08275e-05 -5.31344e-06 0)
(0.000121343 -3.30818e-06 0)
(0.000127669 -1.00966e-06 0)
(0.000107781 1.23613e-06 0)
(6.27544e-05 3.22827e-06 0)
(-4.79184e-06 4.90369e-06 0)
(-9.16989e-05 6.26323e-06 0)
(-0.000194843 7.34293e-06 0)
(-0.000311462 8.19403e-06 0)
(-0.000439331 8.8738e-06 0)
(-0.000576828 9.43893e-06 0)
(-0.000722938 9.94185e-06 0)
(-0.000877218 1.04289e-05 0)
(-0.00103974 1.09399e-05 0)
(-0.00121101 1.1508e-05 0)
(-0.00139194 1.21606e-05 0)
(-0.00158376 1.29204e-05 0)
(-0.00178794 1.38064e-05 0)
(-0.00200623 1.48345e-05 0)
(-0.00224053 1.6019e-05 0)
(-0.00249294 1.73727e-05 0)
(-0.0027657 1.89078e-05 0)
(-0.00306119 2.06359e-05 0)
(-0.00338189 2.25682e-05 0)
(-0.00373039 2.47153e-05 0)
(-0.00410936 2.70865e-05 0)
(-0.00452151 2.96898e-05 0)
(-0.00496955 3.25306e-05 0)
(-0.00545614 3.5611e-05 0)
(-0.00598384 3.89284e-05 0)
(-0.006555 4.24745e-05 0)
(-0.00717171 4.62332e-05 0)
(-0.0078356 5.01791e-05 0)
(-0.00854782 5.42757e-05 0)
(-0.00930875 5.84728e-05 0)
(-0.0101179 6.27049e-05 0)
(-0.0109738 6.68886e-05 0)
(-0.0118736 7.09205e-05 0)
(-0.0128129 7.46757e-05 0)
(-0.0137855 7.8006e-05 0)
(-0.0147835 8.07394e-05 0)
(-0.0157964 8.26808e-05 0)
(-0.0168118 8.36132e-05 0)
(-0.0178143 8.33018e-05 0)
(-0.0187864 8.15e-05 0)
(-0.0197077 7.79573e-05 0)
(-0.0205556 7.24327e-05 0)
(-0.0213055 6.47421e-05 0)
(-0.0219302 5.44696e-05 0)
(-0.022404 4.18312e-05 0)
(-0.0226968 2.69304e-05 0)
(-0.0227889 9.07681e-06 0)
(-0.0226515 -1.05409e-05 0)
(-0.0222676 -3.20471e-05 0)
(-0.0216243 -5.47716e-05 0)
(-0.0207166 -7.79203e-05 0)
(-0.0195489 -0.000100556 0)
(-0.0181366 -0.000121606 0)
(-0.0165065 -0.000139925 0)
(-0.0146975 -0.000154378 0)
(-0.0127595 -0.000163935 0)
(-0.0107518 -0.000167783 0)
(-0.00874023 -0.000165421 0)
(-0.00679381 -0.000156735 0)
(-0.00498045 -0.000142029 0)
(-0.00336279 -0.000122005 0)
(-0.00199415 -9.76933e-05 0)
(-0.000915226 -7.03464e-05 0)
(-0.000151317 -4.13741e-05 0)
(0.000290188 -1.24819e-05 0)
(0.000424274 1.45887e-05 0)
(0.000312942 3.39128e-05 0)
(8.19953e-05 3.71831e-05 0)
(1.79613e-05 -2.50501e-05 0)
(0.000107375 -4.35939e-05 0)
(0.000200142 -3.72204e-05 0)
(0.000253245 -1.69425e-05 0)
(0.000242945 8.53396e-06 0)
(0.00016282 3.46227e-05 0)
(1.44343e-05 5.89056e-05 0)
(-0.000196308 8.03212e-05 0)
(-0.000461735 9.85915e-05 0)
(-0.00077395 0.000113898 0)
(-0.00112582 0.000126686 0)
(-0.00151149 0.000137524 0)
(-0.00192666 0.000147025 0)
(-0.00236858 0.000155784 0)
(-0.00283609 0.000164353 0)
(-0.00332937 0.000173225 0)
(-0.0038499 0.000182822 0)
(-0.00440019 0.000193507 0)
(-0.0049837 0.000205585 0)
(-0.00560465 0.000219313 0)
(-0.00626791 0.000234911 0)
(-0.00697893 0.000252568 0)
(-0.00774363 0.000272447 0)
(-0.00856836 0.000294694 0)
(-0.00945979 0.000319435 0)
(-0.0104249 0.000346779 0)
(-0.0114709 0.000376809 0)
(-0.0126052 0.000409584 0)
(-0.0138351 0.000445122 0)
(-0.015168 0.000483396 0)
(-0.0166108 0.000524317 0)
(-0.0181701 0.000567721 0)
(-0.0198519 0.00061335 0)
(-0.021661 0.000660836 0)
(-0.0236009 0.000709679 0)
(-0.0256735 0.000759228 0)
(-0.0278783 0.00080866 0)
(-0.0302123 0.000856958 0)
(-0.0326693 0.000902899 0)
(-0.0352391 0.000945033 0)
(-0.0379074 0.000981682 0)
(-0.0406548 0.00101094 0)
(-0.0434564 0.00103067 0)
(-0.0462813 0.00103855 0)
(-0.0490925 0.00103211 0)
(-0.051846 0.00100878 0)
(-0.0544917 0.000965987 0)
(-0.0569728 0.000901267 0)
(-0.0592271 0.000812411 0)
(-0.0611875 0.000697593 0)
(-0.0627825 0.000555203 0)
(-0.0639458 0.000384249 0)
(-0.0645916 0.000189327 0)
(-0.0646802 -3.05535e-05 0)
(-0.0641357 -0.000273319 0)
(-0.0629186 -0.000531247 0)
(-0.0610003 -0.000797863 0)
(-0.0583736 -0.00106445 0)
(-0.055056 -0.00132074 0)
(-0.0510929 -0.00155536 0)
(-0.0465595 -0.00175645 0)
(-0.0415605 -0.00191246 0)
(-0.0362286 -0.00201309 0)
(-0.0307196 -0.00205029 0)
(-0.0252057 -0.00201915 0)
(-0.0198668 -0.00191865 0)
(-0.0148802 -0.00175199 0)
(-0.0104097 -0.00152656 0)
(-0.00659526 -0.00125349 0)
(-0.00354384 -0.000947055 0)
(-0.00132104 -0.000624351 0)
(5.72513e-05 -0.000306539 0)
(0.000637144 -2.30515e-05 0)
(0.000573633 0.000172672 0)
(0.000150421 0.000182352 0)
(2.41124e-05 -5.9826e-05 0)
(0.000140237 -9.75113e-05 0)
(0.000247783 -7.68921e-05 0)
(0.00029097 -2.34017e-05 0)
(0.000237258 4.38168e-05 0)
(7.66065e-05 0.000113436 0)
(-0.000189638 0.000179134 0)
(-0.000553536 0.0002379 0)
(-0.0010042 0.000288766 0)
(-0.00153014 0.000332035 0)
(-0.00212084 0.000368753 0)
(-0.00276754 0.000400351 0)
(-0.00346375 0.000428407 0)
(-0.00420537 0.000454496 0)
(-0.00499061 0.000480095 0)
(-0.00581989 0.000506535 0)
(-0.00669552 0.000534977 0)
(-0.00762153 0.000566422 0)
(-0.00860341 0.000601719 0)
(-0.00964788 0.000641586 0)
(-0.0107627 0.000686634 0)
(-0.0119566 0.000737386 0)
(-0.0132389 0.000794291 0)
(-0.0146197 0.000857737 0)
(-0.0161096 0.000928049 0)
(-0.0177195 0.00100549 0)
(-0.0194609 0.00109025 0)
(-0.021345 0.00118242 0)
(-0.0233832 0.00128198 0)
(-0.0255867 0.00138877 0)
(-0.0279658 0.00150243 0)
(-0.0305302 0.0016224 0)
(-0.0332882 0.00174783 0)
(-0.0362462 0.00187757 0)
(-0.0394082 0.00201008 0)
(-0.0427753 0.00214342 0)
(-0.0463449 0.00227515 0)
(-0.0501099 0.00240233 0)
(-0.0540578 0.00252147 0)
(-0.0581701 0.00262848 0)
(-0.0624212 0.00271869 0)
(-0.0667776 0.00278686 0)
(-0.0711974 0.00282722 0)
(-0.0756294 0.00283357 0)
(-0.0800129 0.0027994 0)
(-0.0842774 0.00271805 0)
(-0.088343 0.00258303 0)
(-0.0921207 0.00238824 0)
(-0.0955141 0.0021284 0)
(-0.0984206 0.00179945 0)
(-0.100733 0.00139862 0)
(-0.102352 0.000922527 0)
(-0.103152 0.000387527 0)
(-0.103075 -0.000215321 0)
(-0.102014 -0.000870006 0)
(-0.0999169 -0.00156189 0)
(-0.0967475 -0.00227209 0)
(-0.0925021 -0.00297766 0)
(-0.0872138 -0.00365203 0)
(-0.0809568 -0.00426608 0)
(-0.0738481 -0.00478967 0)
(-0.0660476 -0.00519367 0)
(-0.0577549 -0.0054522 0)
(-0.049203 -0.00554506 0)
(-0.0406482 -0.00545999 0)
(-0.0323583 -0.00519443 0)
(-0.0245973 -0.0047565 0)
(-0.0176097 -0.00416507 0)
(-0.0116056 -0.00344897 0)
(-0.00674585 -0.00264576 0)
(-0.00312867 -0.00180132 0)
(-0.000776016 -0.000972559 0)
(0.000384143 -0.000236962 0)
(0.000571895 0.000281748 0)
(0.00016618 0.000363332 0)
(2.67638e-05 -0.000101915 0)
(0.000148805 -0.000156763 0)
(0.000244221 -0.0001118 0)
(0.000250107 -1.0438e-05 0)
(0.000128787 0.000115827 0)
(-0.000132137 0.000247162 0)
(-0.000531508 0.000372091 0)
(-0.00105996 0.000484842 0)
(-0.00170428 0.00058339 0)
(-0.00245026 0.000668091 0)
(-0.00328473 0.00074074 0)
(-0.00419669 0.000803909 0)
(-0.00517792 0.0008605 0)
(-0.00622327 0.000913444 0)
(-0.00733054 0.000965521 0)
(-0.00850039 0.00101925 0)
(-0.009736 0.00107687 0)
(-0.0110428 0.00114028 0)
(-0.0124281 0.00121114 0)
(-0.0139011 0.00129082 0)
(-0.015472 0.00138053 0)
(-0.0171525 0.00148125 0)
(-0.0189552 0.00159384 0)
(-0.0208935 0.00171903 0)
(-0.0229815 0.00185741 0)
(-0.0252336 0.00200942 0)
(-0.0276648 0.00217536 0)
(-0.0302899 0.00235531 0)
(-0.0331236 0.00254912 0)
(-0.0361798 0.00275634 0)
(-0.0394716 0.00297614 0)
(-0.0430108 0.00320724 0)
(-0.0468069 0.00344782 0)
(-0.0508667 0.00369544 0)
(-0.0551936 0.00394692 0)
(-0.0597867 0.00419828 0)
(-0.0646397 0.00444463 0)
(-0.0697402 0.00468011 0)
(-0.0750684 0.0048978 0)
(-0.0805961 0.00508974 0)
(-0.0862858 0.00524691 0)
(-0.0920895 0.00535928 0)
(-0.0979482 0.00541593 0)
(-0.103791 0.00540526 0)
(-0.109535 0.00531524 0)
(-0.115085 0.00513378 0)
(-0.120335 0.00484922 0)
(-0.125168 0.00445092 0)
(-0.129458 0.00392991 0)
(-0.133075 0.00327972 0)
(-0.135882 0.00249699 0)
(-0.137752 0.00158037 0)
(-0.138549 0.000545391 0)
(-0.138171 -0.000600548 0)
(-0.136515 -0.00184008 0)
(-0.133516 -0.00314258 0)
(-0.129137 -0.00447271 0)
(-0.123382 -0.00578804 0)
(-0.116299 -0.00703994 0)
(-0.10799 -0.00817557 0)
(-0.0986063 -0.00914059 0)
(-0.0883529 -0.00988262 0)
(-0.0774823 -0.0103552 0)
(-0.066288 -0.0105222 0)
(-0.0550921 -0.0103615 0)
(-0.0442308 -0.00986835 0)
(-0.0340365 -0.00905725 0)
(-0.0248185 -0.00796235 0)
(-0.0168436 -0.00663636 0)
(-0.0103171 -0.00514883 0)
(-0.00536514 -0.00358568 0)
(-0.00201656 -0.00205323 0)
(-0.000181939 -0.0006928 0)
(0.00039859 0.000286283 0)
(0.00015382 0.000529427 0)
(2.69393e-05 -0.000144218 0)
(0.000137493 -0.000209139 0)
(0.000198265 -0.000128384 0)
(0.000143183 3.4633e-05 0)
(-6.77052e-05 0.000235085 0)
(-0.000447803 0.000443729 0)
(-0.000995751 0.000643186 0)
(-0.001701 0.000824392 0)
(-0.00254847 0.000983978 0)
(-0.00352188 0.00112229 0)
(-0.00460603 0.00124196 0)
(-0.00578816 0.00134691 0)
(-0.00705875 0.00144163 0)
(-0.00841185 0.00153072 0)
(-0.00984507 0.00161856 0)
(-0.0113594 0.00170915 0)
(-0.0129588 0.00180606 0)
(-0.0146502 0.00191236 0)
(-0.0164425 0.00203071 0)
(-0.018347 0.00216335 0)
(-0.0203764 0.00231218 0)
(-0.022545 0.0024788 0)
(-0.0248684 0.00266459 0)
(-0.0273628 0.00287065 0)
(-0.0300455 0.00309787 0)
(-0.032934 0.0033469 0)
(-0.0360462 0.00361808 0)
(-0.0393998 0.00391142 0)
(-0.0430121 0.00422651 0)
(-0.0468993 0.00456239 0)
(-0.0510763 0.0049175 0)
(-0.0555558 0.00528951 0)
(-0.0603477 0.0056752 0)
(-0.0654582 0.00607032 0)
(-0.0708889 0.00646942 0)
(-0.0766357 0.00686577 0)
(-0.0826876 0.00725117 0)
(-0.0890257 0.00761589 0)
(-0.0956219 0.00794861 0)
(-0.102438 0.00823634 0)
(-0.109423 0.00846456 0)
(-0.116515 0.00861725 0)
(-0.123639 0.00867718 0)
(-0.130704 0.00862623 0)
(-0.137608 0.00844582 0)
(-0.144232 0.00811758 0)
(-0.150449 0.00762407 0)
(-0.156117 0.00694971 0)
(-0.161088 0.00608187 0)
(-0.165207 0.00501202 0)
(-0.168318 0.00373693 0)
(-0.170275 0.00225872 0)
(-0.170929 0.00059702 0)
(-0.170159 -0.00123093 0)
(-0.16786 -0.00319521 0)
(-0.163963 -0.00524924 0)
(-0.158434 -0.00733772 0)
(-0.151287 -0.00939493 0)
(-0.142587 -0.0113463 0)
(-0.132456 -0.0131112 0)
(-0.121074 -0.0146073 0)
(-0.108682 -0.0157551 0)
(-0.0955725 -0.0164845 0)
(-0.082085 -0.0167403 0)
(-0.0685923 -0.0164888 0)
(-0.0554838 -0.0157224 0)
(-0.0431459 -0.0144626 0)
(-0.0319397 -0.0127613 0)
(-0.0221789 -0.0106992 0)
(-0.0141066 -0.00838431 0)
(-0.00787442 -0.00595075 0)
(-0.00352092 -0.00356414 0)
(-0.000948775 -0.00143919 0)
(0.000119252 0.000122113 0)
(0.000128104 0.000635006 0)
(2.53305e-05 -0.000181557 0)
(0.000110235 -0.000245084 0)
(0.000117237 -0.000115618 0)
(-1.95803e-05 0.000122749 0)
(-0.000340007 0.000411425 0)
(-0.000857193 0.000711413 0)
(-0.00156899 0.000999014 0)
(-0.00246359 0.00126159 0)
(-0.00352435 0.00149427 0)
(-0.00473329 0.00169734 0)
(-0.0060736 0.00187437 0)
(-0.00753119 0.00203077 0)
(-0.00909559 0.00217287 0)
(-0.0107603 0.00230714 0)
(-0.0125229 0.00243984 0)
(-0.0143848 0.0025767 0)
(-0.0163508 0.00272285 0)
(-0.0184291 0.00288274 0)
(-0.0206303 0.0030602 0)
(-0.0229675 0.00325848 0)
(-0.0254557 0.00348033 0)
(-0.0281116 0.00372807 0)
(-0.0309532 0.00400362 0)
(-0.0339996 0.00430855 0)
(-0.0372705 0.00464404 0)
(-0.0407862 0.0050109 0)
(-0.0445669 0.00540946 0)
(-0.0486328 0.00583954 0)
(-0.0530029 0.00630027 0)
(-0.0576951 0.00678998 0)
(-0.0627252 0.00730607 0)
(-0.0681061 0.00784478 0)
(-0.0738471 0.00840103 0)
(-0.0799529 0.0089682 0)
(-0.086422 0.00953797 0)
(-0.0932462 0.0101001 0)
(-0.100409 0.0106423 0)
(-0.107884 0.0111501 0)
(-0.115634 0.0116068 0)
(-0.12361 0.0119935 0)
(-0.131749 0.0122892 0)
(-0.139974 0.0124708 0)
(-0.148194 0.012514 0)
(-0.156301 0.0123934 0)
(-0.164174 0.0120832 0)
(-0.171676 0.0115583 0)
(-0.17866 0.0107954 0)
(-0.184965 0.00977414 0)
(-0.190425 0.00847856 0)
(-0.194869 0.00689891 0)
(-0.198127 0.00503323 0)
(-0.200036 0.00288857 0)
(-0.200446 0.000489727 0)
(-0.199222 -0.00213401 0)
(-0.196262 -0.00493741 0)
(-0.191497 -0.00785609 0)
(-0.184899 -0.0108124 0)
(-0.17649 -0.0137149 0)
(-0.16635 -0.0164604 0)
(-0.154617 -0.0189381 0)
(-0.141494 -0.021035 0)
(-0.127246 -0.0226422 0)
(-0.112197 -0.0236632 0)
(-0.0967196 -0.0240221 0)
(-0.0812255 -0.0236718 0)
(-0.0661448 -0.0226006 0)
(-0.0519065 -0.0208374 0)
(-0.0389145 -0.0184525 0)
(-0.0275219 -0.015558 0)
(-0.0180057 -0.0123043 0)
(-0.0105424 -0.00887998 0)
(-0.00518412 -0.00551654 0)
(-0.00183536 -0.00250767 0)
(-0.0002201 -0.000249278 0)
(9.65526e-05 0.000656352 0)
(2.24432e-05 -0.000210131 0)
(7.02756e-05 -0.000256951 0)
(7.16384e-06 -6.42503e-05 0)
(-0.000229717 0.000263507 0)
(-0.000677871 0.000653976 0)
(-0.001349 0.00105837 0)
(-0.00223948 0.00144656 0)
(-0.00333601 0.00180225 0)
(-0.00462042 0.00211901 0)
(-0.0060733 0.00239709 0)
(-0.00767654 0.00264108 0)
(-0.00941502 0.00285807 0)
(-0.0112776 0.00305635 0)
(-0.0132575 0.00324453 0)
(-0.0153523 0.00343094 0)
(-0.017564 0.00362326 0)
(-0.0198982 0.00382835 0)
(-0.0223643 0.00405223 0)
(-0.0249745 0.00430005 0)
(-0.0277437 0.00457622 0)
(-0.0306887 0.00488442 0)
(-0.0338285 0.00522776 0)
(-0.0371833 0.00560879 0)
(-0.0407744 0.00602951 0)
(-0.0446239 0.0064914 0)
(-0.048754 0.00699537 0)
(-0.0531872 0.00754166 0)
(-0.0579451 0.00812969 0)
(-0.0630482 0.00875798 0)
(-0.068515 0.00942387 0)
(-0.0743617 0.0101234 0)
(-0.0806005 0.0108509 0)
(-0.0872392 0.011599 0)
(-0.0942799 0.0123582 0)
(-0.101718 0.0131166 0)
(-0.109539 0.0138598 0)
(-0.117721 0.0145706 0)
(-0.126229 0.0152291 0)
(-0.135017 0.0158123 0)
(-0.144024 0.0162945 0)
(-0.153176 0.0166474 0)
(-0.162381 0.0168405 0)
(-0.171534 0.0168415 0)
(-0.180511 0.0166172 0)
(-0.189175 0.0161346 0)
(-0.197374 0.0153618 0)
(-0.204945 0.0142697 0)
(-0.211712 0.0128336 0)
(-0.217496 0.0110352 0)
(-0.222116 0.00886428 0)
(-0.225392 0.00632153 0)
(-0.227155 0.00341992 0)
(-0.227251 0.000191217 0)
(-0.225545 -0.00332175 0)
(-0.221934 -0.00705698 0)
(-0.216354 -0.0109307 0)
(-0.208784 -0.0148414 0)
(-0.199252 -0.0186704 0)
(-0.18785 -0.0222846 0)
(-0.174726 -0.0255416 0)
(-0.1601 -0.0282959 0)
(-0.144253 -0.0304076 0)
(-0.127529 -0.0317519 0)
(-0.110326 -0.0322304 0)
(-0.0930821 -0.0317808 0)
(-0.0762604 -0.0303861 0)
(-0.0603241 -0.0280814 0)
(-0.0457129 -0.0249564 0)
(-0.032815 -0.0211554 0)
(-0.0219391 -0.0168747 0)
(-0.0132876 -0.0123613 0)
(-0.00693087 -0.00791684 0)
(-0.00278429 -0.00391675 0)
(-0.000587945 -0.000848739 0)
(6.35229e-05 0.00058295 0)
(1.86588e-05 -0.000226982 0)
(2.0188e-05 -0.000238363 0)
(-0.000127052 3.37598e-05 0)
(-0.000480226 0.000465512 0)
(-0.00107267 0.000971153 0)
(-0.00191348 0.00149233 0)
(-0.00299685 0.00199263 0)
(-0.00430762 0.00245216 0)
(-0.00582603 0.002863 0)
(-0.00753132 0.00322546 0)
(-0.00940427 0.00354527 0)
(-0.011429 0.00383133 0)
(-0.0135938 0.00409411 0)
(-0.0158919 0.00434449 0)
(-0.0183211 0.00459308 0)
(-0.0208838 0.00484966 0)
(-0.0235866 0.00512302 0)
(-0.02644 0.00542087 0)
(-0.0294577 0.00574983 0)
(-0.0326559 0.00611554 0)
(-0.0360536 0.00652273 0)
(-0.0396714 0.00697533 0)
(-0.0435315 0.00747652 0)
(-0.0476571 0.00802877 0)
(-0.052072 0.00863379 0)
(-0.0568005 0.00929251 0)
(-0.0618661 0.0100049 0)
(-0.0672918 0.0107699 0)
(-0.0730986 0.0115851 0)
(-0.0793053 0.0124466 0)
(-0.0859273 0.0133487 0)
(-0.0929757 0.0142834 0)
(-0.100456 0.0152406 0)
(-0.108367 0.0162072 0)
(-0.116699 0.0171672 0)
(-0.125433 0.0181015 0)
(-0.134539 0.0189871 0)
(-0.143974 0.019798 0)
(-0.153682 0.0205043 0)
(-0.163593 0.0210728 0)
(-0.173618 0.0214674 0)
(-0.183655 0.0216495 0)
(-0.193584 0.0215787 0)
(-0.203269 0.0212139 0)
(-0.212558 0.0205147 0)
(-0.221289 0.0194429 0)
(-0.229284 0.0179641 0)
(-0.236361 0.0160501 0)
(-0.24233 0.0136808 0)
(-0.247005 0.0108472 0)
(-0.250203 0.00755339 0)
(-0.251752 0.00381923 0)
(-0.251497 -0.000314809 0)
(-0.249307 -0.00479164 0)
(-0.245083 -0.00953169 0)
(-0.238763 -0.0144308 0)
(-0.230332 -0.019363 0)
(-0.219825 -0.0241819 0)
(-0.207338 -0.0287239 0)
(-0.193028 -0.032814 0)
(-0.177119 -0.0362735 0)
(-0.159904 -0.03893 0)
(-0.141739 -0.0406293 0)
(-0.123038 -0.0412481 0)
(-0.10426 -0.040707 0)
(-0.0858903 -0.0389821 0)
(-0.0684225 -0.036113 0)
(-0.0523274 -0.0322083 0)
(-0.038026 -0.0274453 0)
(-0.0258585 -0.0220676 0)
(-0.016055 -0.0163831 0)
(-0.00870956 -0.0107665 0)
(-0.00375658 -0.00567564 0)
(-0.000963645 -0.00168599 0)
(3.16406e-05 0.000411301 0)
(1.4249e-05 -0.000229761 0)
(-3.80371e-05 -0.000183937 0)
(-0.000281467 0.000185468 0)
(-0.000765342 0.00073651 0)
(-0.00151714 0.0013707 0)
(-0.00254228 0.00202056 0)
(-0.00383199 0.00264373 0)
(-0.00536885 0.00321693 0)
(-0.00713133 0.00373093 0)
(-0.00909729 0.00418627 0)
(-0.0112465 0.00458996 0)
(-0.0135625 0.00495288 0)
(-0.0160333 0.00528783 0)
(-0.018652 0.00560816 0)
(-0.0214168 0.00592687 0)
(-0.0243307 0.00625603 0)
(-0.0274012 0.00660648 0)
(-0.0306397 0.00698773 0)
(-0.0340614 0.00740798 0)
(-0.0376839 0.00787417 0)
(-0.0415277 0.00839214 0)
(-0.045615 0.00896667 0)
(-0.0499696 0.00960157 0)
(-0.0546163 0.0102997 0)
(-0.0595804 0.0110631 0)
(-0.0648873 0.0118924 0)
(-0.0705616 0.0127872 0)
(-0.0766266 0.0137458 0)
(-0.0831037 0.0147646 0)
(-0.0900109 0.0158381 0)
(-0.0973626 0.0169585 0)
(-0.105168 0.0181151 0)
(-0.113429 0.0192944 0)
(-0.12214 0.0204794 0)
(-0.131288 0.0216493 0)
(-0.140847 0.0227795 0)
(-0.150778 0.0238409 0)
(-0.161033 0.0248006 0)
(-0.171543 0.0256214 0)
(-0.182229 0.026262 0)
(-0.192991 0.0266782 0)
(-0.203716 0.0268231 0)
(-0.214272 0.026648 0)
(-0.224512 0.0261043 0)
(-0.234276 0.0251445 0)
(-0.243388 0.0237245 0)
(-0.251668 0.0218056 0)
(-0.258924 0.0193568 0)
(-0.264966 0.0163576 0)
(-0.269603 0.0128008 0)
(-0.272653 0.00869495 0)
(-0.273948 0.00406776 0)
(-0.273334 -0.0010305 0)
(-0.270685 -0.00652825 0)
(-0.265906 -0.0123282 0)
(-0.258939 -0.0183055 0)
(-0.249772 -0.02431 0)
(-0.238443 -0.0301675 0)
(-0.225047 -0.0356842 0)
(-0.209744 -0.0406523 0)
(-0.19276 -0.0448593 0)
(-0.174388 -0.0480996 0)
(-0.15499 -0.0501875 0)
(-0.134989 -0.0509731 0)
(-0.114858 -0.0503576 0)
(-0.0951016 -0.0483073 0)
(-0.0762381 -0.0448649 0)
(-0.0587677 -0.0401558 0)
(-0.0431431 -0.0343902 0)
(-0.0297371 -0.0278599 0)
(-0.018811 -0.0209347 0)
(-0.0104875 -0.0140638 0)
(-0.00472757 -0.00778719 0)
(-0.00133474 -0.00276354 0)
(2.33153e-06 0.000142055 0)
(9.39463e-06 -0.000216597 0)
(-0.000102884 -8.91104e-05 0)
(-0.000452936 0.00039707 0)
(-0.00108033 0.00108347 0)
(-0.00200517 0.00185972 0)
(-0.00322817 0.00264985 0)
(-0.00473685 0.00340601 0)
(-0.00651104 0.00410192 0)
(-0.00852719 0.00472729 0)
(-0.0107617 0.00528314 0)
(-0.0131935 0.00577795 0)
(-0.0158053 0.00622477 0)
(-0.0185851 0.00663887 0)
(-0.0215261 0.00703624 0)
(-0.0246268 0.00743241 0)
(-0.0278908 0.00784185 0)
(-0.0313266 0.00827757 0)
(-0.0349466 0.00875098 0)
(-0.038767 0.00927191 0)
(-0.0428068 0.00984869 0)
(-0.0470877 0.0104883 0)
(-0.0516334 0.0111963 0)
(-0.0564689 0.0119772 0)
(-0.0616203 0.0128342 0)
(-0.0671138 0.0137693 0)
(-0.0729756 0.014783 0)
(-0.0792309 0.0158745 0)
(-0.0859029 0.0170409 0)
(-0.0930124 0.0182772 0)
(-0.100577 0.019576 0)
(-0.108608 0.020927 0)
(-0.117112 0.0223163 0)
(-0.126089 0.0237268 0)
(-0.135528 0.0251367 0)
(-0.145409 0.0265202 0)
(-0.155701 0.0278464 0)
(-0.166358 0.0290799 0)
(-0.177322 0.0301801 0)
(-0.188516 0.0311021 0)
(-0.199851 0.0317965 0)
(-0.211218 0.0322108 0)
(-0.222493 0.0322896 0)
(-0.233535 0.0319764 0)
(-0.24419 0.0312153 0)
(-0.254289 0.0299526 0)
(-0.263652 0.0281388 0)
(-0.272094 0.0257318 0)
(-0.279423 0.022699 0)
(-0.285447 0.0190203 0)
(-0.289979 0.0146913 0)
(-0.29284 0.00972598 0)
(-0.293865 0.00416013 0)
(-0.292908 -0.00194551 0)
(-0.289847 -0.00850508 0)
(-0.28459 -0.015404 0)
(-0.277083 -0.0224972 0)
(-0.267313 -0.0296111 0)
(-0.255317 -0.0365446 0)
(-0.241188 -0.0430739 0)
(-0.225078 -0.048959 0)
(-0.20721 -0.0539535 0)
(-0.187874 -0.0578171 0)
(-0.167429 -0.0603314 0)
(-0.146301 -0.0613174 0)
(-0.124972 -0.0606539 0)
(-0.103964 -0.0582947 0)
(-0.0838153 -0.0542823 0)
(-0.0650554 -0.0487573 0)
(-0.0481695 -0.0419611 0)
(-0.0335651 -0.0342333 0)
(-0.0215386 -0.0260069 0)
(-0.0122467 -0.0178055 0)
(-0.00568349 -0.0102504 0)
(-0.00169472 -0.00407959 0)
(-2.38347e-05 -0.000221755 0)
(4.21972e-06 -0.000185974 0)
(-0.000173207 5.00098e-05 0)
(-0.000638962 0.000674018 0)
(-0.0014213 0.00151267 0)
(-0.0025316 0.00244472 0)
(-0.00396491 0.00338649 0)
(-0.0057043 0.00428526 0)
(-0.00772635 0.00511219 0)
(-0.0100052 0.00585634 0)
(-0.0125156 0.00651947 0)
(-0.0152355 0.00711181 0)
(-0.0181472 0.00764875 0)
(-0.0212383 0.00814823 0)
(-0.0245023 0.00862899 0)
(-0.0279382 0.00910925 0)
(-0.0315502 0.00960597 0)
(-0.0353474 0.0101344 0)
(-0.0393434 0.0107079 0)
(-0.0435553 0.0113381 0)
(-0.0480032 0.0120345 0)
(-0.0527099 0.0128054 0)
(-0.0577002 0.0136573 0)
(-0.0630002 0.014595 0)
(-0.0686365 0.0156222 0)
(-0.0746364 0.0167407 0)
(-0.0810261 0.0179509 0)
(-0.0878308 0.0192508 0)
(-0.0950734 0.0206365 0)
(-0.102773 0.0221014 0)
(-0.110947 0.0236357 0)
(-0.119603 0.0252261 0)
(-0.128745 0.0268555 0)
(-0.138368 0.0285021 0)
(-0.148457 0.0301394 0)
(-0.158987 0.0317357 0)
(-0.169918 0.0332538 0)
(-0.181199 0.034651 0)
(-0.192762 0.0358794 0)
(-0.204523 0.0368857 0)
(-0.216383 0.0376125 0)
(-0.228227 0.0379988 0)
(-0.239921 0.0379813 0)
(-0.251318 0.0374962 0)
(-0.262259 0.0364806 0)
(-0.272569 0.0348753 0)
(-0.282069 0.0326269 0)
(-0.29057 0.0296906 0)
(-0.297885 0.0260331 0)
(-0.303824 0.0216357 0)
(-0.308207 0.0164975 0)
(-0.310859 0.0106384 0)
(-0.311623 0.00410253 0)
(-0.310359 -0.00303901 0)
(-0.30695 -0.0106867 0)
(-0.301307 -0.0187096 0)
(-0.293375 -0.0269436 0)
(-0.283141 -0.0351928 0)
(-0.270636 -0.0432306 0)
(-0.255942 -0.0508043 0)
(-0.239205 -0.0576421 0)
(-0.220634 -0.0634635 0)
(-0.20051 -0.0679927 0)
(-0.179185 -0.0709766 0)
(-0.157084 -0.0722045 0)
(-0.134692 -0.0715294 0)
(-0.112545 -0.0688887 0)
(-0.0912018 -0.0643215 0)
(-0.0712199 -0.0579803 0)
(-0.0531191 -0.050136 0)
(-0.037345 -0.0411749 0)
(-0.0242333 -0.0315929 0)
(-0.0139804 -0.0219881 0)
(-0.00661876 -0.0130624 0)
(-0.00204114 -0.00562994 0)
(-4.68669e-05 -0.000676049 0)
(-1.19614e-06 -0.000136636 0)
(-0.000248145 0.000236775 0)
(-0.000837567 0.00102113 0)
(-0.00178506 0.00202975 0)
(-0.00309209 0.00313163 0)
(-0.0047471 0.00423629 0)
(-0.00672802 0.00528681 0)
(-0.00900764 0.00625243 0)
(-0.0115574 0.00712198 0)
(-0.0143504 0.00789834 0)
(-0.0173634 0.00859377 0)
(-0.0205781 0.00922622 0)
(-0.0239821 0.00981648 0)
(-0.027569 0.0103862 0)
(-0.0313382 0.0109563 0)
(-0.0352945 0.0115465 0)
(-0.0394479 0.0121742 0)
(-0.0438127 0.0128549 0)
(-0.0484068 0.0136018 0)
(-0.0532515 0.014426 0)
(-0.0583703 0.0153368 0)
(-0.0637889 0.0163414 0)
(-0.0695338 0.0174453 0)
(-0.0756325 0.0186523 0)
(-0.0821122 0.019964 0)
(-0.0889992 0.0213802 0)
(-0.0963182 0.0228981 0)
(-0.104091 0.0245122 0)
(-0.112336 0.0262138 0)
(-0.121066 0.0279905 0)
(-0.130289 0.0298259 0)
(-0.140003 0.0316988 0)
(-0.1502 0.0335828 0)
(-0.16086 0.035446 0)
(-0.171949 0.0372504 0)
(-0.183425 0.0389522 0)
(-0.195226 0.0405013 0)
(-0.207279 0.0418418 0)
(-0.219492 0.0429126 0)
(-0.231758 0.043648 0)
(-0.243956 0.0439791 0)
(-0.255946 0.0438349 0)
(-0.267577 0.0431448 0)
(-0.278686 0.0418402 0)
(-0.289099 0.0398572 0)
(-0.298636 0.0371391 0)
(-0.307114 0.0336397 0)
(-0.314347 0.0293259 0)
(-0.320155 0.0241813 0)
(-0.324363 0.0182088 0)
(-0.326807 0.0114346 0)
(-0.327336 0.0039106 0)
(-0.325816 -0.00428188 0)
(-0.322135 -0.0130309 0)
(-0.316206 -0.0221906 0)
(-0.307974 -0.0315794 0)
(-0.297416 -0.0409808 0)
(-0.284556 -0.0501443 0)
(-0.269465 -0.0587897 0)
(-0.25227 -0.0666142 0)
(-0.233167 -0.0733029 0)
(-0.212419 -0.0785439 0)
(-0.190368 -0.082047 0)
(-0.167432 -0.0835668 0)
(-0.144097 -0.0829265 0)
(-0.120908 -0.080043 0)
(-0.0984446 -0.0749472 0)
(-0.0772943 -0.0678002 0)
(-0.058013 -0.0588991 0)
(-0.0410883 -0.0486759 0)
(-0.0269001 -0.0376883 0)
(-0.0156897 -0.0266092 0)
(-0.00753353 -0.0162201 0)
(-0.0023744 -0.00740978 0)
(-6.71342e-05 -0.00121667 0)
(-6.80439e-06 -6.75201e-05 0)
(-0.000327057 0.000474109 0)
(-0.00104719 0.00144269 0)
(-0.00216899 0.0026398 0)
(-0.00368295 0.00392585 0)
(-0.00557006 0.00520454 0)
(-0.00780239 0.0064156 0)
(-0.0103485 0.00752695 0)
(-0.0131767 0.00852778 0)
(-0.0162581 0.00942249 0)
(-0.0195683 0.0102257 0)
(-0.0230884 0.0109581 0)
(-0.0268059 0.0116437 0)
(-0.0307144 0.012307 0)
(-0.0348138 0.012972 0)
(-0.0391095 0.0136609 0)
(-0.0436122 0.0143935 0)
(-0.0483368 0.0151874 0)
(-0.0533021 0.0160575 0)
(-0.0585299 0.0170163 0)
(-0.0640447 0.0180741 0)
(-0.0698724 0.019239 0)
(-0.0760401 0.0205168 0)
(-0.0825754 0.0219114 0)
(-0.0895053 0.0234241 0)
(-0.0968556 0.0250538 0)
(-0.10465 0.0267967 0)
(-0.11291 0.0286454 0)
(-0.12165 0.0305889 0)
(-0.130882 0.032612 0)
(-0.140609 0.0346946 0)
(-0.150827 0.036811 0)
(-0.161522 0.03893 0)
(-0.172669 0.0410138 0)
(-0.184229 0.0430181 0)
(-0.196152 0.0448919 0)
(-0.208372 0.0465777 0)
(-0.220806 0.0480118 0)
(-0.233359 0.049125 0)
(-0.245916 0.0498439 0)
(-0.258352 0.050092 0)
(-0.270523 0.0497915 0)
(-0.282277 0.0488657 0)
(-0.29345 0.047241 0)
(-0.303871 0.0448499 0)
(-0.313363 0.0416338 0)
(-0.321748 0.0375457 0)
(-0.328851 0.0325536 0)
(-0.334498 0.0266438 0)
(-0.338524 0.0198236 0)
(-0.340775 0.0121249 0)
(-0.341107 0.00360728 0)
(-0.339394 -0.00563901 0)
(-0.335527 -0.015491 0)
(-0.329419 -0.0257896 0)
(-0.32101 -0.0363381 0)
(-0.31027 -0.0469011 0)
(-0.297208 -0.0572064 0)
(-0.281878 -0.0669477 0)
(-0.26439 -0.0757922 0)
(-0.244915 -0.0833908 0)
(-0.223699 -0.0893941 0)
(-0.201065 -0.0934729 0)
(-0.17742 -0.0953434 0)
(-0.15325 -0.0947947 0)
(-0.129106 -0.0917177 0)
(-0.105588 -0.0861306 0)
(-0.0833123 -0.0781978 0)
(-0.0628758 -0.0682397 0)
(-0.0448117 -0.0567312 0)
(-0.0295497 -0.0442913 0)
(-0.0173814 -0.0316674 0)
(-0.00843187 -0.019721 0)
(-0.00269677 -0.00941481 0)
(-8.51812e-05 -0.00183994 0)
(-1.25761e-05 2.22966e-05 0)
(-0.000409458 0.000764591 0)
(-0.00126657 0.00194253 0)
(-0.00257092 0.0033474 0)
(-0.00430105 0.00483228 0)
(-0.00642969 0.00629609 0)
(-0.0089224 0.00767608 0)
(-0.0117429 0.00893963 0)
(-0.0148562 0.0100769 0)
(-0.0182311 0.0110942 0)
(-0.0218418 0.012009 0)
(-0.0256687 0.012845 0)
(-0.0296991 0.0136295 0)
(-0.0339269 0.0143901 0)
(-0.0383521 0.0151539 0)
(-0.0429808 0.0159457 0)
(-0.0478242 0.0167878 0)
(-0.0528979 0.0176998 0)
(-0.0582212 0.0186984 0)
(-0.0638166 0.0197973 0)
(-0.0697087 0.021008 0)
(-0.0759239 0.0223391 0)
(-0.0824894 0.0237968 0)
(-0.0894326 0.0253848 0)
(-0.0967799 0.0271041 0)
(-0.104556 0.0289527 0)
(-0.112785 0.030925 0)
(-0.121483 0.0330119 0)
(-0.130666 0.0351997 0)
(-0.140341 0.03747 0)
(-0.150508 0.0397986 0)
(-0.161158 0.0421553 0)
(-0.172273 0.0445035 0)
(-0.183823 0.0467993 0)
(-0.195764 0.0489919 0)
(-0.208038 0.0510231 0)
(-0.220573 0.0528278 0)
(-0.233284 0.0543348 0)
(-0.246067 0.0554671 0)
(-0.258806 0.056144 0)
(-0.271371 0.0562819 0)
(-0.283618 0.0557972 0)
(-0.295395 0.0546078 0)
(-0.306539 0.0526364 0)
(-0.316886 0.0498129 0)
(-0.326264 0.0460773 0)
(-0.334505 0.0413833 0)
(-0.341441 0.0357004 0)
(-0.346912 0.0290179 0)
(-0.350762 0.0213474 0)
(-0.352846 0.0127262 0)
(-0.353031 0.0032206 0)
(-0.351194 -0.00707148 0)
(-0.34723 -0.0180178 0)
(-0.341051 -0.0294485 0)
(-0.332589 -0.0411534 0)
(-0.321804 -0.0528813 0)
(-0.308688 -0.0643399 0)
(-0.293274 -0.0751991 0)
(-0.275648 -0.0850968 0)
(-0.255956 -0.09365 0)
(-0.234418 -0.100471 0)
(-0.211338 -0.105189 0)
(-0.187106 -0.107478 0)
(-0.162202 -0.107087 0)
(-0.137183 -0.103877 0)
(-0.112668 -0.0978466 0)
(-0.0893052 -0.0891579 0)
(-0.0677327 -0.0781503 0)
(-0.048535 -0.0653388 0)
(-0.0321968 -0.0514027 0)
(-0.0190658 -0.0371637 0)
(-0.00932037 -0.0235641 0)
(-0.00301157 -0.011642 0)
(-0.000101629 -0.00254308 0)
(-1.84956e-05 0.000133632 0)
(-0.000494989 0.00111053 0)
(-0.00149474 0.00252408 0)
(-0.00298908 0.0041567 0)
(-0.00494372 0.00585535 0)
(-0.00732242 0.00751529 0)
(-0.0100835 0.00907226 0)
(-0.0131855 0.0104939 0)
(-0.0165896 0.0117719 0)
(-0.0202621 0.0129153 0)
(-0.0241756 0.0139445 0)
(-0.0283098 0.0148868 0)
(-0.0326516 0.0157728 0)
(-0.037195 0.0166335 0)
(-0.0419404 0.017499 0)
(-0.0468942 0.0183969 0)
(-0.0520682 0.019352 0)
(-0.0574784 0.0203859 0)
(-0.0631446 0.0215168 0)
(-0.0690896 0.02276 0)
(-0.0753382 0.0241278 0)
(-0.0819168 0.0256293 0)
(-0.0888525 0.0272711 0)
(-0.0961719 0.0290566 0)
(-0.103901 0.030986 0)
(-0.112063 0.0330561 0)
(-0.12068 0.0352599 0)
(-0.129768 0.0375859 0)
(-0.139337 0.0400175 0)
(-0.149393 0.0425327 0)
(-0.159932 0.0451032 0)
(-0.170942 0.0476938 0)
(-0.182398 0.0502622 0)
(-0.194265 0.0527585 0)
(-0.206494 0.055125 0)
(-0.219024 0.0572965 0)
(-0.231776 0.0592005 0)
(-0.244661 0.0607582 0)
(-0.257571 0.0618857 0)
(-0.270388 0.0624952 0)
(-0.282981 0.0624972 0)
(-0.295207 0.0618027 0)
(-0.306916 0.0603257 0)
(-0.317951 0.0579859 0)
(-0.328154 0.0547117 0)
(-0.337363 0.0504428 0)
(-0.345419 0.0451339 0)
(-0.352167 0.0387568 0)
(-0.357457 0.0313039 0)
(-0.361145 0.0227908 0)
(-0.363098 0.0132595 0)
(-0.363188 0.00278159 0)
(-0.361301 -0.00853864 0)
(-0.35733 -0.0205618 0)
(-0.351186 -0.0331096 0)
(-0.342791 -0.0459611 0)
(-0.332092 -0.0588514 0)
(-0.319063 -0.0714712 0)
(-0.303712 -0.083468 0)
(-0.286097 -0.0944521 0)
(-0.266337 -0.104007 0)
(-0.244621 -0.111705 0)
(-0.221226 -0.117132 0)
(-0.196525 -0.119915 0)
(-0.170987 -0.11976 0)
(-0.145172 -0.116488 0)
(-0.119716 -0.110072 0)
(-0.0952999 -0.100668 0)
(-0.0726076 -0.0886258 0)
(-0.0522782 -0.0744992 0)
(-0.0348574 -0.0590253 0)
(-0.0207548 -0.043101 0)
(-0.0102069 -0.0277505 0)
(-0.00332269 -0.01409 0)
(-0.000117102 -0.00332443 0)
(-2.45552e-05 0.000267229 0)
(-0.000583375 0.001514 0)
(-0.00173089 0.00319046 0)
(-0.00342197 0.00507145 0)
(-0.00560869 0.00699908 0)
(-0.0082451 0.00886607 0)
(-0.0112818 0.0106077 0)
(-0.0146714 0.0121927 0)
(-0.0183711 0.0136152 0)
(-0.0223443 0.0148872 0)
(-0.026562 0.0160328 0)
(-0.0310028 0.017083 0)