/*--------------------------------*- C++ -*----------------------------------*\
  =========                 |
  \\      /  F ield         | OpenFOAM: The Open Source CFD Toolbox
   \\    /   O peration     | Website:  https://openfoam.org
    \\  /    A nd           | Version:  12
     \\/     M anipulation  |
\*---------------------------------------------------------------------------*/
FoamFile
{
    format      ascii;
    class       volScalarField;
    location    "0.05";
    object      epsilon;
}
// * * * * * * * * * * * * * * * * * * * * * * * * * * * * * * * * * * * * * //

dimensions      [0 2 -3 0 0 0 0];

internalField   nonuniform List<scalar> 
400
(
1.73999e-10
8.6078e-10
1.82759e-09
2.90287e-09
3.98655e-09
5.00287e-09
5.88959e-09
6.59624e-09
7.08443e-09
7.32839e-09
7.31666e-09
7.0505e-09
6.54472e-09
5.82698e-09
4.93689e-09
3.92505e-09
2.85265e-09
1.79333e-09
8.43799e-10
1.70506e-10
8.60979e-10
6.61616e-10
9.77682e-10
1.42217e-09
1.89594e-09
2.34932e-09
2.74845e-09
3.06794e-09
3.28913e-09
3.39968e-09
3.39417e-09
3.27316e-09
3.04368e-09
2.71894e-09
2.31811e-09
1.86656e-09
1.3975e-09
9.59292e-10
6.48448e-10
8.43582e-10
1.82966e-09
9.78692e-10
9.95345e-10
1.21705e-09
1.50429e-09
1.79836e-09
2.06524e-09
2.28215e-09
2.43343e-09
2.50907e-09
2.50477e-09
2.42093e-09
2.26311e-09
2.04191e-09
1.77329e-09
1.47988e-09
1.19491e-09
9.75644e-10
9.58249e-10
1.79119e-09
2.91024e-09
1.42567e-09
1.21891e-09
1.29853e-09
1.47917e-09
1.68935e-09
1.89054e-09
2.0584e-09
2.17693e-09
2.23622e-09
2.23206e-09
2.16481e-09
2.0398e-09
1.86746e-09
1.66393e-09
1.45326e-09
1.27309e-09
1.19299e-09
1.39391e-09
2.84509e-09
4.00428e-09
1.90415e-09
1.50946e-09
1.48197e-09
1.58747e-09
1.74156e-09
1.90064e-09
2.038e-09
2.13654e-09
2.18578e-09
2.18132e-09
2.12349e-09
2.01783e-09
1.87524e-09
1.71295e-09
1.55717e-09
1.45038e-09
1.47457e-09
1.85818e-09
3.907e-09
5.03706e-09
2.36496e-09
1.80866e-09
1.69644e-09
1.74551e-09
1.85877e-09
1.98789e-09
2.10396e-09
2.18865e-09
2.23083e-09
2.22582e-09
2.17396e-09
2.08108e-09
1.9587e-09
1.82519e-09
1.70888e-09
1.65667e-09
1.76276e-09
2.30223e-09
4.90221e-09
5.94669e-09
2.77443e-09
2.08273e-09
1.90361e-09
1.91001e-09
1.99316e-09
2.10049e-09
2.20114e-09
2.27575e-09
2.31264e-09
2.30688e-09
2.25884e-09
2.17463e-09
2.06631e-09
1.95322e-09
1.8656e-09
1.85409e-09
2.02409e-09
2.69263e-09
5.76924e-09
6.68212e-09
3.10697e-09
2.30881e-09
2.07914e-09
2.0544e-09
2.11598e-09
2.20779e-09
2.29744e-09
2.36474e-09
2.39761e-09
2.39096e-09
2.34519e-09
2.2666e-09
2.16771e-09
2.06862e-09
2.001e-09
2.01864e-09
2.23604e-09
3.00428e-09
6.4581e-09
7.20338e-09
3.3432e-09
2.47078e-09
2.20675e-09
2.16133e-09
2.20871e-09
2.29032e-09
2.37262e-09
2.4349e-09
2.46482e-09
2.45719e-09
2.41242e-09
2.33699e-09
2.24371e-09
2.15319e-09
2.0981e-09
2.13445e-09
2.3831e-09
3.21868e-09
6.93074e-09
7.48241e-09
3.46979e-09
2.55799e-09
2.276e-09
2.21989e-09
2.25989e-09
2.33607e-09
2.41431e-09
2.47364e-09
2.50159e-09
2.49292e-09
2.44808e-09
2.37364e-09
2.28259e-09
2.19579e-09
2.14642e-09
2.19159e-09
2.45525e-09
3.32358e-09
7.16165e-09
7.50383e-09
3.47948e-09
2.56478e-09
2.28153e-09
2.22457e-09
2.26378e-09
2.33912e-09
2.41647e-09
2.47486e-09
2.50186e-09
2.49224e-09
2.44647e-09
2.37114e-09
2.27925e-09
2.19169e-09
2.14162e-09
2.18601e-09
2.44847e-09
3.31397e-09
7.1404e-09
7.26605e-09
3.37161e-09
2.4908e-09
2.2231e-09
2.17516e-09
2.22018e-09
2.2993e-09
2.37897e-09
2.4385e-09
2.46565e-09
2.45525e-09
2.40776e-09
2.32971e-09
2.23397e-09
2.14119e-09
2.08403e-09
2.1181e-09
2.36326e-09
3.19068e-09
6.86889e-09
6.77845e-09
3.15071e-09
2.3397e-09
2.1044e-09
2.07572e-09
2.13361e-09
2.22159e-09
2.30718e-09
2.37028e-09
2.39893e-09
2.38807e-09
2.33814e-09
2.25553e-09
2.15283e-09
2.05019e-09
1.97932e-09
1.99339e-09
2.20545e-09
2.9612e-09
6.36311e-09
6.06591e-09
2.82875e-09
2.12131e-09
1.93525e-09
1.93668e-09
2.01519e-09
2.11769e-09
2.21328e-09
2.28269e-09
2.3144e-09
2.30345e-09
2.2503e-09
2.16108e-09
2.04796e-09
1.93038e-09
1.83856e-09
1.82259e-09
1.986e-09
2.63928e-09
5.65199e-09
5.16564e-09
2.4239e-09
1.85096e-09
1.7313e-09
1.77499e-09
1.88315e-09
2.00694e-09
2.11745e-09
2.19645e-09
2.23301e-09
2.22234e-09
2.16488e-09
2.06648e-09
1.93875e-09
1.80022e-09
1.67917e-09
1.6221e-09
1.72118e-09
2.24456e-09
4.77625e-09
4.12726e-09
1.96121e-09
1.55124e-09
1.51692e-09
1.61741e-09
1.76655e-09
1.92031e-09
2.05208e-09
2.14485e-09
2.1884e-09
2.17817e-09
2.1147e-09
2.00345e-09
1.85543e-09
1.68793e-09
1.5273e-09
1.41591e-09
1.43368e-09
1.80259e-09
3.78705e-09
3.01314e-09
1.47478e-09
1.25651e-09
1.33138e-09
1.50838e-09
1.71454e-09
1.91094e-09
2.07334e-09
2.18602e-09
2.2394e-09
2.22922e-09
2.15626e-09
2.02551e-09
1.84783e-09
1.63963e-09
1.425e-09
1.24105e-09
1.1562e-09
1.34616e-09
2.74496e-09
1.90118e-09
1.01567e-09
1.02745e-09
1.2486e-09
1.53481e-09
1.82615e-09
2.08871e-09
2.29999e-09
2.44467e-09
2.51325e-09
2.50166e-09
2.41122e-09
2.24675e-09
2.01989e-09
1.747e-09
1.45097e-09
1.16497e-09
9.44913e-10
9.22035e-10
1.72109e-09
8.96448e-10
6.87487e-10
1.01e-09
1.46071e-09
1.93746e-09
2.38988e-09
2.78428e-09
3.09598e-09
3.30713e-09
3.40639e-09
3.38912e-09
3.25781e-09
3.01809e-09
2.68541e-09
2.27977e-09
1.82719e-09
1.3611e-09
9.28919e-10
6.2356e-10
8.0693e-10
1.81602e-10
8.96167e-10
1.89416e-09
2.99218e-09
4.08707e-09
5.10281e-09
5.97861e-09
6.66612e-09
7.12926e-09
7.34471e-09
7.30329e-09
7.01089e-09
6.47952e-09
5.74242e-09
4.84129e-09
3.82878e-09
2.76738e-09
1.73031e-09
8.10452e-10
1.63852e-10
)
;

boundaryField
{
    movingWall
    {
        type            epsilonWallFunction;
        value           nonuniform List<scalar> 
20
(
1.81602e-10
8.96167e-10
1.89416e-09
2.99218e-09
4.08707e-09
5.10281e-09
5.97861e-09
6.66612e-09
7.12926e-09
7.34471e-09
7.30329e-09
7.01089e-09
6.47952e-09
5.74242e-09
4.84129e-09
3.82878e-09
2.76738e-09
1.73031e-09
8.10452e-10
1.63852e-10
)
;
    }
    fixedWalls
    {
        type            epsilonWallFunction;
        value           nonuniform List<scalar> 
60
(
1.73999e-10
8.60979e-10
1.82966e-09
2.91024e-09
4.00428e-09
5.03706e-09
5.94669e-09
6.68212e-09
7.20338e-09
7.48241e-09
7.50383e-09
7.26605e-09
6.77845e-09
6.06591e-09
5.16564e-09
4.12726e-09
3.01314e-09
1.90118e-09
8.96448e-10
1.81602e-10
1.70506e-10
8.43582e-10
1.79119e-09
2.84509e-09
3.907e-09
4.90221e-09
5.76924e-09
6.4581e-09
6.93074e-09
7.16165e-09
7.1404e-09
6.86889e-09
6.36311e-09
5.65199e-09
4.77625e-09
3.78705e-09
2.74496e-09
1.72109e-09
8.0693e-10
1.63852e-10
1.73999e-10
8.6078e-10
1.82759e-09
2.90287e-09
3.98655e-09
5.00287e-09
5.88959e-09
6.59624e-09
7.08443e-09
7.32839e-09
7.31666e-09
7.0505e-09
6.54472e-09
5.82698e-09
4.93689e-09
3.92505e-09
2.85265e-09
1.79333e-09
8.43799e-10
1.70506e-10
)
;
    }
    frontAndBack
    {
        type            empty;
    }
}


// ************************************************************************* //
