/*--------------------------------*- C++ -*----------------------------------*\
  =========                 |
  \\      /  F ield         | OpenFOAM: The Open Source CFD Toolbox
   \\    /   O peration     | Website:  https://openfoam.org
    \\  /    A nd           | Version:  12
     \\/     M anipulation  |
\*---------------------------------------------------------------------------*/
FoamFile
{
    format      ascii;
    class       surfaceScalarField;
    location    "0.05";
    object      phi;
}
// * * * * * * * * * * * * * * * * * * * * * * * * * * * * * * * * * * * * * //

dimensions      [0 3 -1 0 0 0 0];

internalField   nonuniform List<scalar> 
760
(
7.54301e-09
-7.54309e-09
-3.0611e-08
3.8154e-08
-1.21205e-07
9.05943e-08
-2.50137e-07
1.28932e-07
-3.98438e-07
1.48301e-07
-5.47455e-07
1.49017e-07
-6.8088e-07
1.33425e-07
-7.85674e-07
1.04794e-07
-8.5243e-07
6.67555e-08
-8.75473e-07
2.3043e-08
-8.52852e-07
-2.26211e-08
-7.86369e-07
-6.6483e-08
-6.81611e-07
-1.04758e-07
-5.4798e-07
-1.33631e-07
-3.98605e-07
-1.49375e-07
-2.49948e-07
-1.48657e-07
-1.20819e-07
-1.29129e-07
-3.0261e-08
-9.05582e-08
7.69596e-09
-3.7957e-08
7.69595e-09
-3.63477e-08
2.88046e-08
-1.81647e-07
1.83454e-07
-4.34685e-07
3.43632e-07
-7.65849e-07
4.60095e-07
-1.13505e-06
5.17506e-07
-1.50118e-06
5.1514e-07
-1.8271e-06
4.59347e-07
-2.08243e-06
3.60126e-07
-2.24488e-06
2.29205e-07
-2.30086e-06
7.90218e-08
-2.24571e-06
-7.77661e-08
-2.08381e-06
-2.28382e-07
-1.82857e-06
-3.60002e-07
-1.50226e-06
-4.59943e-07
-1.13544e-06
-5.16195e-07
-7.65522e-07
-5.18571e-07
-4.3394e-07
-4.60711e-07
-1.80938e-07
-3.43561e-07
-3.60223e-08
-1.82872e-07
-2.83264e-08
-9.12376e-08
1.20042e-07
-3.54429e-07
4.46645e-07
-7.62148e-07
7.51351e-07
-1.26846e-06
9.66403e-07
-1.81813e-06
1.06717e-06
-2.35532e-06
1.05234e-06
-2.82954e-06
9.33568e-07
-3.19924e-06
7.29825e-07
-3.43381e-06
4.63777e-07
-3.51454e-06
1.5975e-07
-3.43502e-06
-1.57291e-07
-3.20128e-06
-4.62124e-07
-2.83178e-06
-7.295e-07
-2.3571e-06
-9.34625e-07
-1.81898e-06
-1.05431e-06
-1.2683e-06
-1.06925e-06
-7.61323e-07
-9.6769e-07
-3.53531e-07
-7.51353e-07
-9.07876e-08
-4.45615e-07
-1.19114e-07
-1.42991e-07
2.63033e-07
-5.21799e-07
8.25453e-07
-1.07933e-06
1.30888e-06
-1.74929e-06
1.63636e-06
-2.46116e-06
1.77905e-06
-3.14697e-06
1.73814e-06
-3.74656e-06
1.53316e-06
-4.21105e-06
1.19431e-06
-4.50467e-06
7.57403e-07
-4.60566e-06
2.60737e-07
-4.50654e-06
-2.5641e-07
-4.21428e-06
-7.54383e-07
-3.75031e-06
-1.19348e-06
-3.15028e-06
-1.53466e-06
-2.46329e-06
-1.7413e-06
-1.74997e-06
-1.78256e-06
-1.07887e-06
-1.63879e-06
-5.20927e-07
-1.3093e-06
-1.42469e-07
-8.24074e-07
-2.61583e-07
-1.91366e-07
4.54399e-07
-6.82551e-07
1.31664e-06
-1.38709e-06
2.01342e-06
-2.21575e-06
2.46502e-06
-3.08137e-06
2.64467e-06
-3.90432e-06
2.56109e-06
-4.61668e-06
2.24552e-06
-5.16466e-06
1.74229e-06
-5.50963e-06
1.10237e-06
-5.62831e-06
3.79419e-07
-5.51271e-06
-3.72003e-07
-5.17013e-06
-1.09696e-06
-4.62332e-06
-1.74029e-06
-3.9107e-06
-2.24728e-06
-3.08626e-06
-2.56573e-06
-2.2185e-06
-2.65033e-06
-1.38782e-06
-2.46947e-06
-6.82125e-07
-2.015e-06
-1.90885e-07
-1.31531e-06
-4.52468e-07
-2.38936e-07
6.93334e-07
-8.42398e-07
1.9201e-06
-1.69407e-06
2.86509e-06
-2.67982e-06
3.45077e-06
-3.69448e-06
3.65932e-06
-4.64693e-06
3.51354e-06
-5.46293e-06
3.06152e-06
-6.08586e-06
2.36523e-06
-6.47625e-06
1.49276e-06
-6.61075e-06
5.13918e-07
-6.48133e-06
-5.01425e-07
-6.09503e-06
-1.48326e-06
-5.47441e-06
-2.36091e-06
-4.65858e-06
-3.06311e-06
-3.70429e-06
-3.52002e-06
-2.68647e-06
-3.66814e-06
-1.69732e-06
-3.45862e-06
-8.43123e-07
-2.86919e-06
-2.38704e-07
-1.91973e-06
-6.91172e-07
-2.88584e-07
9.81919e-07
-1.00819e-06
2.6397e-06
-2.00987e-06
3.86677e-06
-3.1521e-06
4.593e-06
-4.31068e-06
4.81791e-06
-5.38373e-06
4.58659e-06
-6.29265e-06
3.97044e-06
-6.98054e-06
3.05312e-06
-7.40944e-06
1.92166e-06
-7.55756e-06
6.62046e-07
-7.41741e-06
-6.41579e-07
-6.99512e-06
-1.90555e-06
-6.31135e-06
-3.04468e-06
-5.40341e-06
-3.97105e-06
-4.32822e-06
-4.59522e-06
-3.16512e-06
-4.83123e-06
-2.01745e-06
-4.6063e-06
-1.01109e-06
-3.87554e-06
-2.88928e-07
-2.6419e-06
-9.801e-07
-3.43103e-07
1.32502e-06
-1.18632e-06
3.48292e-06
-2.34229e-06
5.02274e-06
-3.63864e-06
5.88935e-06
-4.93157e-06
6.11084e-06
-6.11028e-06
5.7653e-06
-7.09515e-06
4.9553e-06
-7.83269e-06
3.79066e-06
-8.28966e-06
2.37864e-06
-8.44801e-06
8.20388e-07
-8.30145e-06
-7.88135e-07
-7.85447e-06
-2.35253e-06
-7.1236e-06
-3.77555e-06
-6.14105e-06
-4.9536e-06
-4.96007e-06
-5.77621e-06
-3.66103e-06
-6.13027e-06
-2.35652e-06
-5.91081e-06
-1.19278e-06
-5.03929e-06
-3.44474e-07
-3.4902e-06
-1.32457e-06
-4.05318e-07
1.73034e-06
-1.38251e-06
4.46012e-06
-2.69628e-06
6.3365e-06
-4.1388e-06
7.33187e-06
-5.54705e-06
7.51909e-06
-6.80515e-06
7.02341e-06
-7.83789e-06
5.98803e-06
-8.60061e-06
4.55337e-06
-9.06923e-06
2.84727e-06
-9.23222e-06
9.83378e-07
-9.08554e-06
-9.34816e-07
-8.63103e-06
-2.80705e-06
-7.87827e-06
-4.52831e-06
-6.84983e-06
-5.98203e-06
-5.58973e-06
-7.03631e-06
-4.17376e-06
-7.54624e-06
-2.71981e-06
-7.36475e-06
-1.39417e-06
-6.36493e-06
-4.08297e-07
-4.47608e-06
-1.73287e-06
-4.78535e-07
2.20888e-06
-1.60211e-06
5.58369e-06
-3.07314e-06
7.80753e-06
-4.64289e-06
8.90162e-06
-6.13153e-06
9.00773e-06
-7.42509e-06
8.31697e-06
-8.4611e-06
7.02405e-06
-9.21138e-06
5.30366e-06
-9.66676e-06
3.30264e-06
-9.82575e-06
1.14237e-06
-9.68777e-06
-1.07279e-06
-9.25096e-06
-3.24386e-06
-8.51445e-06
-5.26482e-06
-7.48543e-06
-7.01104e-06
-6.19085e-06
-8.33089e-06
-4.69327e-06
-9.04383e-06
-3.10862e-06
-8.9494e-06
-1.62079e-06
-7.85276e-06
-4.8381e-07
-5.61306e-06
-2.21668e-06
-5.67301e-07
2.77618e-06
-1.85063e-06
6.86702e-06
-3.46935e-06
9.42625e-06
-5.1286e-06
1.05609e-05
-6.63824e-06
1.05174e-05
-7.89808e-06
9.57681e-06
-8.87053e-06
7.9965e-06
-9.55376e-06
5.98688e-06
-9.96032e-06
3.7092e-06
-1.01027e-05
1.28474e-06
-9.98519e-06
-1.19029e-06
-9.60117e-06
-3.62788e-06
-8.93563e-06
-5.93037e-06
-7.97354e-06
-7.97313e-06
-6.71473e-06
-9.5897e-06
-5.19594e-06
-1.05626e-05
-3.51885e-06
-1.06265e-05
-1.87804e-06
-9.49357e-06
-5.75619e-07
-6.91548e-06
-2.7923e-06
-6.78541e-07
3.45472e-06
-2.13407e-06
8.32255e-06
-3.87365e-06
1.11658e-05
-5.55429e-06
1.22415e-05
-6.99002e-06
1.19531e-05
-8.11331e-06
1.07001e-05
-8.9279e-06
8.81109e-06
-9.46975e-06
6.52874e-06
-9.78011e-06
4.01956e-06
-9.88904e-06
1.39367e-06
-9.80676e-06
-1.27257e-06
-9.52113e-06
-3.91351e-06
-9.00001e-06
-6.45149e-06
-8.19948e-06
-8.77366e-06
-7.08061e-06
-1.07086e-05
-5.63744e-06
-1.20058e-05
-3.93766e-06
-1.23263e-05
-2.17138e-06
-1.12598e-05
-6.90604e-07
-8.39626e-06
-3.4829e-06
-8.23141e-07
4.27786e-06
-2.45773e-06
9.95714e-06
-4.25959e-06
1.29677e-05
-5.84606e-06
1.3828e-05
-7.06387e-06
1.31709e-05
-7.90649e-06
1.15427e-05
-8.43886e-06
9.34347e-06
-8.74589e-06
6.83576e-06
-8.90212e-06
4.17579e-06
-8.95661e-06
1.44816e-06
-8.92629e-06
-1.30289e-06
-8.79371e-06
-4.04608e-06
-8.50846e-06
-6.73675e-06
-7.99339e-06
-9.28872e-06
-7.15999e-06
-1.1542e-05
-5.93926e-06
-1.32265e-05
-4.33567e-06
-1.39299e-05
-2.50479e-06
-1.30907e-05
-8.39419e-07
-1.00616e-05
-4.32232e-06
-1.01756e-06
5.29542e-06
-2.8201e-06
1.17597e-05
-4.56773e-06
1.47153e-05
-5.87253e-06
1.51328e-05
-6.66534e-06
1.39637e-05
-7.03898e-06
1.19163e-05
-7.13916e-06
9.44365e-06
-7.1052e-06
6.8018e-06
-7.04411e-06
4.1147e-06
-7.02162e-06
1.42567e-06
-7.06017e-06
-1.26435e-06
-7.13853e-06
-3.96771e-06
-7.19132e-06
-6.68396e-06
-7.10998e-06
-9.37006e-06
-6.75117e-06
-1.19008e-05
-5.96322e-06
-1.40145e-05
-4.64864e-06
-1.52444e-05
-2.87427e-06
-1.48651e-05
-1.0379e-06
-1.1898e-05
-5.36023e-06
-1.2809e-06
6.57632e-06
-3.19077e-06
1.36696e-05
-4.66469e-06
1.61892e-05
-5.39734e-06
1.58654e-05
-5.48774e-06
1.40541e-05
-5.17022e-06
1.15988e-05
-4.68041e-06
8.95384e-06
-4.20514e-06
6.32653e-06
-3.87176e-06
3.78132e-06
-3.75295e-06
1.30686e-06
-3.87321e-06
-1.14409e-06
-4.21125e-06
-3.62968e-06
-4.69667e-06
-6.19855e-06
-5.20254e-06
-8.86419e-06
-5.53946e-06
-1.15639e-05
-5.46494e-06
-1.4089e-05
-4.73548e-06
-1.59739e-05
-3.24565e-06
-1.63549e-05
-1.304e-06
-1.38397e-05
-6.66422e-06
-1.6128e-06
8.18911e-06
-3.44805e-06
1.55048e-05
-4.2527e-06
1.69939e-05
-3.99323e-06
1.5606e-05
-3.05005e-06
1.31109e-05
-1.82431e-06
1.03731e-05
-6.22898e-07
7.75243e-06
3.52409e-07
5.35122e-06
9.82288e-07
3.15145e-06
1.20512e-06
1.08403e-06
1.00061e-06
-9.39571e-07
3.84334e-07
-3.01341e-06
-5.86204e-07
-5.22801e-06
-1.79451e-06
-7.65588e-06
-3.03899e-06
-1.03194e-05
-4.00858e-06
-1.31194e-05
-4.28992e-06
-1.56926e-05
-3.48987e-06
-1.7155e-05
-1.63482e-06
-1.56947e-05
-8.29905e-06
-1.94021e-06
1.01293e-05
-3.23247e-06
1.67971e-05
-2.68628e-06
1.64477e-05
-8.93726e-07
1.38134e-05
1.38761e-06
1.08296e-05
3.63603e-06
8.12467e-06
5.5536e-06
5.83487e-06
6.98959e-06
3.91523e-06
7.8764e-06
2.26463e-06
8.18747e-06
7.72965e-07
7.91465e-06
-6.66754e-07
7.06126e-06
-2.16001e-06
5.64907e-06
-3.81582e-06
3.74077e-06
-5.74758e-06
1.48325e-06
-8.06185e-06
-8.26154e-07
-1.081e-05
-2.65885e-06
-1.38599e-05
-3.23837e-06
-1.65755e-05
-1.95335e-06
-1.69797e-05
-1.02524e-05
-2.04903e-06
1.21784e-05
-1.57878e-06
1.63268e-05
1.40627e-06
1.34627e-05
5.22917e-06
9.99051e-06
8.89622e-06
7.16255e-06
1.19946e-05
5.0263e-06
1.43933e-05
3.43611e-06
1.60811e-05
2.22745e-06
1.70855e-05
1.26029e-06
1.74335e-05
4.24918e-07
1.71349e-05
-3.68188e-07
1.6177e-05
-1.2021e-06
1.45292e-05
-2.16804e-06
1.21588e-05
-3.37713e-06
9.07052e-06
-4.97358e-06
5.38903e-06
-7.12851e-06
1.52422e-06
-9.99506e-06
-1.52176e-06
-1.35295e-05
-2.04047e-06
-1.6461e-05
-1.22929e-05
-6.25247e-07
1.28036e-05
4.47787e-06
1.12237e-05
1.09051e-05
7.03547e-06
1.64825e-05
4.41311e-06
2.0824e-05
2.82104e-06
2.4036e-05
1.81423e-06
2.63103e-05
1.16182e-06
2.78184e-05
7.19418e-07
2.86836e-05
3.95039e-07
2.89782e-05
1.3031e-07
2.87258e-05
-1.1579e-07
2.79027e-05
-3.7901e-07
2.64361e-05
-7.01374e-07
2.41998e-05
-1.14085e-06
2.10169e-05
-1.79071e-06
1.66869e-05
-2.7985e-06
1.10926e-05
-4.40075e-06
4.61021e-06
-7.04707e-06
-5.75518e-07
-1.12753e-05
-1.28684e-05
1.28036e-05
2.40273e-05
3.10628e-05
3.54759e-05
3.82969e-05
4.01111e-05
4.1273e-05
4.19924e-05
4.23874e-05
4.25177e-05
4.24019e-05
4.20229e-05
4.13215e-05
4.01807e-05
3.839e-05
3.55915e-05
3.11907e-05
2.41437e-05
1.28684e-05
)
;

boundaryField
{
    movingWall
    {
        type            calculated;
        value           uniform 0;
    }
    fixedWalls
    {
        type            calculated;
        value           uniform 0;
    }
    frontAndBack
    {
        type            empty;
    }
}


// ************************************************************************* //
