/*--------------------------------*- C++ -*----------------------------------*\
  =========                 |
  \\      /  F ield         | OpenFOAM: The Open Source CFD Toolbox
   \\    /   O peration     | Website:  https://openfoam.org
    \\  /    A nd           | Version:  12
     \\/     M anipulation  |
\*---------------------------------------------------------------------------*/
FoamFile
{
    format      ascii;
    class       volVectorField;
    location    "0.05";
    object      U;
}
// * * * * * * * * * * * * * * * * * * * * * * * * * * * * * * * * * * * * * //

dimensions      [0 1 -1 0 0 0 0];

internalField   nonuniform List<vector> 
400
(
(0.000193013 -0.000193109 0)
(-2.95154e-05 1.66533e-05 0)
(-0.00133869 0.000278679 0)
(-0.00359687 0.000462494 0)
(-0.00644658 0.000554851 0)
(-0.00949409 0.000565466 0)
(-0.0123819 0.000508569 0)
(-0.0148131 0.000399846 0)
(-0.0165619 0.000254824 0)
(-0.0174766 8.8308e-05 0)
(-0.0174811 -8.56602e-05 0)
(-0.0165737 -0.000252997 0)
(-0.0148283 -0.000399311 0)
(-0.0123952 -0.00050937 0)
(-0.00950129 -0.000567132 0)
(-0.00644608 -0.000556544 0)
(-0.00359044 -0.00046335 0)
(-0.00133061 -0.000278244 0)
(-2.40564e-05 -1.53347e-05 0)
(0.00019416 0.000194176 0)
(6.33386e-06 6.04316e-06 0)
(-0.00168632 0.00171221 0)
(-0.0057231 0.00365537 0)
(-0.0117338 0.00509648 0)
(-0.0189328 0.00582742 0)
(-0.0264719 0.0058446 0)
(-0.0335523 0.00523067 0)
(-0.0394898 0.00410837 0)
(-0.0437528 0.00261741 0)
(-0.0459802 0.000903502 0)
(-0.0459893 -0.000887061 0)
(-0.0437766 -0.00260653 0)
(-0.0395205 -0.00410624 0)
(-0.0335796 -0.00523755 0)
(-0.0264873 -0.00585719 0)
(-0.0189328 -0.00584004 0)
(-0.0117214 -0.00510342 0)
(-0.00570677 -0.00365381 0)
(-0.0016748 -0.00170459 0)
(8.59576e-06 -4.08653e-08 0)
(-0.000244386 0.00126756 0)
(-0.00375295 0.00575082 0)
(-0.0105561 0.0102033 0)
(-0.0199546 0.0134235 0)
(-0.0307958 0.0149909 0)
(-0.0419262 0.0148739 0)
(-0.0522651 0.0132422 0)
(-0.0608801 0.010374 0)
(-0.0670427 0.00660022 0)
(-0.0702567 0.00227501 0)
(-0.0702696 -0.00223914 0)
(-0.0670774 -0.00657621 0)
(-0.0609258 -0.0103694 0)
(-0.0523078 -0.0132577 0)
(-0.0419537 -0.0149022 0)
(-0.0308023 -0.0150199 0)
(-0.0199428 -0.0134403 0)
(-0.0105363 -0.0102013 0)
(-0.00373755 -0.00573437 0)
(-0.000241175 -0.00125368 0)
(-0.000459476 0.00361461 0)
(-0.00575135 0.0121847 0)
(-0.0152692 0.0198818 0)
(-0.0278946 0.0252334 0)
(-0.0420695 0.0276774 0)
(-0.0563655 0.0271913 0)
(-0.0694885 0.0240707 0)
(-0.0803376 0.0187939 0)
(-0.08806 0.0119346 0)
(-0.0920778 0.00411002 0)
(-0.0920976 -0.00404531 0)
(-0.0881142 -0.0118902 0)
(-0.0804116 -0.0187833 0)
(-0.069563 -0.0240955 0)
(-0.0564223 -0.0272403 0)
(-0.0420978 -0.0277298 0)
(-0.0278946 -0.0252669 0)
(-0.0152524 -0.019883 0)
(-0.00573439 -0.0121591 0)
(-0.000455348 -0.00359058 0)
(-0.000646753 0.0069637 0)
(-0.00764751 0.0208947 0)
(-0.0198321 0.0325174 0)
(-0.0356154 0.0402465 0)
(-0.0529899 0.0434955 0)
(-0.0702442 0.0423355 0)
(-0.0858983 0.0372516 0)
(-0.0987298 0.0289732 0)
(-0.107812 0.0183577 0)
(-0.112525 0.00631896 0)
(-0.112557 -0.00620771 0)
(-0.107902 -0.0182785 0)
(-0.0988571 -0.0289478 0)
(-0.0860347 -0.0372842 0)
(-0.0703613 -0.0424107 0)
(-0.0530676 -0.0435822 0)
(-0.0356481 -0.0403092 0)
(-0.0198307 -0.0325318 0)
(-0.00763371 -0.0208642 0)
(-0.00064201 -0.00692889 0)
(-0.000826368 0.0112639 0)
(-0.0095236 0.0318338 0)
(-0.0243847 0.0480749 0)
(-0.0433194 0.0583982 0)
(-0.063832 0.0623231 0)
(-0.0839157 0.0601297 0)
(-0.101923 0.0525828 0)
(-0.11655 0.0407267 0)
(-0.126837 0.025742 0)
(-0.132163 0.00886048 0)
(-0.132216 -0.00867153 0)
(-0.126986 -0.0256015 0)
(-0.116765 -0.0406691 0)
(-0.102165 -0.0526178 0)
(-0.0841384 -0.060238 0)
(-0.0640006 -0.0624611 0)
(-0.0434171 -0.0585121 0)
(-0.0244188 -0.0481227 0)
(-0.0095214 -0.0318106 0)
(-0.000821797 -0.0112208 0)
(-0.00101672 0.0165264 0)
(-0.0114812 0.0450412 0)
(-0.0290974 0.0665938 0)
(-0.051215 0.0796861 0)
(-0.0748091 0.0840902 0)
(-0.0975747 0.0804407 0)
(-0.117727 0.069897 0)
(-0.133928 0.0538945 0)
(-0.145242 0.0339757 0)
(-0.151083 0.0116999 0)
(-0.151166 -0.0113849 0)
(-0.145476 -0.0337323 0)
(-0.134274 -0.0537758 0)
(-0.118126 -0.0699226 0)
(-0.0979603 -0.0805892 0)
(-0.0751231 -0.0843034 0)
(-0.051422 -0.0798852 0)
(-0.0291958 -0.0667094 0)
(-0.0115034 -0.0450495 0)
(-0.0010137 -0.0164828 0)
(-0.00123539 0.0228211 0)
(-0.0136201 0.0606339 0)
(-0.034126 0.0881557 0)
(-0.0594556 0.104098 0)
(-0.086008 0.108674 0)
(-0.111196 0.103056 0)
(-0.133157 0.0889419 0)
(-0.150591 0.0682434 0)
(-0.16266 0.0428984 0)
(-0.168871 0.0147858 0)
(-0.168993 -0.0142776 0)
(-0.163007 -0.0424932 0)
(-0.151111 -0.0680206 0)
(-0.13377 -0.0889375 0)
(-0.111809 -0.10325 0)
(-0.0865317 -0.108992 0)
(-0.0598267 -0.10443 0)
(-0.0343262 -0.0883912 0)
(-0.0136843 -0.0607142 0)
(-0.00123605 -0.0227926 0)
(-0.0015017 0.0302737 0)
(-0.0160399 0.0787952 0)
(-0.0395989 0.112852 0)
(-0.0681057 0.131553 0)
(-0.0973354 0.135814 0)
(-0.124469 0.127592 0)
(-0.147665 0.109291 0)
(-0.165783 0.0833947 0)
(-0.17818 0.0522535 0)
(-0.184532 0.0180329 0)
(-0.1847 -0.0172468 0)
(-0.178662 -0.0516105 0)
(-0.166514 -0.0830095 0)
(-0.148544 -0.109225 0)
(-0.125372 -0.127831 0)
(-0.0981351 -0.136272 0)
(-0.0687017 -0.132079 0)
(-0.0399452 -0.11328 0)
(-0.0161681 -0.0790084 0)
(-0.00150896 -0.0302863 0)
(-0.00184113 0.0390697 0)
(-0.0188521 0.0997591 0)
(-0.045616 0.140732 0)
(-0.0771108 0.161813 0)
(-0.108454 0.165008 0)
(-0.136705 0.153378 0)
(-0.160211 0.130246 0)
(-0.178157 0.0987467 0)
(-0.190234 0.0616391 0)
(-0.196379 0.0213032 0)
(-0.196595 -0.0201448 0)
(-0.190856 -0.0606716 0)
(-0.179112 -0.0981274 0)
(-0.161383 -0.130071 0)
(-0.137939 -0.153653 0)
(-0.109585 -0.165636 0)
(-0.0779896 -0.162603 0)
(-0.0461555 -0.141444 0)
(-0.0190703 -0.100189 0)
(-0.00185884 -0.0391622 0)
(-0.00229285 0.0494711 0)
(-0.0222022 0.123793 0)
(-0.0522482 0.171726 0)
(-0.0862498 0.194356 0)
(-0.118688 0.195358 0)
(-0.146708 0.179324 0)
(-0.16911 0.150719 0)
(-0.185629 0.113394 0)
(-0.196458 0.0704596 0)
(-0.201902 0.024388 0)
(-0.202156 -0.0227652 0)
(-0.197196 -0.0690774 0)
(-0.186781 -0.112461 0)
(-0.170553 -0.150375 0)
(-0.148273 -0.179607 0)
(-0.120171 -0.196176 0)
(-0.0874509 -0.195479 0)
(-0.0530227 -0.172829 0)
(-0.0225374 -0.124544 0)
(-0.00232576 -0.0496973 0)
(-0.00292246 0.0618539 0)
(-0.0262972 0.151174 0)
(-0.0595169 0.205522 0)
(-0.0950356 0.22819 0)
(-0.126852 0.22538 0)
(-0.152577 0.203749 0)
(-0.171835 0.16912 0)
(-0.185198 0.126055 0)
(-0.193537 0.0778876 0)
(-0.197628 0.0269923 0)
(-0.197898 -0.0248433 0)
(-0.194329 -0.0760239 0)
(-0.186454 -0.124734 0)
(-0.173453 -0.168535 0)
(-0.154393 -0.203987 0)
(-0.128645 -0.226377 0)
(-0.0965552 -0.229696 0)
(-0.0605487 -0.20712 0)
(-0.0267731 -0.15237 0)
(-0.00297608 -0.0622826 0)
(-0.00384497 0.0767771 0)
(-0.0314333 0.182141 0)
(-0.0673132 0.241357 0)
(-0.102499 0.261574 0)
(-0.130955 0.252752 0)
(-0.151386 0.224212 0)
(-0.164744 0.183262 0)
(-0.172736 0.135037 0)
(-0.177064 0.0828531 0)
(-0.179007 0.0287335 0)
(-0.179248 -0.026056 0)
(-0.177785 -0.0804894 0)
(-0.17392 -0.133281 0)
(-0.166332 -0.182362 0)
(-0.153258 -0.224323 0)
(-0.132908 -0.25387 0)
(-0.104256 -0.263464 0)
(-0.0685831 -0.243529 0)
(-0.0320621 -0.183907 0)
(-0.00392518 -0.0774904 0)
(-0.00525959 0.0950735 0)
(-0.0379832 0.216749 0)
(-0.075152 0.277639 0)
(-0.106726 0.291608 0)
(-0.127659 0.274021 0)
(-0.138706 0.23738 0)
(-0.142731 0.190355 0)
(-0.14279 0.138289 0)
(-0.14142 0.0841063 0)
(-0.140371 0.0291603 0)
(-0.140527 -0.0260519 0)
(-0.141903 -0.0813067 0)
(-0.143633 -0.136107 0)
(-0.143962 -0.189083 0)
(-0.140298 -0.237255 0)
(-0.129475 -0.275138 0)
(-0.108518 -0.293807 0)
(-0.0765664 -0.280399 0)
(-0.0387505 -0.21918 0)
(-0.00537144 -0.0961583 0)
(-0.00743959 0.1179 0)
(-0.0461828 0.254465 0)
(-0.0814938 0.311261 0)
(-0.103909 0.313662 0)
(-0.111342 0.284338 0)
(-0.10792 0.239047 0)
(-0.0988149 0.187183 0)
(-0.0884139 0.133623 0)
(-0.0798546 0.0803793 0)
(-0.0751029 0.0278227 0)
(-0.0751082 -0.0245074 0)
(-0.0799048 -0.0773284 0)
(-0.0886027 -0.13112 0)
(-0.0992672 -0.185538 0)
(-0.108742 -0.23857 0)
(-0.112561 -0.285267 0)
(-0.105366 -0.315947 0)
(-0.0828409 -0.314515 0)
(-0.0470268 -0.257589 0)
(-0.00758415 -0.11943 0)
(-0.0105282 0.146939 0)
(-0.0552945 0.293363 0)
(-0.0820804 0.336386 0)
(-0.0864239 0.320606 0)
(-0.0726082 0.277373 0)
(-0.049239 0.224484 0)
(-0.0237737 0.17064 0)
(-0.00126394 0.119209 0)
(0.0152036 0.0707371 0)
(0.0239191 0.0243991 0)
(0.0241147 -0.0212284 0)
(0.0157421 -0.0677473 0)
(-0.000521753 -0.116618 0)
(-0.0230417 -0.168725 0)
(-0.0487674 -0.223588 0)
(-0.0726116 -0.277858 0)
(-0.0869916 -0.322672 0)
(-0.0829741 -0.339772 0)
(-0.0560536 -0.297059 0)
(-0.0106908 -0.148944 0)
(-0.014419 0.185828 0)
(-0.0613232 0.328728 0)
(-0.0661986 0.342576 0)
(-0.0393937 0.302316 0)
(0.00414259 0.245923 0)
(0.051255 0.189596 0)
(0.0939136 0.138885 0)
(0.127932 0.0944826 0)
(0.151367 0.0551277 0)
(0.163422 0.0188993 0)
(0.163816 -0.0162983 0)
(0.152502 -0.0526035 0)
(0.129666 -0.0921555 0)
(0.0960025 -0.136951 0)
(0.053361 -0.188359 0)
(0.00587811 -0.245794 0)
(-0.0383798 -0.303726 0)
(-0.0660628 -0.345646 0)
(-0.0616815 -0.332661 0)
(-0.0145636 -0.188258 0)
(-0.0187845 0.238398 0)
(-0.0506088 0.347275 0)
(-0.00867548 0.312777 0)
(0.0654207 0.247353 0)
(0.143216 0.185209 0)
(0.211944 0.134067 0)
(0.267188 0.0937068 0)
(0.308009 0.0616716 0)
(0.334808 0.0352325 0)
(0.348251 0.0119586 0)
(0.348751 -0.0102886 0)
(0.336285 -0.033552 0)
(0.31037 -0.060006 0)
(0.270263 -0.0921367 0)
(0.215438 -0.132781 0)
(0.146698 -0.18455 0)
(0.068363 -0.247806 0)
(-0.00683395 -0.314825 0)
(-0.0501258 -0.350712 0)
(-0.0188153 -0.240966 0)
(0.000709404 0.265762 0)
(0.0284773 0.305657 0)
(0.150895 0.225082 0)
(0.277552 0.152877 0)
(0.378149 0.102171 0)
(0.4531 0.0678344 0)
(0.5072 0.0444592 0)
(0.544432 0.0279636 0)
(0.56777 0.0155128 0)
(0.579173 0.00516862 0)
(0.579589 -0.00450899 0)
(0.56904 -0.0148042 0)
(0.546539 -0.0271898 0)
(0.510119 -0.0436031 0)
(0.456724 -0.0669348 0)
(0.382232 -0.101378 0)
(0.281641 -0.152516 0)
(0.154347 -0.225611 0)
(0.0304053 -0.307433 0)
(0.00110136 -0.267608 0)
(0.27151 0.117227 0)
(0.38669 0.100319 0)
(0.551673 0.0517357 0)
(0.670283 0.0271087 0)
(0.742343 0.0154702 0)
(0.787156 0.00906237 0)
(0.815927 0.00531877 0)
(0.834194 0.00306551 0)
(0.845035 0.00159748 0)
(0.850151 0.000502274 0)
(0.850278 -0.000483054 0)
(0.845486 -0.00156112 0)
(0.83497 -0.0030096 0)
(0.81709 -0.00522646 0)
(0.788763 -0.00891542 0)
(0.744423 -0.015258 0)
(0.67279 -0.0268262 0)
(0.554347 -0.0513912 0)
(0.388802 -0.100115 0)
(0.272433 -0.117378 0)
)
;

boundaryField
{
    movingWall
    {
        type            fixedValue;
        value           uniform (1 0 0);
    }
    fixedWalls
    {
        type            noSlip;
    }
    frontAndBack
    {
        type            empty;
    }
}


// ************************************************************************* //
